 Gaussian 16, Revision A.03,

 ----------------------------------------------------------------------
 #p b3lyp/6-31G(d) opt=(MaxStep=10,MaxCycles=1000) freq scf=(MaxCycle=2
 000,NoVarAcc,NoIncFock) scrf=(iefpcm,read,solvent=water)
 ----------------------------------------------------------------------

 -------------
 282.n.pdb.xyz
 -------------
 Symbolic Z-matrix:
 Charge =  0 Multiplicity = 1

 SCF Done:  E(RB3LYP) =  -799.730801769     A.U. after   13 cycles
 SCF Done:  E(RB3LYP) =  -799.736957229     A.U. after   11 cycles
 SCF Done:  E(RB3LYP) =  -799.740788082     A.U. after   11 cycles
 SCF Done:  E(RB3LYP) =  -799.741657997     A.U. after   10 cycles
 SCF Done:  E(RB3LYP) =  -799.741629041     A.U. after   10 cycles
 SCF Done:  E(RB3LYP) =  -799.741640931     A.U. after   10 cycles
 SCF Done:  E(RB3LYP) =  -799.741712969     A.U. after   10 cycles
 SCF Done:  E(RB3LYP) =  -799.741717869     A.U. after    8 cycles
 SCF Done:  E(RB3LYP) =  -799.741716474     A.U. after    8 cycles
 SCF Done:  E(RB3LYP) =  -799.741718173     A.U. after    8 cycles
 SCF Done:  E(RB3LYP) =  -799.741718511     A.U. after    7 cycles
 SCF Done:  E(RB3LYP) =  -799.741718226     A.U. after    7 cycles
 SCF Done:  E(RB3LYP) =  -799.741717854     A.U. after    8 cycles
 SCF Done:  E(RB3LYP) =  -799.741717716     A.U. after    7 cycles
 SCF Done:  E(RB3LYP) =  -799.741717781     A.U. after    7 cycles
 SCF Done:  E(RB3LYP) =  -799.741718210     A.U. after    9 cycles
 Optimization completed.
    -- Stationary point found.
 Normal termination of Gaussian 16 at Tue Mar  1 16:07:24 2022.

 --------------------------------------------------------------------
 #P Geom=AllCheck Guess=TCheck SCRF=Check GenChk RB3LYP/6-31G(d) Freq
 --------------------------------------------------------------------

 Structure from the checkpoint file:  "282.n.pdb.xyz.mst.wat.chk"
 -------------
 282.n.pdb.xyz
 -------------
 Charge =  0 Multiplicity = 1

 SCF Done:  E(RB3LYP) =  -799.741718210     A.U. after    1 cycles

  Exact polarizability: 300.728   5.297 234.234  -3.206 -15.162  92.587
 Approx polarizability: 318.768  22.315 287.261  -6.517 -23.436 107.728

                      1                      2                      3
                      A                      A                      A
 Frequencies --     33.2697                55.2358                76.5298
 Red. masses --      8.8076                 6.9346                 2.7689
 Frc consts  --      0.0057                 0.0125                 0.0096
 IR Inten    --      1.9055                 0.4272                 0.1424

                      4                      5                      6
                      A                      A                      A
 Frequencies --     79.0362                94.8767               102.4922
 Red. masses --      1.0477                 3.9333                 4.3388
 Frc consts  --      0.0039                 0.0209                 0.0269
 IR Inten    --      0.4721                 4.1804                 3.4264

                      7                      8                      9
                      A                      A                      A
 Frequencies --    161.8409               199.5873               209.2270
 Red. masses --      5.9765                 4.6459                 1.2982
 Frc consts  --      0.0922                 0.1090                 0.0335
 IR Inten    --      3.5194                 7.7015                 2.4648

                     10                     11                     12
                      A                      A                      A
 Frequencies --    246.3940               254.3052               290.8811
 Red. masses --      3.8295                 2.6364                 4.4349
 Frc consts  --      0.1370                 0.1005                 0.2211
 IR Inten    --      1.1537                 3.3611                 6.0812

                     13                     14                     15
                      A                      A                      A
 Frequencies --    306.9353               351.2805               382.6901
 Red. masses --      6.7737                 4.0689                 3.1701
 Frc consts  --      0.3760                 0.2958                 0.2735
 IR Inten    --      8.1556                 6.7410                 7.8913

                     16                     17                     18
                      A                      A                      A
 Frequencies --    389.2531               424.2566               439.5830
 Red. masses --      4.6973                 5.7785                 4.4755
 Frc consts  --      0.4193                 0.6128                 0.5095
 IR Inten    --      9.0151                 4.2132                 0.7236

                     19                     20                     21
                      A                      A                      A
 Frequencies --    483.4913               502.8541               535.2807
 Red. masses --      3.9304                 3.5579                 2.7212
 Frc consts  --      0.5413                 0.5301                 0.4594
 IR Inten    --     31.8917                44.0372                69.4367

                     22                     23                     24
                      A                      A                      A
 Frequencies --    552.0371               562.9688               644.9852
 Red. masses --      1.5748                 5.2396                 4.0375
 Frc consts  --      0.2828                 0.9784                 0.9896
 IR Inten    --     89.3172                10.6961                13.1031

                     25                     26                     27
                      A                      A                      A
 Frequencies --    659.0229               667.0803               714.0899
 Red. masses --      3.6448                 5.1711                 7.3151
 Frc consts  --      0.9327                 1.3558                 2.1977
 IR Inten    --     96.1852                60.4366                 7.2686

                     28                     29                     30
                      A                      A                      A
 Frequencies --    720.6375               779.7084               789.8396
 Red. masses --      5.3689                 9.0777                 4.7478
 Frc consts  --      1.6427                 3.2516                 1.7451
 IR Inten    --     11.1345                 7.0768                 1.7523

                     31                     32                     33
                      A                      A                      A
 Frequencies --    806.6812               816.6912               866.9348
 Red. masses --      1.2908                 3.6723                 1.6614
 Frc consts  --      0.4949                 1.4431                 0.7357
 IR Inten    --      9.8227                80.1566                 3.3714

                     34                     35                     36
                      A                      A                      A
 Frequencies --    883.1361               946.8380               976.8557
 Red. masses --      4.5285                 4.1689                 2.1628
 Frc consts  --      2.0809                 2.2020                 1.2160
 IR Inten    --      1.2885                42.4937                 4.2341

                     37                     38                     39
                      A                      A                      A
 Frequencies --    983.9069              1019.8693              1031.4177
 Red. masses --      1.4278                 1.3310                 1.7712
 Frc consts  --      0.8144                 0.8156                 1.1102
 IR Inten    --      6.3605                 0.2438                50.0610

                     40                     41                     42
                      A                      A                      A
 Frequencies --   1066.7277              1073.0787              1101.5970
 Red. masses --      1.5807                 3.3457                 4.4160
 Frc consts  --      1.0597                 2.2699                 3.1573
 IR Inten    --      9.4945                 5.0384               316.8741

                     43                     44                     45
                      A                      A                      A
 Frequencies --   1122.1307              1140.6068              1167.2155
 Red. masses --      1.9393                 1.5775                 1.7622
 Frc consts  --      1.4387                 1.2092                 1.4145
 IR Inten    --     46.2111               122.9985                39.5702

                     46                     47                     48
                      A                      A                      A
 Frequencies --   1196.1278              1258.1252              1284.4748
 Red. masses --      1.8519                 2.0096                 3.3909
 Frc consts  --      1.5611                 1.8742                 3.2962
 IR Inten    --    212.1192                50.8121                 6.1857

                     49                     50                     51
                      A                      A                      A
 Frequencies --   1302.4425              1317.5624              1362.0723
 Red. masses --      2.2509                 1.7613                 4.0638
 Frc consts  --      2.2497                 1.8015                 4.4420
 IR Inten    --    232.2389                21.2211                84.8260

                     52                     53                     54
                      A                      A                      A
 Frequencies --   1383.9426              1398.1358              1413.6000
 Red. masses --      2.9521                 2.1223                 1.7741
 Frc consts  --      3.3314                 2.4443                 2.0887
 IR Inten    --    218.3825                28.0342                29.3441

                     55                     56                     57
                      A                      A                      A
 Frequencies --   1424.4374              1428.6051              1435.5589
 Red. masses --      2.0596                 1.5398                 1.2810
 Frc consts  --      2.4622                 1.8515                 1.5554
 IR Inten    --    109.1988                25.8733                17.0494

                     58                     59                     60
                      A                      A                      A
 Frequencies --   1476.6253              1491.8688              1498.1186
 Red. masses --      2.9505                 1.2902                 1.0482
 Frc consts  --      3.7904                 1.6919                 1.3860
 IR Inten    --    693.0449                47.4696                 8.2430

                     61                     62                     63
                      A                      A                      A
 Frequencies --   1500.6326              1511.4221              1524.0225
 Red. masses --      1.0972                 1.0496                 1.1588
 Frc consts  --      1.4557                 1.4126                 1.5858
 IR Inten    --     11.6616                12.0487                13.3907

                     64                     65                     66
                      A                      A                      A
 Frequencies --   1536.8998              1592.8043              1640.1745
 Red. masses --      2.5687                 5.0588                 6.1947
 Frc consts  --      3.5748                 7.5618                 9.8186
 IR Inten    --    118.7222               111.9579                34.4068

                     67                     68                     69
                      A                      A                      A
 Frequencies --   1659.9253              1678.7014              1779.6981
 Red. masses --      6.1436                11.0531                10.6406
 Frc consts  --      9.9736                18.3518                19.8567
 IR Inten    --    700.0381               408.6703              1058.4114

                     70                     71                     72
                      A                      A                      A
 Frequencies --   3063.3993              3078.0643              3117.2034
 Red. masses --      1.0389                 1.0353                 1.1008
 Frc consts  --      5.7445                 5.7791                 6.3019
 IR Inten    --     18.2690                25.7631                15.8820

                     73                     74                     75
                      A                      A                      A
 Frequencies --   3121.4468              3146.9937              3157.9524
 Red. masses --      1.0629                 1.1034                 1.1012
 Frc consts  --      6.1019                 6.4384                 6.4706
 IR Inten    --     28.8499                28.1694                40.8047

                     76                     77                     78
                      A                      A                      A
 Frequencies --   3171.0181              3182.3311              3228.0213
 Red. masses --      1.1008                 1.1062                 1.0892
 Frc consts  --      6.5218                 6.6004                 6.6871
 IR Inten    --     20.9453                21.9455                 7.0823

                     79                     80                     81
                      A                      A                      A
 Frequencies --   3244.7735              3264.0524              3665.6523
 Red. masses --      1.0943                 1.0919                 1.0652
 Frc consts  --      6.7883                 6.8540                 8.4331
 IR Inten    --     13.8075                 0.6559               238.5793

 - Thermochemistry -
 -------------------
 Temperature   298.150 Kelvin.  Pressure   1.00000 Atm.
 Atom     1 has atomic number  6 and mass  12.00000

 Molecular mass:   232.08479 amu.
 Principal axes and moments of inertia in atomic units:
                           1         2         3
     Eigenvalues --  2282.684365237.622207329.36181
           X            0.99995  -0.01023   0.00160
           Y            0.01021   0.99992   0.00766
           Z           -0.00168  -0.00764   0.99997
 This molecule is an asymmetric top.
 Rotational symmetry number  1.
 Warning -- assumption of classical behavior for rotation
           may cause significant error
 Rotational temperatures (Kelvin)      0.03794     0.01654     0.01182
 Rotational constants (GHZ):           0.79062     0.34457     0.24623
 Zero-point vibrational energy     599629.6 (Joules/Mol)
                                  143.31492 (Kcal/Mol)
 Warning -- explicit consideration of  23 degrees of freedom as
           vibrations may cause significant error
 Vibrational temperatures:     47.87    79.47   110.11   113.72   136.51
          (Kelvin)            147.46   232.85   287.16   301.03   354.51
                              365.89   418.51   441.61   505.41   550.61
                              560.05   610.41   632.46   695.64   723.49
                              770.15   794.26   809.99   927.99   948.19
                              959.78  1027.42  1036.84  1121.83  1136.40
                             1160.63  1175.04  1247.33  1270.64  1362.29
                             1405.48  1415.62  1467.36  1483.98  1534.78
                             1543.92  1584.95  1614.50  1641.08  1679.36
                             1720.96  1810.16  1848.07  1873.92  1895.68
                             1959.72  1991.18  2011.61  2033.86  2049.45
                             2055.44  2065.45  2124.53  2146.47  2155.46
                             2159.08  2174.60  2192.73  2211.26  2291.69
                             2359.85  2388.26  2415.28  2560.59  4407.55
                             4428.65  4484.96  4491.07  4527.82  4543.59
                             4562.39  4578.66  4644.40  4668.51  4696.24
                             5274.06

 Zero-point correction=                           0.228387 (Hartree/Particle)
 Thermal correction to Energy=                    0.243620
 Thermal correction to Enthalpy=                  0.244564
 Thermal correction to Gibbs Free Energy=         0.185122
 Sum of electronic and zero-point Energies=           -799.513331
 Sum of electronic and thermal Energies=              -799.498098
 Sum of electronic and thermal Enthalpies=            -799.497154
 Sum of electronic and thermal Free Energies=         -799.556596

                     E (Thermal)             CV                S
                      KCal/Mol        Cal/Mol-Kelvin    Cal/Mol-Kelvin
 Total                  152.874             57.360            125.107
 Electronic               0.000              0.000              0.000
 Translational            0.889              2.981             42.228
 Rotational               0.889              2.981             32.838
 Vibrational            151.097             51.398             50.041
 Vibration     1          0.594              1.983              5.624
 Vibration     2          0.596              1.975              4.621
 Vibration     3          0.599              1.965              3.978
 Vibration     4          0.600              1.963              3.915
 Vibration     5          0.603              1.953              3.557
 Vibration     6          0.605              1.947              3.406
 Vibration     7          0.622              1.889              2.528
 Vibration     8          0.638              1.840              2.137
 Vibration     9          0.642              1.827              2.050
 Vibration    10          0.661              1.769              1.756
 Vibration    11          0.665              1.756              1.701
 Vibration    12          0.687              1.691              1.469
 Vibration    13          0.697              1.661              1.379
 Vibration    14          0.728              1.573              1.160
 Vibration    15          0.752              1.507              1.029
 Vibration    16          0.757              1.493              1.003
 Vibration    17          0.786              1.417              0.878
 Vibration    18          0.800              1.384              0.828
 Vibration    19          0.840              1.287              0.701
 Vibration    20          0.858              1.244              0.651
 Vibration    21          0.890              1.172              0.576
 Vibration    22          0.907              1.135              0.540
 Vibration    23          0.919              1.111              0.518

                           ! Non-Optimized Parameters !
 Normal termination of Gaussian 16 at Tue Mar  1 16:32:52 2022.

 ------------------------------------------
 #p b3lyp/6-31G(d) geom=allcheck guess=read
 ------------------------------------------

 Structure from the checkpoint file:  "282.n.pdb.xyz.mst.wat.chk"
 -------------
 282.n.pdb.xyz
 -------------
 Charge =  0 Multiplicity = 1

 SCF Done:  E(RB3LYP) =  -799.717006820     A.U. after   13 cycles
 Normal termination of Gaussian 16 at Tue Mar  1 16:35:08 2022.
 Gaussian 16:  ES64L-G16RevA.03 25-Dec-2016

 ----------------------------------------------------------------------
 #p b3lyp/6-31G(d) scrf=(iefpcm,read,solvent=water) geom=allcheck guess
 =read
 ----------------------------------------------------------------------

 Structure from the checkpoint file:  "282.n.pdb.xyz.mst.wat.chk"
 -------------
 282.n.pdb.xyz
 -------------
 Charge =  0 Multiplicity = 1

                         Standard orientation:
 ---------------------------------------------------------------------
 Center     Atomic      Atomic             Coordinates (Angstroms)
 Number     Number       Type             X           Y           Z
 ---------------------------------------------------------------------
      1          6           0        0.971858    3.281630    0.916265
      2          6           0        0.627514    2.640647   -0.424029
      3          7           0        0.084431    1.271982   -0.278365
      4          6           0       -1.247440    1.082384   -0.228767
      5          6           0       -1.870654   -0.138146   -0.058658
      6          6           0       -3.344106   -0.177812   -0.020585
      7          8           0       -3.905015    1.038749   -0.236551
      8          8           0       -4.029317   -1.166826    0.181798
      9          6           0       -1.066759   -1.349155    0.077369
     10          8           0       -1.508680   -2.498341    0.224551
     11          6           0        0.389497   -1.105083    0.020333
     12          6           0        1.296884   -2.168465    0.137585
     13          6           0        2.654363   -1.924395    0.086485
     14          6           0        3.104531   -0.598674   -0.084136
     15          6           0        4.574809   -0.286625   -0.142021
     16          7           0        2.256914    0.427796   -0.198353
     17          6           0        0.940560    0.177397   -0.148746
     18          1           0        0.089953    3.346085    1.559455
     19          1           0        1.745854    2.712703    1.436528
     20          1           0        1.345802    4.294363    0.745167
     21          1           0       -0.133273    3.220036   -0.948524
     22          1           0        1.507295    2.572052   -1.062152
     23          1           0       -1.840779    1.980889   -0.334713
     24          1           0       -4.874067    0.923008   -0.180646
     25          1           0        0.895060   -3.166478    0.267702
     26          1           0        3.372653   -2.730922    0.176701
     27          1           0        4.729786    0.784365   -0.277140
     28          1           0        5.076060   -0.603913    0.779276
     29          1           0        5.053991   -0.821499   -0.969570
 ---------------------------------------------------------------------

 SCF Done:  E(RB3LYP) =  -799.739394313     A.U. after   12 cycles

 The electronic state is 1-A.
 Alpha  occ. eigenvalues --  -19.18765 -19.13384 -19.11697 -14.41309 -14.34218
 Alpha  occ. eigenvalues --  -10.32283 -10.27915 -10.27195 -10.26155 -10.24734
 Alpha  occ. eigenvalues --  -10.23237 -10.21334 -10.20781 -10.20557 -10.20026
 Alpha  occ. eigenvalues --  -10.18415 -10.18191  -1.09797  -1.02252  -1.01285
 Alpha  occ. eigenvalues --   -1.00412  -0.94718  -0.83197  -0.80521  -0.79875
 Alpha  occ. eigenvalues --   -0.75907  -0.72192  -0.68520  -0.65785  -0.64644
 Alpha  occ. eigenvalues --   -0.60872  -0.59688  -0.54844  -0.54536  -0.52604
 Alpha  occ. eigenvalues --   -0.48818  -0.48641  -0.47527  -0.46434  -0.45385
 Alpha  occ. eigenvalues --   -0.44865  -0.44291  -0.43795  -0.42889  -0.41744
 Alpha  occ. eigenvalues --   -0.40573  -0.40158  -0.39184  -0.38631  -0.38028
 Alpha  occ. eigenvalues --   -0.37705  -0.37417  -0.35886  -0.35066  -0.31531
 Alpha  occ. eigenvalues --   -0.29332  -0.28439  -0.27739  -0.26892  -0.23995
 Alpha  occ. eigenvalues --   -0.23092
 Alpha virt. eigenvalues --   -0.05851  -0.04817  -0.00235   0.02435   0.09451
 Alpha virt. eigenvalues --    0.10449   0.10669   0.11053   0.12723   0.13110
 Alpha virt. eigenvalues --    0.14800   0.15384   0.15911   0.16957   0.17511

 Mulliken charges:
               1
     1  C   -0.452122
     2  C   -0.149626
     3  N   -0.488518
     4  C    0.073301
     5  C   -0.070568
     6  C    0.566461
     7  O   -0.614702
     8  O   -0.529667
     9  C    0.381321
    10  O   -0.588744
    11  C    0.045177
    12  C   -0.140617
    13  C   -0.180867
    14  C    0.326818
    15  C   -0.526355
    16  N   -0.582830
    17  C    0.500145
    18  H    0.163346
    19  H    0.171575
    20  H    0.168451
    21  H    0.184545
    22  H    0.192870
    23  H    0.219146
    24  H    0.457264
    25  H    0.170036
    26  H    0.164605
    27  H    0.174176
    28  H    0.182738
    29  H    0.182640
 Sum of Mulliken charges =  -0.00000

 Dipole moment (field-independent basis, Debye):
    X=              6.0602    Y=              7.6237    Z=             -0.9750  Tot=              9.7876
 Quadrupole moment (field-independent basis, Debye-Ang):
   XX=            -89.5011   YY=            -97.2029   ZZ=            -96.7593
   XY=            -24.6974   XZ=              2.9639   YZ=              0.4271

 Normal termination of Gaussian 16 at Tue Mar  1 16:37:37 2022.
