 Gaussian 16, Revision A.03,

 ----------------------------------------------------------------------
 #p b3lyp/6-31G(d) opt=(MaxStep=10,MaxCycles=1000) freq scf=(MaxCycle=2
 000,NoVarAcc,NoIncFock) scrf=(iefpcm,read,solvent=water)
 ----------------------------------------------------------------------

 -------------
 285.n.pdb.xyz
 -------------
 Symbolic Z-matrix:
 Charge =  0 Multiplicity = 1

 SCF Done:  E(RB3LYP) =  -907.162119313     A.U. after   13 cycles
 SCF Done:  E(RB3LYP) =  -907.167595016     A.U. after   11 cycles
 SCF Done:  E(RB3LYP) =  -907.169277416     A.U. after   11 cycles
 SCF Done:  E(RB3LYP) =  -907.170653166     A.U. after   11 cycles
 SCF Done:  E(RB3LYP) =  -907.171475847     A.U. after   11 cycles
 SCF Done:  E(RB3LYP) =  -907.171632700     A.U. after   10 cycles
 SCF Done:  E(RB3LYP) =  -907.171646620     A.U. after   10 cycles
 SCF Done:  E(RB3LYP) =  -907.171691238     A.U. after    9 cycles
 SCF Done:  E(RB3LYP) =  -907.171701671     A.U. after    9 cycles
 SCF Done:  E(RB3LYP) =  -907.171705701     A.U. after    8 cycles
 SCF Done:  E(RB3LYP) =  -907.171712579     A.U. after    8 cycles
 SCF Done:  E(RB3LYP) =  -907.171714593     A.U. after    8 cycles
 SCF Done:  E(RB3LYP) =  -907.171715655     A.U. after    7 cycles
 SCF Done:  E(RB3LYP) =  -907.171716563     A.U. after    7 cycles
 SCF Done:  E(RB3LYP) =  -907.171716566     A.U. after    7 cycles
 SCF Done:  E(RB3LYP) =  -907.171716532     A.U. after    7 cycles
 Optimization completed.
    -- Stationary point found.
 Normal termination of Gaussian 16 at Tue Mar  1 21:39:43 2022.

 --------------------------------------------------------------------
 #P Geom=AllCheck Guess=TCheck SCRF=Check GenChk RB3LYP/6-31G(d) Freq
 --------------------------------------------------------------------

 Structure from the checkpoint file:  "285.n.pdb.xyz.mst.wat.chk"
 -------------
 285.n.pdb.xyz
 -------------
 Charge =  0 Multiplicity = 1

 SCF Done:  E(RB3LYP) =  -907.171716532     A.U. after    1 cycles

  Exact polarizability: 208.104   9.883 155.987   1.807 -16.258 113.746
 Approx polarizability: 211.116   8.228 188.109   4.537 -27.183 130.685

                      1                      2                      3
                      A                      A                      A
 Frequencies --     23.3426                38.7596                61.9136
 Red. masses --      8.4386                 6.3870                 6.3912
 Frc consts  --      0.0027                 0.0057                 0.0144
 IR Inten    --      3.7222                 5.0357                 3.8124

                      4                      5                      6
                      A                      A                      A
 Frequencies --     90.0889                96.9588               116.0347
 Red. masses --      6.1666                 4.9192                 4.5756
 Frc consts  --      0.0295                 0.0272                 0.0363
 IR Inten    --      1.5082                 1.9522                12.5735

                      7                      8                      9
                      A                      A                      A
 Frequencies --    139.2577               183.7067               196.4698
 Red. masses --      5.9052                 1.2069                 4.4951
 Frc consts  --      0.0675                 0.0240                 0.1022
 IR Inten    --      7.7271               351.2119                31.2956

                     10                     11                     12
                      A                      A                      A
 Frequencies --    201.1028               214.3847               246.2589
 Red. masses --      3.6660                 5.7844                 5.2841
 Frc consts  --      0.0874                 0.1566                 0.1888
 IR Inten    --     18.6025                32.2185                16.6463

                     13                     14                     15
                      A                      A                      A
 Frequencies --    268.4975               296.9111               317.5434
 Red. masses --      2.7616                 1.4488                 1.4291
 Frc consts  --      0.1173                 0.0752                 0.0849
 IR Inten    --     75.4204               202.6750                91.1864

                     16                     17                     18
                      A                      A                      A
 Frequencies --    327.4221               334.4814               347.6606
 Red. masses --      3.4461                 1.7687                 2.2256
 Frc consts  --      0.2177                 0.1166                 0.1585
 IR Inten    --     56.7516               125.0296                82.7938

                     19                     20                     21
                      A                      A                      A
 Frequencies --    412.7525               438.5474               463.4170
 Red. masses --      3.5245                 5.3560                 4.3816
 Frc consts  --      0.3538                 0.6069                 0.5544
 IR Inten    --     57.4685                36.7063                 3.7800

                     22                     23                     24
                      A                      A                      A
 Frequencies --    492.0216               525.2015               538.6112
 Red. masses --      6.5757                 1.6558                 2.2917
 Frc consts  --      0.9379                 0.2691                 0.3917
 IR Inten    --     13.1243                 5.0640                 1.9661

                     25                     26                     27
                      A                      A                      A
 Frequencies --    557.3798               673.0594               690.4415
 Red. masses --      4.8445                 4.0119                 4.8238
 Frc consts  --      0.8868                 1.0708                 1.3548
 IR Inten    --      9.4858                 4.1246                37.6328

                     28                     29                     30
                      A                      A                      A
 Frequencies --    698.9426               747.8585               792.4374
 Red. masses --      6.0161                 5.5415                 5.7399
 Frc consts  --      1.7316                 1.8261                 2.1237
 IR Inten    --     36.3400                22.5944                 9.6310

                     31                     32                     33
                      A                      A                      A
 Frequencies --    818.3702               829.3598               872.6944
 Red. masses --      5.2330                 4.0922                 2.6406
 Frc consts  --      2.0649                 1.6584                 1.1849
 IR Inten    --     34.1849                74.0088                10.9991

                     34                     35                     36
                      A                      A                      A
 Frequencies --    898.7040               924.9153               975.2429
 Red. masses --      1.3807                 3.2670                 2.9429
 Frc consts  --      0.6570                 1.6467                 1.6491
 IR Inten    --     13.9143               114.4997                55.1040

                     37                     38                     39
                      A                      A                      A
 Frequencies --   1003.8822              1019.8824              1035.2691
 Red. masses --      2.1281                 6.2794                 2.9093
 Frc consts  --      1.2636                 3.8483                 1.8371
 IR Inten    --     11.5492                65.8109               113.5417

                     40                     41                     42
                      A                      A                      A
 Frequencies --   1043.6259              1071.8453              1086.9476
 Red. masses --      4.7673                 3.1035                 3.5773
 Frc consts  --      3.0592                 2.1007                 2.4901
 IR Inten    --    134.9339               182.9408               227.5561

                     43                     44                     45
                      A                      A                      A
 Frequencies --   1099.6209              1109.6329              1118.1352
 Red. masses --      3.5158                 1.7772                 3.2569
 Frc consts  --      2.5047                 1.2892                 2.3991
 IR Inten    --      8.2858                 1.3590                88.5750

                     46                     47                     48
                      A                      A                      A
 Frequencies --   1148.5535              1194.4791              1212.8848
 Red. masses --      3.3410                 1.2136                 1.5067
 Frc consts  --      2.5967                 1.0202                 1.3059
 IR Inten    --     77.2049                36.8904                44.1917

                     49                     50                     51
                      A                      A                      A
 Frequencies --   1221.3173              1257.8875              1270.7337
 Red. masses --      1.7072                 1.3108                 2.4582
 Frc consts  --      1.5004                 1.2220                 2.3387
 IR Inten    --     51.0360                35.5059                43.0775

                     52                     53                     54
                      A                      A                      A
 Frequencies --   1311.5465              1331.7171              1332.3338
 Red. masses --      1.2641                 1.5370                 2.8833
 Frc consts  --      1.2811                 1.6060                 3.0156
 IR Inten    --     14.4107                20.8015                60.5770

                     55                     56                     57
                      A                      A                      A
 Frequencies --   1357.7440              1362.5090              1372.7420
 Red. masses --      1.3490                 4.0303                 1.5373
 Frc consts  --      1.4652                 4.4083                 1.7069
 IR Inten    --     44.3894               403.9177                37.0709

                     58                     59                     60
                      A                      A                      A
 Frequencies --   1381.3937              1404.1405              1416.4892
 Red. masses --      1.4088                 1.3251                 1.5482
 Frc consts  --      1.5839                 1.5393                 1.8302
 IR Inten    --     11.9045                66.2960               131.8578

                     61                     62                     63
                      A                      A                      A
 Frequencies --   1422.0034              1431.8962              1441.0757
 Red. masses --      1.3660                 2.2409                 2.5076
 Frc consts  --      1.6274                 2.7071                 3.0682
 IR Inten    --     24.2785                38.1791                32.1378

                     64                     65                     66
                      A                      A                      A
 Frequencies --   1452.8575              1454.6202              1527.9164
 Red. masses --      2.5163                 2.5988                 1.0851
 Frc consts  --      3.1294                 3.2398                 1.4925
 IR Inten    --     41.9110                 8.5806                 4.0623

                     67                     68                     69
                      A                      A                      A
 Frequencies --   1561.5622              1638.5128              1736.1674
 Red. masses --      4.3051                 1.3041                 9.3284
 Frc consts  --      6.1851                 2.0627                16.5669
 IR Inten    --     22.6696               244.3463               638.9040

                     70                     71                     72
                      A                      A                      A
 Frequencies --   3043.3112              3061.2965              3071.1530
 Red. masses --      1.0692                 1.0856                 1.0855
 Frc consts  --      5.8345                 5.9940                 6.0320
 IR Inten    --     90.0015                78.8244                59.9162

                     73                     74                     75
                      A                      A                      A
 Frequencies --   3095.7097              3111.5330              3150.4307
 Red. masses --      1.0862                 1.0852                 1.0968
 Frc consts  --      6.1330                 6.1900                 6.4136
 IR Inten    --     41.8387                37.5324                32.8609

                     76                     77                     78
                      A                      A                      A
 Frequencies --   3306.1284              3580.4830              3590.4938
 Red. masses --      1.0985                 1.0466                 1.0665
 Frc consts  --      7.0746                 7.9054                 8.1007
 IR Inten    --      0.5643               171.9027               378.5996

                     79                     80                     81
                      A                      A                      A
 Frequencies --   3697.5599              3711.3295              3718.3232
 Red. masses --      1.1066                 1.0664                 1.0665
 Frc consts  --      8.9137                 8.6545                 8.6877
 IR Inten    --    124.4792                94.3938                81.7601

 - Thermochemistry -
 -------------------
 Temperature   298.150 Kelvin.  Pressure   1.00000 Atm.
 Atom     1 has atomic number  7 and mass  14.00307

 Molecular mass:   244.08077 amu.
 Principal axes and moments of inertia in atomic units:
                           1         2         3
     Eigenvalues --  1501.097448414.828538784.18333
           X            0.99996   0.00843  -0.00423
           Y           -0.00823   0.99896   0.04485
           Z            0.00461  -0.04481   0.99898
 This molecule is an asymmetric top.
 Rotational symmetry number  1.
 Warning -- assumption of classical behavior for rotation
           may cause significant error
 Rotational temperatures (Kelvin)      0.05770     0.01029     0.00986
 Rotational constants (GHZ):           1.20228     0.21447     0.20545
 Zero-point vibrational energy     591077.4 (Joules/Mol)
                                  141.27090 (Kcal/Mol)
 Warning -- explicit consideration of  25 degrees of freedom as
           vibrations may cause significant error
 Vibrational temperatures:     33.58    55.77    89.08   129.62   139.50
          (Kelvin)            166.95   200.36   264.31   282.68   289.34
                              308.45   354.31   386.31   427.19   456.87
                              471.09   481.24   500.21   593.86   630.97
                              666.75   707.91   755.65   774.94   801.95
                              968.38   993.39  1005.62  1076.00  1140.14
                             1177.45  1193.26  1255.61  1293.03  1330.75
                             1403.16  1444.36  1467.38  1489.52  1501.54
                             1542.15  1563.88  1582.11  1596.51  1608.75
                             1652.51  1718.59  1745.07  1757.20  1809.82
                             1828.30  1887.02  1916.04  1916.93  1953.49
                             1960.35  1975.07  1987.52  2020.25  2038.01
                             2045.95  2060.18  2073.39  2090.34  2092.87
                             2198.33  2246.74  2357.45  2497.96  4378.65
                             4404.52  4418.70  4454.04  4476.80  4532.77
                             4756.78  5151.52  5165.92  5319.96  5339.78
                             5349.84

 Zero-point correction=                           0.225130 (Hartree/Particle)
 Thermal correction to Energy=                    0.241535
 Thermal correction to Enthalpy=                  0.242479
 Thermal correction to Gibbs Free Energy=         0.180029
 Sum of electronic and zero-point Energies=           -906.946587
 Sum of electronic and thermal Energies=              -906.930182
 Sum of electronic and thermal Enthalpies=            -906.929237
 Sum of electronic and thermal Free Energies=         -906.991688

                     E (Thermal)             CV                S
                      KCal/Mol        Cal/Mol-Kelvin    Cal/Mol-Kelvin
 Total                  151.566             60.397            131.438
 Electronic               0.000              0.000              0.000
 Translational            0.889              2.981             42.378
 Rotational               0.889              2.981             33.073
 Vibrational            149.788             54.436             55.987
 Vibration     1          0.593              1.985              6.327
 Vibration     2          0.594              1.981              5.321
 Vibration     3          0.597              1.972              4.395
 Vibration     4          0.602              1.956              3.658
 Vibration     5          0.603              1.951              3.515
 Vibration     6          0.608              1.936              3.165
 Vibration     7          0.615              1.914              2.814
 Vibration     8          0.631              1.862              2.290
 Vibration     9          0.636              1.845              2.166
 Vibration    10          0.638              1.838              2.123
 Vibration    11          0.644              1.819              2.006
 Vibration    12          0.661              1.769              1.757
 Vibration    13          0.673              1.731              1.606
 Vibration    14          0.691              1.679              1.434
 Vibration    15          0.704              1.640              1.323
 Vibration    16          0.711              1.621              1.273
 Vibration    17          0.716              1.607              1.238
 Vibration    18          0.725              1.580              1.177
 Vibration    19          0.777              1.443              0.917
 Vibration    20          0.799              1.386              0.831
 Vibration    21          0.821              1.331              0.756
 Vibration    22          0.848              1.268              0.678
 Vibration    23          0.880              1.194              0.598
 Vibration    24          0.894              1.165              0.568
 Vibration    25          0.913              1.124              0.529

                           ! Non-Optimized Parameters !
 Normal termination of Gaussian 16 at Tue Mar  1 22:02:27 2022.

 ------------------------------------------
 #p b3lyp/6-31G(d) geom=allcheck guess=read
 ------------------------------------------

 Structure from the checkpoint file:  "285.n.pdb.xyz.mst.wat.chk"
 -------------
 285.n.pdb.xyz
 -------------
 Charge =  0 Multiplicity = 1

 SCF Done:  E(RB3LYP) =  -907.125908463     A.U. after   12 cycles
 Normal termination of Gaussian 16 at Tue Mar  1 22:04:19 2022.
 Gaussian 16:  ES64L-G16RevA.03 25-Dec-2016

 ----------------------------------------------------------------------
 #p b3lyp/6-31G(d) scrf=(iefpcm,read,solvent=water) geom=allcheck guess
 =read
 ----------------------------------------------------------------------

 Structure from the checkpoint file:  "285.n.pdb.xyz.mst.wat.chk"
 -------------
 285.n.pdb.xyz
 -------------
 Charge =  0 Multiplicity = 1

                         Standard orientation:
 ---------------------------------------------------------------------
 Center     Atomic      Atomic             Coordinates (Angstroms)
 Number     Number       Type             X           Y           Z
 ---------------------------------------------------------------------
      1          7           0       -5.222540   -0.698661   -0.082448
      2          6           0       -4.288386    0.240533   -0.334449
      3          8           0       -4.550903    1.358698   -0.786284
      4          6           0       -2.879917   -0.146616   -0.022925
      5          7           0       -1.883078    0.707597   -0.289923
      6          7           0       -0.792545    0.071696    0.109885
      7          7           0       -0.999136   -1.151767    0.617618
      8          6           0       -2.317618   -1.306936    0.546532
      9          6           0        0.526284    0.665216   -0.022613
     10          8           0        1.218449    0.050525   -1.096751
     11          6           0        2.642828    0.140016   -0.843067
     12          6           0        3.227016   -1.270232   -0.919943
     13          8           0        4.638982   -1.268768   -0.762646
     14          6           0        2.799996    0.817466    0.526595
     15          8           0        2.991710    2.206943    0.303152
     16          6           0        1.451417    0.531183    1.204030
     17          8           0        1.522617   -0.774756    1.741866
     18          1           0       -6.191479   -0.488358   -0.286849
     19          1           0       -5.001005   -1.626211    0.254907
     20          1           0       -2.786147   -2.212364    0.900108
     21          1           0        0.337704    1.722393   -0.226116
     22          1           0        3.092657    0.780652   -1.609718
     23          1           0        2.923626   -1.728735   -1.870012
     24          1           0        2.815918   -1.864189   -0.102327
     25          1           0        5.020399   -0.823921   -1.539053
     26          1           0        3.623280    0.379109    1.098338
     27          1           0        3.089811    2.634962    1.171789
     28          1           0        1.197988    1.276437    1.967983
     29          1           0        0.621779   -1.156753    1.755353
 ---------------------------------------------------------------------

 SCF Done:  E(RB3LYP) =  -907.168607102     A.U. after   12 cycles

 The electronic state is 1-A.
 Alpha  occ. eigenvalues --  -19.16841 -19.15283 -19.15149 -19.14693 -19.12023
 Alpha  occ. eigenvalues --  -14.46853 -14.39332 -14.39201 -14.35718 -10.30539
 Alpha  occ. eigenvalues --  -10.29386 -10.24966 -10.24234 -10.24023 -10.24003
 Alpha  occ. eigenvalues --  -10.23941 -10.22725  -1.13260  -1.06560  -1.03708
 Alpha  occ. eigenvalues --   -1.02478  -1.02115  -1.01644  -0.91487  -0.90814
 Alpha  occ. eigenvalues --   -0.86953  -0.77463  -0.76127  -0.69595  -0.67096
 Alpha  occ. eigenvalues --   -0.64397  -0.60644  -0.59996  -0.58697  -0.55765
 Alpha  occ. eigenvalues --   -0.53953  -0.52351  -0.51849  -0.50515  -0.49899
 Alpha  occ. eigenvalues --   -0.48655  -0.48300  -0.46512  -0.45952  -0.43621
 Alpha  occ. eigenvalues --   -0.42742  -0.42106  -0.41299  -0.40777  -0.38694
 Alpha  occ. eigenvalues --   -0.37950  -0.37076  -0.34947  -0.34176  -0.32828
 Alpha  occ. eigenvalues --   -0.31953  -0.31138  -0.29611  -0.28638  -0.27838
 Alpha  occ. eigenvalues --   -0.27392  -0.27142  -0.26569  -0.25994
 Alpha virt. eigenvalues --   -0.04217  -0.01102   0.07746   0.08136   0.09159
 Alpha virt. eigenvalues --    0.09580   0.11031   0.12260   0.13403   0.13924
 Alpha virt. eigenvalues --    0.15215   0.15273   0.16004   0.16421   0.17392

 Mulliken charges:
               1
     1  N   -0.767339
     2  C    0.563051
     3  O   -0.589762
     4  C    0.229189
     5  N   -0.340764
     6  N   -0.056694
     7  N   -0.311806
     8  C   -0.007713
     9  C    0.309441
    10  O   -0.534479
    11  C    0.126747
    12  C   -0.052903
    13  O   -0.661959
    14  C    0.083252
    15  O   -0.679501
    16  C    0.085231
    17  O   -0.674462
    18  H    0.392921
    19  H    0.395347
    20  H    0.205573
    21  H    0.178196
    22  H    0.155058
    23  H    0.143671
    24  H    0.161029
    25  H    0.439662
    26  H    0.161586
    27  H    0.446105
    28  H    0.158059
    29  H    0.443264
 Sum of Mulliken charges =  -0.00000

 Dipole moment (field-independent basis, Debye):
    X=             -1.8006    Y=             -3.4019    Z=              2.9619  Tot=              4.8567
 Quadrupole moment (field-independent basis, Debye-Ang):
   XX=            -79.3798   YY=            -97.9389   ZZ=            -94.0906
   XY=             36.5015   XZ=            -13.9811   YZ=              8.8865

 Normal termination of Gaussian 16 at Tue Mar  1 22:06:30 2022.
