 Gaussian 16, Revision A.03,

 ----------------------------------------------------------------------
 #p b3lyp/6-31G(d) opt=(MaxStep=10,MaxCycles=1000) freq scf=(MaxCycle=2
 000,NoVarAcc,NoIncFock) scrf=(iefpcm,read,solvent=water)
 ----------------------------------------------------------------------

 -------------
 286.n.pdb.xyz
 -------------
 Symbolic Z-matrix:
 Charge =  0 Multiplicity = 1

 SCF Done:  E(RB3LYP) =  -994.617509112     A.U. after   13 cycles
 SCF Done:  E(RB3LYP) =  -994.622376138     A.U. after   10 cycles
 SCF Done:  E(RB3LYP) =  -994.624726647     A.U. after   11 cycles
 SCF Done:  E(RB3LYP) =  -994.624642164     A.U. after   10 cycles
 SCF Done:  E(RB3LYP) =  -994.624924053     A.U. after   10 cycles
 SCF Done:  E(RB3LYP) =  -994.625043000     A.U. after   10 cycles
 SCF Done:  E(RB3LYP) =  -994.625147569     A.U. after   10 cycles
 SCF Done:  E(RB3LYP) =  -994.625217826     A.U. after   10 cycles
 SCF Done:  E(RB3LYP) =  -994.625215832     A.U. after   10 cycles
 SCF Done:  E(RB3LYP) =  -994.625247774     A.U. after   10 cycles
 SCF Done:  E(RB3LYP) =  -994.625289215     A.U. after    8 cycles
 SCF Done:  E(RB3LYP) =  -994.625289121     A.U. after    6 cycles
 SCF Done:  E(RB3LYP) =  -994.625290738     A.U. after    8 cycles
 SCF Done:  E(RB3LYP) =  -994.625288628     A.U. after    8 cycles
 SCF Done:  E(RB3LYP) =  -994.625288655     A.U. after    7 cycles
 SCF Done:  E(RB3LYP) =  -994.625290649     A.U. after    8 cycles
 SCF Done:  E(RB3LYP) =  -994.625288567     A.U. after    8 cycles
 Optimization completed.
    -- Stationary point found.
 Normal termination of Gaussian 16 at Wed Mar  2 02:55:00 2022.

 --------------------------------------------------------------------
 #P Geom=AllCheck Guess=TCheck SCRF=Check GenChk RB3LYP/6-31G(d) Freq
 --------------------------------------------------------------------

 Structure from the checkpoint file:  "286.n.pdb.xyz.mst.wat.chk"
 -------------
 286.n.pdb.xyz
 -------------
 Charge =  0 Multiplicity = 1

 SCF Done:  E(RB3LYP) =  -994.625288567     A.U. after    1 cycles

  Exact polarizability: 373.272  14.580 320.563   0.935   0.411 186.487
 Approx polarizability: 382.302  14.215 374.844   1.108   0.198 201.783

                      1                      2                      3
                      A                      A                      A
 Frequencies --      6.3824                27.2564                36.6597
 Red. masses --      3.8478                 5.5170                 4.4248
 Frc consts  --      0.0001                 0.0024                 0.0035
 IR Inten    --      1.6918                 5.3155                 1.1932

                      4                      5                      6
                      A                      A                      A
 Frequencies --     42.3696                55.8766                92.1786
 Red. masses --      3.7025                 1.2691                 4.4464
 Frc consts  --      0.0039                 0.0023                 0.0223
 IR Inten    --      5.3730                 1.8168                 4.3114

                      7                      8                      9
                      A                      A                      A
 Frequencies --    126.4792               141.8178               147.0265
 Red. masses --      5.0108                 2.3879                 4.4330
 Frc consts  --      0.0472                 0.0283                 0.0565
 IR Inten    --      1.5204                 0.2906                 0.3781

                     10                     11                     12
                      A                      A                      A
 Frequencies --    147.9378               183.9606               230.8651
 Red. masses --      2.6824                 3.7759                 1.0357
 Frc consts  --      0.0346                 0.0753                 0.0325
 IR Inten    --      3.3365                 5.8072                 0.2953

                     13                     14                     15
                      A                      A                      A
 Frequencies --    243.7458               250.2357               257.3469
 Red. masses --      5.7474                 4.4749                 3.1860
 Frc consts  --      0.2012                 0.1651                 0.1243
 IR Inten    --      0.4002                16.6031                 0.5030

                     16                     17                     18
                      A                      A                      A
 Frequencies --    279.8377               298.8570               303.4197
 Red. masses --      2.1219                 2.2243                 4.1989
 Frc consts  --      0.0979                 0.1170                 0.2278
 IR Inten    --      2.5515                 0.4688                 6.2091

                     19                     20                     21
                      A                      A                      A
 Frequencies --    342.8591               372.7183               381.1133
 Red. masses --      3.8638                 2.4097                 2.8556
 Frc consts  --      0.2676                 0.1972                 0.2444
 IR Inten    --      3.7182                 0.8959                 5.0073

                     22                     23                     24
                      A                      A                      A
 Frequencies --    403.5524               446.1325               449.7519
 Red. masses --      6.6814                 3.0936                 3.5361
 Frc consts  --      0.6411                 0.3628                 0.4214
 IR Inten    --      2.6682                 0.3904                31.7848

                     25                     26                     27
                      A                      A                      A
 Frequencies --    455.6302               465.6370               468.6415
 Red. masses --      2.3652                 3.7937                 2.6634
 Frc consts  --      0.2893                 0.4846                 0.3446
 IR Inten    --     12.4403                 6.5869                 6.8949

                     28                     29                     30
                      A                      A                      A
 Frequencies --    527.8014               544.4338               577.1228
 Red. masses --      1.3192                 5.7705                 2.4421
 Frc consts  --      0.2165                 1.0078                 0.4792
 IR Inten    --    180.2383                 5.2386                14.4575

                     31                     32                     33
                      A                      A                      A
 Frequencies --    580.2429               587.3751               628.6681
 Red. masses --      4.0306                 4.5343                 4.2127
 Frc consts  --      0.7995                 0.9217                 0.9810
 IR Inten    --      1.2219                 8.2681                 0.9062

                     34                     35                     36
                      A                      A                      A
 Frequencies --    648.6511               671.3921               711.1626
 Red. masses --      5.5094                 5.0158                 3.5257
 Frc consts  --      1.3658                 1.3321                 1.0506
 IR Inten    --      1.8263                 0.3336                 8.4340

                     37                     38                     39
                      A                      A                      A
 Frequencies --    745.2704               754.9956               773.4581
 Red. masses --      4.9985                 4.8895                 1.4360
 Frc consts  --      1.6357                 1.6421                 0.5061
 IR Inten    --      0.3631                13.7304                78.7100

                     40                     41                     42
                      A                      A                      A
 Frequencies --    780.5597               793.3180               793.4718
 Red. masses --      2.9356                 5.1079                 5.4657
 Frc consts  --      1.0538                 1.8940                 2.0275
 IR Inten    --      1.4120                21.6780                38.3184

                     43                     44                     45
                      A                      A                      A
 Frequencies --    798.1663               818.3481               839.1714
 Red. masses --      2.6064                 2.8798                 3.7418
 Frc consts  --      0.9783                 1.1363                 1.5525
 IR Inten    --      0.3628                32.8642                25.5055

                     46                     47                     48
                      A                      A                      A
 Frequencies --    852.9664               877.0909               890.2378
 Red. masses --      1.4465                 1.4534                 3.3388
 Frc consts  --      0.6201                 0.6587                 1.5590
 IR Inten    --      0.5891                 0.0401                20.1703

                     49                     50                     51
                      A                      A                      A
 Frequencies --    906.3200               945.5874               964.1079
 Red. masses --      1.5291                 2.0981                 1.3274
 Frc consts  --      0.7400                 1.1053                 0.7270
 IR Inten    --      0.3010                 2.9045                 0.9226

                     52                     53                     54
                      A                      A                      A
 Frequencies --    976.1644               994.0625              1001.6024
 Red. masses --      2.0156                 1.9562                 1.2648
 Frc consts  --      1.1316                 1.1389                 0.7476
 IR Inten    --      0.1811                 5.3838                 0.1546

                     55                     56                     57
                      A                      A                      A
 Frequencies --   1001.9575              1027.1800              1038.3931
 Red. masses --      3.2520                 2.0245                 3.8353
 Frc consts  --      1.9235                 1.2585                 2.4366
 IR Inten    --     12.9878                25.4945                16.2674

                     58                     59                     60
                      A                      A                      A
 Frequencies --   1041.9808              1067.2042              1083.4794
 Red. masses --      1.9356                 2.6166                 1.6002
 Frc consts  --      1.2382                 1.7558                 1.1068
 IR Inten    --     45.2973                76.2318                 0.0655

                     61                     62                     63
                      A                      A                      A
 Frequencies --   1097.6426              1106.4127              1108.7805
 Red. masses --      1.9873                 1.8183                 2.6777
 Frc consts  --      1.4107                 1.3114                 1.9395
 IR Inten    --     12.0807                 5.4531                16.7347

                     64                     65                     66
                      A                      A                      A
 Frequencies --   1144.1408              1149.4904              1155.6194
 Red. masses --      2.1039                 1.6048                 1.9198
 Frc consts  --      1.6227                 1.2494                 1.5106
 IR Inten    --     52.5223                18.0620                47.4326

                     67                     68                     69
                      A                      A                      A
 Frequencies --   1158.7797              1159.4458              1166.0097
 Red. masses --      1.1775                 1.2922                 3.0562
 Frc consts  --      0.9316                 1.0235                 2.4482
 IR Inten    --      0.2713                 0.3665                 2.8501

                     70                     71                     72
                      A                      A                      A
 Frequencies --   1170.5047              1192.0885              1201.3931
 Red. masses --      1.5137                 1.3443                 1.3671
 Frc consts  --      1.2219                 1.1256                 1.1626
 IR Inten    --     12.3617                81.1787                 0.4386

                     73                     74                     75
                      A                      A                      A
 Frequencies --   1230.8671              1239.2265              1280.8962
 Red. masses --      1.6087                 1.7916                 1.8704
 Frc consts  --      1.4360                 1.6210                 1.8081
 IR Inten    --      0.3784               126.8529                47.8090

                     76                     77                     78
                      A                      A                      A
 Frequencies --   1283.3149              1292.5480              1306.2594
 Red. masses --      1.6723                 1.3173                 1.5508
 Frc consts  --      1.6227                 1.2967                 1.5591
 IR Inten    --     40.7016                16.7968                55.5060

                     79                     80                     81
                      A                      A                      A
 Frequencies --   1332.1572              1337.2198              1341.1917
 Red. masses --      1.7238                 1.7151                 3.6916
 Frc consts  --      1.8024                 1.8070                 3.9124
 IR Inten    --      2.1515                80.7399                70.1281

                     82                     83                     84
                      A                      A                      A
 Frequencies --   1350.0536              1356.2338              1368.7650
 Red. masses --      1.2824                 1.2752                 1.4914
 Frc consts  --      1.3771                 1.3820                 1.6462
 IR Inten    --      0.5903                 0.4581                63.0110

                     85                     86                     87
                      A                      A                      A
 Frequencies --   1380.1627              1398.5559              1402.5472
 Red. masses --      1.4024                 1.3887                 1.4794
 Frc consts  --      1.5739                 1.6004                 1.7146
 IR Inten    --      5.5437                 1.6081                17.8568

                     88                     89                     90
                      A                      A                      A
 Frequencies --   1402.7595              1405.9631              1408.7534
 Red. masses --      2.2855                 4.2789                 1.4313
 Frc consts  --      2.6497                 4.9834                 1.6736
 IR Inten    --     26.8921                11.7550                 0.7228

                     91                     92                     93
                      A                      A                      A
 Frequencies --   1418.0570              1419.3408              1441.2217
 Red. masses --      1.7542                 1.5136                 3.4191
 Frc consts  --      2.0783                 1.7965                 4.1843
 IR Inten    --     21.9131                37.0556                86.5840

                     94                     95                     96
                      A                      A                      A
 Frequencies --   1447.2044              1465.4994              1481.8599
 Red. masses --      2.4601                 1.1668                 1.5056
 Frc consts  --      3.0357                 1.4764                 1.9479
 IR Inten    --     12.6465                 4.0479                 6.9977

                     97                     98                     99
                      A                      A                      A
 Frequencies --   1493.0696              1499.4947              1504.4377
 Red. masses --      1.0929                 1.0871                 1.0399
 Frc consts  --      1.4355                 1.4401                 1.3868
 IR Inten    --      0.5978                15.2932                13.8271

                    100                    101                    102
                      A                      A                      A
 Frequencies --   1504.9226              1506.4731              1513.8644
 Red. masses --      1.0855                 1.1029                 2.3297
 Frc consts  --      1.4484                 1.4747                 3.1457
 IR Inten    --      8.3471                11.7597                26.6030

                    103                    104                    105
                      A                      A                      A
 Frequencies --   1519.2557              1526.7917              1531.9287
 Red. masses --      1.1399                 1.2823                 1.1942
 Frc consts  --      1.5502                 1.7612                 1.6512
 IR Inten    --     11.9112                 1.4508               104.9638

                    106                    107                    108
                      A                      A                      A
 Frequencies --   1538.5088              1542.6204              1572.2808
 Red. masses --      1.0508                 2.3187                 2.5622
 Frc consts  --      1.4654                 3.2510                 3.7319
 IR Inten    --      4.1169               107.3462               628.9143

                    109                    110                    111
                      A                      A                      A
 Frequencies --   1626.0663              1671.2589              1698.2790
 Red. masses --      6.4359                 6.8831                10.0399
 Frc consts  --     10.0262                11.3272                17.0607
 IR Inten    --     14.3921                15.3697               474.3996

                    112                    113                    114
                      A                      A                      A
 Frequencies --   2992.9968              3043.2737              3044.0688
 Red. masses --      1.0541                 1.0733                 1.0726
 Frc consts  --      5.5632                 5.8568                 5.8561
 IR Inten    --    101.7636                 1.1651                 0.8735

                    115                    116                    117
                      A                      A                      A
 Frequencies --   3049.5258              3050.0018              3058.5199
 Red. masses --      1.0610                 1.0639                 1.0702
 Frc consts  --      5.8133                 5.8312                 5.8984
 IR Inten    --      7.3037                61.2188               178.7309

                    118                    119                    120
                      A                      A                      A
 Frequencies --   3058.9803              3068.5607              3078.1765
 Red. masses --      1.0712                 1.0725                 1.0838
 Frc consts  --      5.9057                 5.9501                 6.0502
 IR Inten    --    239.2326                36.3566               110.1228

                    121                    122                    123
                      A                      A                      A
 Frequencies --   3081.3892              3085.2100              3086.9807
 Red. masses --      1.0938                 1.0344                 1.1032
 Frc consts  --      6.1190                 5.8014                 6.1941
 IR Inten    --      3.4331                75.8389                28.4867

                    124                    125                    126
                      A                      A                      A
 Frequencies --   3096.3314              3097.7260              3105.6397
 Red. masses --      1.1007                 1.1026                 1.0995
 Frc consts  --      6.2176                 6.2340                 6.2481
 IR Inten    --     71.6446                60.2039               164.6204

                    127                    128                    129
                      A                      A                      A
 Frequencies --   3122.1306              3150.5658              3169.1039
 Red. masses --      1.1042                 1.1067                 1.0836
 Frc consts  --      6.3414                 6.4725                 6.4122
 IR Inten    --     54.8319                22.5027                24.5067

                    130                    131                    132
                      A                      A                      A
 Frequencies --   3205.9279              3208.5325              3220.1210
 Red. masses --      1.1024                 1.0869                 1.0909
 Frc consts  --      6.6758                 6.5926                 6.6648
 IR Inten    --      5.3228                 7.8953                32.3614

                    133                    134                    135
                      A                      A                      A
 Frequencies --   3234.1605              3254.1408              3584.4673
 Red. masses --      1.0954                 1.0930                 1.0780
 Frc consts  --      6.7506                 6.8193                 8.1608
 IR Inten    --     25.6982                11.0186                89.5067

 - Thermochemistry -
 -------------------
 Temperature   298.150 Kelvin.  Pressure   1.00000 Atm.
 Atom     1 has atomic number  6 and mass  12.00000

 Molecular mass:   312.19501 amu.
 Principal axes and moments of inertia in atomic units:
                           1         2         3
     Eigenvalues --  2545.50284********************
           X            0.99999  -0.00455   0.00005
           Y            0.00455   0.99999   0.00030
           Z           -0.00005  -0.00030   1.00000
 This molecule is an asymmetric top.
 Rotational symmetry number  1.
 Warning -- assumption of classical behavior for rotation
           may cause significant error
 Rotational temperatures (Kelvin)      0.03403     0.00508     0.00468
 Rotational constants (GHZ):           0.70899     0.10593     0.09755
 Zero-point vibrational energy    1070041.6 (Joules/Mol)
                                  255.74608 (Kcal/Mol)
 Warning -- explicit consideration of  32 degrees of freedom as
           vibrations may cause significant error
 Vibrational temperatures:      9.18    39.22    52.75    60.96    80.39
          (Kelvin)            132.62   181.98   204.04   211.54   212.85
                              264.68   332.16   350.70   360.03   370.26
                              402.62   429.99   436.55   493.30   536.26
                              548.34   580.62   641.89   647.09   655.55
                              669.95   674.27   759.39   783.32   830.35
                              834.84   845.10   904.51   933.26   965.98
                             1023.20  1072.28  1086.27  1112.83  1123.05
                             1141.41  1141.63  1148.38  1177.42  1207.38
                             1227.23  1261.94  1280.85  1303.99  1360.49
                             1387.14  1404.48  1430.23  1441.08  1441.59
                             1477.88  1494.02  1499.18  1535.47  1558.89
                             1579.26  1591.88  1595.29  1646.16  1653.86
                             1662.68  1667.23  1668.18  1677.63  1684.10
                             1715.15  1728.54  1770.94  1782.97  1842.92
                             1846.40  1859.69  1879.42  1916.68  1923.96
                             1929.68  1942.43  1951.32  1969.35  1985.75
                             2012.21  2017.95  2018.26  2022.87  2026.88
                             2040.27  2042.11  2073.60  2082.20  2108.53
                             2132.07  2148.19  2157.44  2164.55  2165.25
                             2167.48  2178.11  2185.87  2196.71  2204.10
                             2213.57  2219.49  2262.16  2339.55  2404.57
                             2443.44  4306.25  4378.59  4379.74  4387.59
                             4388.27  4400.53  4401.19  4414.97  4428.81
                             4433.43  4438.93  4441.48  4454.93  4456.94
                             4468.32  4492.05  4532.96  4559.63  4612.62
                             4616.36  4633.04  4653.24  4681.98  5157.25

 Zero-point correction=                           0.407557 (Hartree/Particle)
 Thermal correction to Energy=                    0.427903
 Thermal correction to Enthalpy=                  0.428847
 Thermal correction to Gibbs Free Energy=         0.355814
 Sum of electronic and zero-point Energies=           -994.217731
 Sum of electronic and thermal Energies=              -994.197386
 Sum of electronic and thermal Enthalpies=            -994.196441
 Sum of electronic and thermal Free Energies=         -994.269475

                     E (Thermal)             CV                S
                      KCal/Mol        Cal/Mol-Kelvin    Cal/Mol-Kelvin
 Total                  268.513             80.361            153.712
 Electronic               0.000              0.000              0.000
 Translational            0.889              2.981             43.112
 Rotational               0.889              2.981             35.038
 Vibrational            266.736             74.399             75.562
 Vibration     1          0.593              1.987              8.903
 Vibration     2          0.593              1.984              6.020
 Vibration     3          0.594              1.982              5.432
 Vibration     4          0.595              1.980              5.145
 Vibration     5          0.596              1.975              4.598
 Vibration     6          0.602              1.955              3.613
 Vibration     7          0.611              1.927              2.999
 Vibration     8          0.615              1.911              2.779
 Vibration     9          0.617              1.906              2.710
 Vibration    10          0.617              1.905              2.699
 Vibration    11          0.631              1.862              2.288
 Vibration    12          0.653              1.794              1.872
 Vibration    13          0.659              1.773              1.775
 Vibration    14          0.663              1.762              1.729
 Vibration    15          0.667              1.750              1.680
 Vibration    16          0.680              1.711              1.535
 Vibration    17          0.692              1.676              1.423
 Vibration    18          0.695              1.667              1.398
 Vibration    19          0.722              1.590              1.199
 Vibration    20          0.744              1.528              1.069
 Vibration    21          0.751              1.510              1.035
 Vibration    22          0.769              1.462              0.950
 Vibration    23          0.805              1.369              0.808
 Vibration    24          0.809              1.361              0.797
 Vibration    25          0.814              1.348              0.779
 Vibration    26          0.823              1.326              0.750
 Vibration    27          0.826              1.320              0.741
 Vibration    28          0.883              1.188              0.592
 Vibration    29          0.900              1.152              0.556
 Vibration    30          0.934              1.081              0.491
 Vibration    31          0.937              1.074              0.485
 Vibration    32          0.945              1.059              0.472

 Optimization completed on the basis of negligible forces.
    -- Stationary point found.
 Normal termination of Gaussian 16 at Wed Mar  2 04:10:21 2022.

 ------------------------------------------
 #p b3lyp/6-31G(d) geom=allcheck guess=read
 ------------------------------------------

 Structure from the checkpoint file:  "286.n.pdb.xyz.mst.wat.chk"
 -------------
 286.n.pdb.xyz
 -------------
 Charge =  0 Multiplicity = 1

 SCF Done:  E(RB3LYP) =  -994.611835863     A.U. after   12 cycles
 Normal termination of Gaussian 16 at Wed Mar  2 04:15:04 2022.
 Gaussian 16:  ES64L-G16RevA.03 25-Dec-2016

 ----------------------------------------------------------------------
 #p b3lyp/6-31G(d) scrf=(iefpcm,read,solvent=water) geom=allcheck guess
 =read
 ----------------------------------------------------------------------

 Structure from the checkpoint file:  "286.n.pdb.xyz.mst.wat.chk"
 -------------
 286.n.pdb.xyz
 -------------
 Charge =  0 Multiplicity = 1

                         Standard orientation:
 ---------------------------------------------------------------------
 Center     Atomic      Atomic             Coordinates (Angstroms)
 Number     Number       Type             X           Y           Z
 ---------------------------------------------------------------------
      1          6           0       -4.165984    3.001201    0.000779
      2          7           0       -3.638921    1.648575   -0.000280
      3          7           0       -2.308760    1.432618    0.011037
      4          6           0       -2.125867    0.113689    0.012119
      5          6           0       -0.772881   -0.493713    0.022892
      6          8           0       -0.638599   -1.728431    0.028867
      7          7           0        0.262524    0.376709    0.028164
      8          6           0        1.662517   -0.031190    0.028952
      9          6           0        2.352905    0.393862   -1.280001
     10          6           0        3.889479    0.290697   -1.232889
     11          6           0        4.449074   -1.150729   -1.224986
     12          6           0        4.205198   -1.897482    0.099260
     13          6           0        4.484769   -1.003102    1.321069
     14          6           0        3.923853    0.430759    1.178082
     15          6           0        2.389319    0.542297    1.258205
     16          7           0        4.358380    1.079495   -0.075404
     17          6           0        5.784841    1.384698   -0.112618
     18          6           0       -3.380817   -0.570654    0.001774
     19          6           0       -4.341354    0.470658   -0.005790
     20          6           0       -5.723700    0.219154   -0.017023
     21          6           0       -6.114430   -1.110173   -0.021097
     22          6           0       -5.168698   -2.165132   -0.014046
     23          6           0       -3.807206   -1.912356   -0.002606
     24          1           0       -4.782742    3.171316   -0.884717
     25          1           0       -3.317660    3.682460   -0.010579
     26          1           0       -4.764844    3.178529    0.897308
     27          1           0        0.050240    1.368344    0.008998
     28          1           0        1.631939   -1.117290    0.091810
     29          1           0        1.956223   -0.197350   -2.112326
     30          1           0        2.099094    1.442080   -1.477209
     31          1           0        4.272620    0.789147   -2.131047
     32          1           0        4.032050   -1.716028   -2.066250
     33          1           0        5.529606   -1.088282   -1.401511
     34          1           0        4.845831   -2.785759    0.141690
     35          1           0        3.177980   -2.271041    0.135196
     36          1           0        5.569673   -0.922110    1.458592
     37          1           0        4.092451   -1.466373    2.233497
     38          1           0        4.332194    1.028690    2.001343
     39          1           0        2.018458    0.053699    2.165631
     40          1           0        2.141306    1.607519    1.339144
     41          1           0        6.033593    2.028534    0.737175
     42          1           0        6.009339    1.929170   -1.035657
     43          1           0        6.447472    0.505210   -0.072318
     44          1           0       -6.449928    1.023561   -0.022289
     45          1           0       -7.172088   -1.351400   -0.029851
     46          1           0       -5.524668   -3.189941   -0.017678
     47          1           0       -3.078001   -2.711916    0.003029
 ---------------------------------------------------------------------

 SCF Done:  E(RB3LYP) =  -994.623627668     A.U. after   11 cycles

 The electronic state is 1-A.
 Alpha  occ. eigenvalues --  -19.11470 -14.42084 -14.37407 -14.35378 -14.31624
 Alpha  occ. eigenvalues --  -10.29244 -10.23189 -10.22640 -10.22199 -10.21836
 Alpha  occ. eigenvalues --  -10.20683 -10.20674 -10.20128 -10.19888 -10.19811
 Alpha  occ. eigenvalues --  -10.19663 -10.19538 -10.19222 -10.17783 -10.17744
 Alpha  occ. eigenvalues --  -10.17523 -10.17304 -10.17303  -1.06224  -1.02851
 Alpha  occ. eigenvalues --   -0.92851  -0.91632  -0.86027  -0.85707  -0.79255
 Alpha  occ. eigenvalues --   -0.77061  -0.77000  -0.76845  -0.75391  -0.71550
 Alpha  occ. eigenvalues --   -0.68668  -0.67249  -0.64652  -0.62911  -0.61385
 Alpha  occ. eigenvalues --   -0.59934  -0.59890  -0.58542  -0.57734  -0.53877
 Alpha  occ. eigenvalues --   -0.51380  -0.50530  -0.49848  -0.48548  -0.47394
 Alpha  occ. eigenvalues --   -0.47057  -0.46006  -0.45438  -0.44929  -0.44411
 Alpha  occ. eigenvalues --   -0.43804  -0.43025  -0.42973  -0.41421  -0.41237
 Alpha  occ. eigenvalues --   -0.40716  -0.40614  -0.40272  -0.39828  -0.39435
 Alpha  occ. eigenvalues --   -0.38627  -0.37115  -0.36570  -0.35265  -0.35007
 Alpha  occ. eigenvalues --   -0.34799  -0.34243  -0.34002  -0.32743  -0.31449
 Alpha  occ. eigenvalues --   -0.30707  -0.30502  -0.30159  -0.28853  -0.25870
 Alpha  occ. eigenvalues --   -0.25315  -0.24572  -0.22271  -0.20409
 Alpha virt. eigenvalues --   -0.04646   0.00179   0.01363   0.07116   0.09577
 Alpha virt. eigenvalues --    0.09906   0.10835   0.11040   0.11732   0.12119
 Alpha virt. eigenvalues --    0.12700   0.13039   0.14701   0.14819   0.15251

 Mulliken charges:
               1
     1  C   -0.327059
     2  N   -0.358258
     3  N   -0.404428
     4  C    0.220664
     5  C    0.607647
     6  O   -0.617490
     7  N   -0.634023
     8  C    0.020698
     9  C   -0.261855
    10  C    0.017047
    11  C   -0.276006
    12  C   -0.280444
    13  C   -0.275989
    14  C    0.016491
    15  C   -0.263968
    16  N   -0.415087
    17  C   -0.310937
    18  C    0.003775
    19  C    0.376550
    20  C   -0.169124
    21  C   -0.164662
    22  C   -0.159826
    23  C   -0.208094
    24  H    0.192723
    25  H    0.199971
    26  H    0.192760
    27  H    0.374127
    28  H    0.166776
    29  H    0.142683
    30  H    0.137064
    31  H    0.132574
    32  H    0.137365
    33  H    0.140765
    34  H    0.137093
    35  H    0.148760
    36  H    0.141143
    37  H    0.137346
    38  H    0.132561
    39  H    0.143238
    40  H    0.137261
    41  H    0.152833
    42  H    0.152953
    43  H    0.134229
    44  H    0.166051
    45  H    0.156137
    46  H    0.151253
    47  H    0.156710
 Sum of Mulliken charges =  -0.00000

 Dipole moment (field-independent basis, Debye):
    X=             -1.5789    Y=              4.6459    Z=             -0.0254  Tot=              4.9069
 Quadrupole moment (field-independent basis, Debye-Ang):
   XX=            -96.8187   YY=           -130.8630   ZZ=           -136.1182
   XY=            -13.7649   XZ=              0.3103   YZ=              0.2703

 Normal termination of Gaussian 16 at Wed Mar  2 04:20:25 2022.
