 Gaussian 16, Revision A.03,

 ----------------------------------------------------------------------
 #p b3lyp/6-31G(d) opt=(MaxStep=10,MaxCycles=1000) freq scf=(MaxCycle=2
 000,NoVarAcc,NoIncFock) scrf=(iefpcm,read,solvent=water)
 ----------------------------------------------------------------------

 -------------
 288.n.pdb.xyz
 -------------
 Symbolic Z-matrix:
 Charge =  0 Multiplicity = 1

 SCF Done:  E(RB3LYP) =  -963.512236802     A.U. after   14 cycles
 SCF Done:  E(RB3LYP) =  -963.516526182     A.U. after   11 cycles
 SCF Done:  E(RB3LYP) =  -963.519048886     A.U. after   11 cycles
 SCF Done:  E(RB3LYP) =  -963.520345352     A.U. after   12 cycles
 SCF Done:  E(RB3LYP) =  -963.521029937     A.U. after   11 cycles
 SCF Done:  E(RB3LYP) =  -963.521093973     A.U. after   11 cycles
 SCF Done:  E(RB3LYP) =  -963.521296690     A.U. after   10 cycles
 SCF Done:  E(RB3LYP) =  -963.521362929     A.U. after   10 cycles
 SCF Done:  E(RB3LYP) =  -963.521393491     A.U. after   10 cycles
 SCF Done:  E(RB3LYP) =  -963.521400084     A.U. after    8 cycles
 SCF Done:  E(RB3LYP) =  -963.521431146     A.U. after   10 cycles
 SCF Done:  E(RB3LYP) =  -963.521434541     A.U. after   10 cycles
 SCF Done:  E(RB3LYP) =  -963.521433456     A.U. after    9 cycles
 SCF Done:  E(RB3LYP) =  -963.521434931     A.U. after   10 cycles
 SCF Done:  E(RB3LYP) =  -963.521435410     A.U. after    8 cycles
 SCF Done:  E(RB3LYP) =  -963.521435649     A.U. after    8 cycles
 SCF Done:  E(RB3LYP) =  -963.521436383     A.U. after    8 cycles
 Optimization completed.
    -- Stationary point found.
 Normal termination of Gaussian 16 at Wed Mar  2 04:59:08 2022.

 --------------------------------------------------------------------
 #P Geom=AllCheck Guess=TCheck SCRF=Check GenChk RB3LYP/6-31G(d) Freq
 --------------------------------------------------------------------

 Structure from the checkpoint file:  "288.n.pdb.xyz.mst.wat.chk"
 -------------
 288.n.pdb.xyz
 -------------
 Charge =  0 Multiplicity = 1

 SCF Done:  E(RB3LYP) =  -963.521436383     A.U. after    1 cycles

  Exact polarizability: 284.906 -15.324 185.352  -2.328  13.036 121.592
 Approx polarizability: 336.690 -17.810 204.138   2.207  17.346 139.198

                      1                      2                      3
                      A                      A                      A
 Frequencies --     25.1154                32.2849                39.1682
 Red. masses --      6.2238                 6.3810                 8.1705
 Frc consts  --      0.0023                 0.0039                 0.0074
 IR Inten    --      0.6934                 0.2320                 2.8989

                      4                      5                      6
                      A                      A                      A
 Frequencies --     64.2925                83.6861               111.3419
 Red. masses --      8.5564                 6.0586                 5.1879
 Frc consts  --      0.0208                 0.0250                 0.0379
 IR Inten    --      0.5513                 1.3487                 1.9619

                      7                      8                      9
                      A                      A                      A
 Frequencies --    118.7052               160.2869               167.2005
 Red. masses --      4.8975                 2.9083                 1.3303
 Frc consts  --      0.0407                 0.0440                 0.0219
 IR Inten    --     11.8722                 2.0206                 1.5552

                     10                     11                     12
                      A                      A                      A
 Frequencies --    171.8946               196.2759               214.9811
 Red. masses --      5.6089                 8.6339                 2.9352
 Frc consts  --      0.0976                 0.1960                 0.0799
 IR Inten    --      7.5606                 1.0730                31.4956

                     13                     14                     15
                      A                      A                      A
 Frequencies --    239.2985               253.7865               270.8974
 Red. masses --      5.0127                 2.6213                 3.0137
 Frc consts  --      0.1691                 0.0995                 0.1303
 IR Inten    --      8.7302                72.0388                34.6907

                     16                     17                     18
                      A                      A                      A
 Frequencies --    280.6938               289.8364               341.6872
 Red. masses --      2.0084                 2.7267                 4.2955
 Frc consts  --      0.0932                 0.1350                 0.2955
 IR Inten    --     42.4519                56.8300                 2.3119

                     19                     20                     21
                      A                      A                      A
 Frequencies --    401.4752               414.4845               442.0386
 Red. masses --      8.4662                 2.9807                 4.5059
 Frc consts  --      0.8040                 0.3017                 0.5187
 IR Inten    --     48.4961                22.7426                24.8073

                     22                     23                     24
                      A                      A                      A
 Frequencies --    466.7916               500.5318               540.4937
 Red. masses --      4.3046                 6.5116                 3.7108
 Frc consts  --      0.5526                 0.9612                 0.6387
 IR Inten    --     13.8015                 6.5098                17.6625

                     25                     26                     27
                      A                      A                      A
 Frequencies --    570.0685               573.6302               623.1401
 Red. masses --      5.0618                11.9989                 6.0440
 Frc consts  --      0.9692                 2.3262                 1.3828
 IR Inten    --     18.1640                20.7879                 9.9019

                     28                     29                     30
                      A                      A                      A
 Frequencies --    643.8936               660.1596               682.7407
 Red. masses --      5.4558                 1.1632                 3.7851
 Frc consts  --      1.3327                 0.2987                 1.0395
 IR Inten    --      7.2390               120.7843                14.9272

                     31                     32                     33
                      A                      A                      A
 Frequencies --    727.0875               746.9417               754.0597
 Red. masses --      4.3237                 8.3736                 6.8387
 Frc consts  --      1.3467                 2.7526                 2.2911
 IR Inten    --     17.9194                47.1560                13.2118

                     34                     35                     36
                      A                      A                      A
 Frequencies --    762.5218               787.1310               849.2239
 Red. masses --      7.7552                 7.3844                 3.3233
 Frc consts  --      2.6567                 2.6956                 1.4121
 IR Inten    --     32.8478                32.4919                15.0969

                     37                     38                     39
                      A                      A                      A
 Frequencies --    880.7305               892.7489               941.2120
 Red. masses --      3.8636                 3.0148                 1.4009
 Frc consts  --      1.7657                 1.4157                 0.7312
 IR Inten    --     29.2715                22.8485                15.9109

                     40                     41                     42
                      A                      A                      A
 Frequencies --    960.8148               971.2919               998.6653
 Red. masses --      2.5425                 1.8780                 2.1561
 Frc consts  --      1.3829                 1.0439                 1.2669
 IR Inten    --     31.8779                32.0421                54.2860

                     43                     44                     45
                      A                      A                      A
 Frequencies --   1043.1866              1055.1035              1080.3672
 Red. masses --      1.7619                 2.2817                 1.4515
 Frc consts  --      1.1297                 1.4965                 0.9982
 IR Inten    --     24.0506                22.1372                13.3377

                     46                     47                     48
                      A                      A                      A
 Frequencies --   1086.6809              1093.3215              1116.8662
 Red. masses --      4.1891                 5.4760                 2.3834
 Frc consts  --      2.9146                 3.8566                 1.7517
 IR Inten    --     39.4260               485.0329                24.7530

                     49                     50                     51
                      A                      A                      A
 Frequencies --   1129.3816              1147.9427              1191.3349
 Red. masses --      2.7859                 2.8136                 3.9038
 Frc consts  --      2.0936                 2.1845                 3.2644
 IR Inten    --     83.1327                94.1338                 7.9976

                     52                     53                     54
                      A                      A                      A
 Frequencies --   1219.0584              1246.9977              1254.9680
 Red. masses --      1.4486                 1.1594                 1.3542
 Frc consts  --      1.2684                 1.0622                 1.2566
 IR Inten    --    132.7964                13.8413                54.9441

                     55                     56                     57
                      A                      A                      A
 Frequencies --   1256.4294              1266.2760              1304.3754
 Red. masses --      2.7332                 1.7932                 1.9082
 Frc consts  --      2.5421                 1.6941                 1.9128
 IR Inten    --     19.4423                 3.3754               388.5866

                     58                     59                     60
                      A                      A                      A
 Frequencies --   1325.1492              1343.4384              1353.0263
 Red. masses --      1.3109                 7.2364                 1.4550
 Frc consts  --      1.3563                 7.6950                 1.5693
 IR Inten    --     30.2313               143.5248               132.6483

                     61                     62                     63
                      A                      A                      A
 Frequencies --   1371.4501              1381.9359              1396.1610
 Red. masses --      1.2811                 1.3626                 1.4664
 Frc consts  --      1.4197                 1.5332                 1.6842
 IR Inten    --    141.5585                 2.3922                37.5547

                     64                     65                     66
                      A                      A                      A
 Frequencies --   1406.8711              1431.9486              1433.3446
 Red. masses --      1.9893                 1.6013                 1.4163
 Frc consts  --      2.3198                 1.9346                 1.7143
 IR Inten    --     81.0209                18.3398                14.6863

                     67                     68                     69
                      A                      A                      A
 Frequencies --   1441.0517              1478.3375              1488.7627
 Red. masses --      1.8549                 1.6254                 2.2928
 Frc consts  --      2.2695                 2.0929                 2.9940
 IR Inten    --     56.5741                14.8373               212.6536

                     70                     71                     72
                      A                      A                      A
 Frequencies --   1491.2553              1510.7911              1511.6945
 Red. masses --      1.0519                 1.1983                 1.1220
 Frc consts  --      1.3783                 1.6114                 1.5107
 IR Inten    --     12.5153                63.7176                21.8258

                     73                     74                     75
                      A                      A                      A
 Frequencies --   1538.4392              1704.5860              1726.3787
 Red. masses --      1.0821                 6.0784                 7.1842
 Frc consts  --      1.5089                10.4058                12.6154
 IR Inten    --      3.8569                66.4362              1756.5642

                     76                     77                     78
                      A                      A                      A
 Frequencies --   1758.9899              2246.3344              3038.5449
 Red. masses --     11.8074                13.6578                 1.0583
 Frc consts  --     21.5243                40.6050                 5.7567
 IR Inten    --    640.7574              1228.7245                80.1755

                     79                     80                     81
                      A                      A                      A
 Frequencies --   3060.3214              3062.4111              3084.7092
 Red. masses --      1.0374                 1.0851                 1.1047
 Frc consts  --      5.7245                 5.9959                 6.1933
 IR Inten    --     44.4147                24.5279               110.3451

                     82                     83                     84
                      A                      A                      A
 Frequencies --   3111.9073              3113.4486              3137.8143
 Red. masses --      1.1016                 1.0654                 1.0875
 Frc consts  --      6.2851                 6.0847                 6.3088
 IR Inten    --     28.4070                 6.1948                28.1261

                     85                     86                     87
                      A                      A                      A
 Frequencies --   3147.7146              3150.5266              3177.4006
 Red. masses --      1.0869                 1.1015                 1.1033
 Frc consts  --      6.3448                 6.4419                 6.5625
 IR Inten    --     12.3749                25.7228                16.0436

                     88                     89                     90
                      A                      A                      A
 Frequencies --   3260.3970              3572.5655              3740.2566
 Red. masses --      1.0916                 1.0786                 1.0666
 Frc consts  --      6.8371                 8.1111                 8.7912
 IR Inten    --      5.3185               162.6092               112.6100

 - Thermochemistry -
 -------------------
 Temperature   298.150 Kelvin.  Pressure   1.00000 Atm.
 Atom     1 has atomic number  6 and mass  12.00000

 Molecular mass:   267.09675 amu.
 Principal axes and moments of inertia in atomic units:
                           1         2         3
     Eigenvalues --  2006.434749852.22305**********
           X            0.99998  -0.00234  -0.00500
           Y            0.00233   1.00000  -0.00100
           Z            0.00500   0.00099   0.99999
 This molecule is an asymmetric top.
 Rotational symmetry number  1.
 Warning -- assumption of classical behavior for rotation
           may cause significant error
 Rotational temperatures (Kelvin)      0.04317     0.00879     0.00773
 Rotational constants (GHZ):           0.89948     0.18318     0.16100
 Zero-point vibrational energy     654019.8 (Joules/Mol)
                                  156.31447 (Kcal/Mol)
 Warning -- explicit consideration of  26 degrees of freedom as
           vibrations may cause significant error
 Vibrational temperatures:     36.14    46.45    56.35    92.50   120.41
          (Kelvin)            160.20   170.79   230.62   240.56   247.32
                              282.40   309.31   344.30   365.14   389.76
                              403.86   417.01   491.61   577.63   596.35
                              635.99   671.61   720.15   777.65   820.20
                              825.33   896.56   926.42   949.82   982.31
                             1046.12  1074.68  1084.92  1097.10  1132.51
                             1221.84  1267.17  1284.47  1354.19  1382.40
                             1397.47  1436.86  1500.91  1518.06  1554.41
                             1563.49  1573.05  1606.92  1624.93  1651.63
                             1714.07  1753.95  1794.15  1805.62  1807.72
                             1821.89  1876.71  1906.59  1932.91  1946.70
                             1973.21  1988.30  2008.76  2024.17  2060.25
                             2062.26  2073.35  2127.00  2142.00  2145.58
                             2173.69  2174.99  2213.47  2452.52  2483.87
                             2530.79  3231.97  4371.79  4403.12  4406.13
                             4438.21  4477.34  4479.56  4514.61  4528.86
                             4532.91  4571.57  4690.98  5140.12  5381.40

 Zero-point correction=                           0.249103 (Hartree/Particle)
 Thermal correction to Energy=                    0.266833
 Thermal correction to Enthalpy=                  0.267777
 Thermal correction to Gibbs Free Energy=         0.201609
 Sum of electronic and zero-point Energies=           -963.272333
 Sum of electronic and thermal Energies=              -963.254603
 Sum of electronic and thermal Enthalpies=            -963.253659
 Sum of electronic and thermal Free Energies=         -963.319827

                     E (Thermal)             CV                S
                      KCal/Mol        Cal/Mol-Kelvin    Cal/Mol-Kelvin
 Total                  167.440             65.269            139.262
 Electronic               0.000              0.000              0.000
 Translational            0.889              2.981             42.646
 Rotational               0.889              2.981             33.760
 Vibrational            165.663             59.308             62.856
 Vibration     1          0.593              1.985              6.182
 Vibration     2          0.594              1.983              5.684
 Vibration     3          0.594              1.981              5.301
 Vibration     4          0.597              1.971              4.321
 Vibration     5          0.601              1.960              3.803
 Vibration     6          0.607              1.940              3.245
 Vibration     7          0.609              1.934              3.121
 Vibration     8          0.622              1.891              2.546
 Vibration     9          0.624              1.883              2.467
 Vibration    10          0.626              1.877              2.415
 Vibration    11          0.636              1.845              2.168
 Vibration    12          0.645              1.818              2.001
 Vibration    13          0.657              1.780              1.808
 Vibration    14          0.665              1.756              1.704
 Vibration    15          0.675              1.727              1.590
 Vibration    16          0.680              1.709              1.529
 Vibration    17          0.686              1.693              1.475
 Vibration    18          0.721              1.592              1.204
 Vibration    19          0.767              1.467              0.957
 Vibration    20          0.778              1.439              0.911
 Vibration    21          0.802              1.378              0.820
 Vibration    22          0.824              1.324              0.747
 Vibration    23          0.856              1.249              0.657
 Vibration    24          0.896              1.161              0.564
 Vibration    25          0.926              1.096              0.504
 Vibration    26          0.930              1.088              0.497

                           ! Non-Optimized Parameters !
 Normal termination of Gaussian 16 at Wed Mar  2 05:31:59 2022.

 ------------------------------------------
 #p b3lyp/6-31G(d) geom=allcheck guess=read
 ------------------------------------------

 Structure from the checkpoint file:  "288.n.pdb.xyz.mst.wat.chk"
 -------------
 288.n.pdb.xyz
 -------------
 Charge =  0 Multiplicity = 1

 SCF Done:  E(RB3LYP) =  -963.493942386     A.U. after   12 cycles
 Normal termination of Gaussian 16 at Wed Mar  2 05:34:31 2022.
 Gaussian 16:  ES64L-G16RevA.03 25-Dec-2016

 ----------------------------------------------------------------------
 #p b3lyp/6-31G(d) scrf=(iefpcm,read,solvent=water) geom=allcheck guess
 =read
 ----------------------------------------------------------------------

 Structure from the checkpoint file:  "288.n.pdb.xyz.mst.wat.chk"
 -------------
 288.n.pdb.xyz
 -------------
 Charge =  0 Multiplicity = 1

                         Standard orientation:
 ---------------------------------------------------------------------
 Center     Atomic      Atomic             Coordinates (Angstroms)
 Number     Number       Type             X           Y           Z
 ---------------------------------------------------------------------
      1          6           0       -3.682127    2.432358    0.594665
      2          6           0       -3.126725    1.078889    0.263616
      3          6           0       -1.802091    0.833418    0.127480
      4          7           0       -1.283303   -0.404575   -0.185363
      5          6           0        0.173785   -0.605234   -0.300728
      6          6           0        0.883168   -0.799436    1.048644
      7          6           0        2.245741   -0.143244    0.821022
      8          7           0        3.138338   -1.123964    0.147747
      9          7           0        4.340984   -1.020288    0.389111
     10          7           0        5.471160   -1.040597    0.545705
     11          6           0        1.861585    1.023886   -0.109835
     12          6           0        2.948566    1.505262   -1.054209
     13          8           0        4.017821    1.965602   -0.238877
     14          8           0        0.757585    0.541387   -0.900774
     15          6           0       -2.100762   -1.509083   -0.384219
     16          8           0       -1.666566   -2.627537   -0.648441
     17          7           0       -3.447479   -1.242528   -0.253927
     18          6           0       -4.054264   -0.024989    0.064980
     19          8           0       -5.280268    0.052820    0.154562
     20          1           0       -2.880304    3.165386    0.706766
     21          1           0       -4.361989    2.782433   -0.189097
     22          1           0       -4.257253    2.405518    1.526193
     23          1           0       -1.062290    1.616389    0.235296
     24          1           0        0.292518   -1.468677   -0.954200
     25          1           0        0.347540   -0.259990    1.833417
     26          1           0        0.955277   -1.848692    1.334590
     27          1           0        2.704288    0.213110    1.744205
     28          1           0        1.526820    1.859761    0.514994
     29          1           0        2.547509    2.303428   -1.692120
     30          1           0        3.253339    0.672581   -1.698602
     31          1           0        4.752039    2.210305   -0.826755
     32          1           0       -4.065234   -2.037031   -0.397854
 ---------------------------------------------------------------------

 SCF Done:  E(RB3LYP) =  -963.519848083     A.U. after   12 cycles

 The electronic state is 1-A.
 Alpha  occ. eigenvalues --  -19.17374 -19.14845 -19.13241 -19.12723 -14.51898
 Alpha  occ. eigenvalues --  -14.41076 -14.40321 -14.38732 -14.38475 -10.33861
 Alpha  occ. eigenvalues --  -10.30330 -10.29035 -10.25152 -10.25083 -10.25021
 Alpha  occ. eigenvalues --  -10.23398 -10.20515 -10.20310 -10.18591  -1.14465
 Alpha  occ. eigenvalues --   -1.08135  -1.06387  -1.03955  -1.01928  -0.98657
 Alpha  occ. eigenvalues --   -0.97515  -0.92677  -0.81882  -0.81414  -0.77486
 Alpha  occ. eigenvalues --   -0.71258  -0.69420  -0.67475  -0.65675  -0.62936
 Alpha  occ. eigenvalues --   -0.59948  -0.57130  -0.55154  -0.54696  -0.52282
 Alpha  occ. eigenvalues --   -0.51742  -0.51074  -0.50763  -0.49608  -0.47635
 Alpha  occ. eigenvalues --   -0.47273  -0.46522  -0.45912  -0.44392  -0.43810
 Alpha  occ. eigenvalues --   -0.42743  -0.42266  -0.41602  -0.40680  -0.40048
 Alpha  occ. eigenvalues --   -0.38688  -0.38513  -0.38124  -0.37957  -0.35464
 Alpha  occ. eigenvalues --   -0.34482  -0.34083  -0.30934  -0.29922  -0.28573
 Alpha  occ. eigenvalues --   -0.28035  -0.27483  -0.26579  -0.25793  -0.23312
 Alpha virt. eigenvalues --   -0.03413  -0.03264   0.00772   0.01170   0.07198
 Alpha virt. eigenvalues --    0.08069   0.10299   0.10994   0.11770   0.12020
 Alpha virt. eigenvalues --    0.12612   0.13495   0.14423   0.15555   0.16151

 Mulliken charges:
               1
     1  C   -0.521492
     2  C    0.034745
     3  C    0.058337
     4  N   -0.514113
     5  C    0.287862
     6  C   -0.321620
     7  C   -0.025410
     8  N   -0.414217
     9  N    0.465205
    10  N   -0.293564
    11  C    0.152371
    12  C   -0.045710
    13  O   -0.668286
    14  O   -0.542600
    15  C    0.813713
    16  O   -0.575808
    17  N   -0.701203
    18  C    0.600083
    19  O   -0.576610
    20  H    0.168192
    21  H    0.172091
    22  H    0.172020
    23  H    0.204745
    24  H    0.187629
    25  H    0.188599
    26  H    0.192502
    27  H    0.194721
    28  H    0.162906
    29  H    0.149710
    30  H    0.147551
    31  H    0.450590
    32  H    0.397061
 Sum of Mulliken charges =  -0.00000

 Dipole moment (field-independent basis, Debye):
    X=              3.8555    Y=              4.1895    Z=              1.1058  Tot=              5.8000
 Quadrupole moment (field-independent basis, Debye-Ang):
   XX=           -141.3128   YY=           -110.3741   ZZ=           -104.4821
   XY=              8.6222   XZ=             -5.7786   YZ=             -4.6253

 Normal termination of Gaussian 16 at Wed Mar  2 05:37:31 2022.
