 Gaussian 16, Revision A.03,

 ----------------------------------------------------------------------
 #p b3lyp/6-31G(d) opt=(MaxStep=10,MaxCycles=1000) freq scf=(MaxCycle=2
 000,NoVarAcc,NoIncFock) scrf=(iefpcm,read,solvent=water)
 ----------------------------------------------------------------------

 -------------
 290.n.pdb.xyz
 -------------
 Symbolic Z-matrix:
 Charge =  0 Multiplicity = 1

 SCF Done:  E(RB3LYP) =  -1619.32222687     A.U. after   13 cycles
 SCF Done:  E(RB3LYP) =  -1619.32845568     A.U. after   11 cycles
 SCF Done:  E(RB3LYP) =  -1619.33332298     A.U. after   12 cycles
 SCF Done:  E(RB3LYP) =  -1619.33395787     A.U. after   12 cycles
 SCF Done:  E(RB3LYP) =  -1619.33388436     A.U. after   12 cycles
 SCF Done:  E(RB3LYP) =  -1619.33650363     A.U. after   11 cycles
 SCF Done:  E(RB3LYP) =  -1619.33773741     A.U. after   13 cycles
 SCF Done:  E(RB3LYP) =  -1619.33793338     A.U. after   12 cycles
 SCF Done:  E(RB3LYP) =  -1619.33825788     A.U. after   11 cycles
 SCF Done:  E(RB3LYP) =  -1619.33833350     A.U. after   11 cycles
 SCF Done:  E(RB3LYP) =  -1619.33914200     A.U. after    8 cycles
 SCF Done:  E(RB3LYP) =  -1619.33914200     A.U. after    8 cycles
 SCF Done:  E(RB3LYP) =  -1619.33914170     A.U. after    7 cycles
 SCF Done:  E(RB3LYP) =  -1619.33914152     A.U. after    7 cycles
 SCF Done:  E(RB3LYP) =  -1619.33914158     A.U. after    6 cycles
 SCF Done:  E(RB3LYP) =  -1619.33914229     A.U. after    8 cycles
 SCF Done:  E(RB3LYP) =  -1619.33914152     A.U. after    7 cycles
 Optimization completed.
    -- Stationary point found.
 Normal termination of Gaussian 16 at Tue Mar  1 11:49:00 2022.

 --------------------------------------------------------------------
 #P Geom=AllCheck Guess=TCheck SCRF=Check GenChk RB3LYP/6-31G(d) Freq
 --------------------------------------------------------------------

 Structure from the checkpoint file:  "290.n.pdb.xyz.mst.wat.chk"
 -------------
 290.n.pdb.xyz
 -------------
 Charge =  0 Multiplicity = 1

 SCF Done:  E(RB3LYP) =  -1619.33914152     A.U. after    1 cycles

  Exact polarizability: 455.710  26.155 372.467   1.688   2.925 263.702
 Approx polarizability: 468.237  28.452 451.035   2.097   3.530 302.889

                      1                      2                      3
                      A                      A                      A
 Frequencies --      9.1356                12.6664                16.2157
 Red. masses --      5.6845                 5.9751                 4.8121
 Frc consts  --      0.0003                 0.0006                 0.0007
 IR Inten    --      0.8471                 1.6088                 0.9981

                      4                      5                      6
                      A                      A                      A
 Frequencies --     27.1099                28.6126                30.9851
 Red. masses --      4.2456                 3.8641                 4.6955
 Frc consts  --      0.0018                 0.0019                 0.0027
 IR Inten    --      0.5806                 0.7046                 2.5933

                      7                      8                      9
                      A                      A                      A
 Frequencies --     40.0975                51.4836                72.5119
 Red. masses --      4.6437                 4.9567                 6.0971
 Frc consts  --      0.0044                 0.0077                 0.0189
 IR Inten    --      0.6078                 2.5468                 3.4808

                     10                     11                     12
                      A                      A                      A
 Frequencies --     82.6147                83.8311                96.0716
 Red. masses --      4.0511                 4.3097                 5.9365
 Frc consts  --      0.0163                 0.0178                 0.0323
 IR Inten    --      0.0730                 3.7673                 1.6077

                     13                     14                     15
                      A                      A                      A
 Frequencies --    108.7714               129.2286               141.1122
 Red. masses --      4.2243                 4.0732                 8.4087
 Frc consts  --      0.0294                 0.0401                 0.0987
 IR Inten    --      1.6850                 1.9462                10.1193

                     16                     17                     18
                      A                      A                      A
 Frequencies --    159.2503               211.9045               227.1379
 Red. masses --      6.8971                 4.6520                 3.7442
 Frc consts  --      0.1031                 0.1231                 0.1138
 IR Inten    --      6.5816                 8.7357                 0.3927

                     19                     20                     21
                      A                      A                      A
 Frequencies --    233.0017               237.1295               251.7694
 Red. masses --      3.9415                 5.1042                 1.4985
 Frc consts  --      0.1261                 0.1691                 0.0560
 IR Inten    --      1.1150                 2.2422                10.2351

                     22                     23                     24
                      A                      A                      A
 Frequencies --    255.0292               258.0675               291.4916
 Red. masses --      1.0723                 1.9236                 5.0567
 Frc consts  --      0.0411                 0.0755                 0.2531
 IR Inten    --      0.1242                 4.7150                 6.4984

                     25                     26                     27
                      A                      A                      A
 Frequencies --    300.3210               317.3934               320.8239
 Red. masses --      1.9585                 5.3079                 5.3731
 Frc consts  --      0.1041                 0.3150                 0.3258
 IR Inten    --      0.3504                 6.4543                 2.9889

                     28                     29                     30
                      A                      A                      A
 Frequencies --    337.1923               362.3893               382.1281
 Red. masses --      2.6652                 2.1990                 2.9929
 Frc consts  --      0.1785                 0.1701                 0.2575
 IR Inten    --      6.7701                 8.0070                 2.8999

                     31                     32                     33
                      A                      A                      A
 Frequencies --    395.7029               409.8527               418.9302
 Red. masses --      6.7378                 4.0822                 2.9660
 Frc consts  --      0.6216                 0.4040                 0.3067
 IR Inten    --      6.6975                 4.9771                 0.0058

                     34                     35                     36
                      A                      A                      A
 Frequencies --    450.5817               454.7582               473.2286
 Red. masses --      2.9701                 1.3348                 4.1341
 Frc consts  --      0.3553                 0.1626                 0.5455
 IR Inten    --     21.8475               192.3134                 3.6496

                     37                     38                     39
                      A                      A                      A
 Frequencies --    494.4425               532.2244               550.2584
 Red. masses --      3.9073                 6.9929                 1.1980
 Frc consts  --      0.5628                 1.1671                 0.2137
 IR Inten    --     11.2186                18.8872               184.3951

                     40                     41                     42
                      A                      A                      A
 Frequencies --    561.3362               605.8655               629.4099
 Red. masses --      4.9758                 3.0357                 4.0522
 Frc consts  --      0.9238                 0.6565                 0.9458
 IR Inten    --     21.3237                 6.5210                 1.4697

                     43                     44                     45
                      A                      A                      A
 Frequencies --    634.6487               654.3669               676.2990
 Red. masses --      6.3127                 5.6126                 4.9280
 Frc consts  --      1.4981                 1.4160                 1.3280
 IR Inten    --      0.0914                 0.4840                14.8006

                     46                     47                     48
                      A                      A                      A
 Frequencies --    681.0685               693.0283               705.7998
 Red. masses --      4.6497                 6.3916                 5.4278
 Frc consts  --      1.2707                 1.8087                 1.5931
 IR Inten    --      3.0647                 2.4194                 5.3436

                     49                     50                     51
                      A                      A                      A
 Frequencies --    719.5177               747.2717               752.3011
 Red. masses --      1.5773                 1.6548                 4.0304
 Frc consts  --      0.4811                 0.5444                 1.3440
 IR Inten    --     48.5931                 9.1335                 7.0353

                     52                     53                     54
                      A                      A                      A
 Frequencies --    762.0188               768.9985               794.1306
 Red. masses --      5.5987                 3.4094                 2.6650
 Frc consts  --      1.9154                 1.1879                 0.9902
 IR Inten    --     48.0129                 5.5297                48.0793

                     55                     56                     57
                      A                      A                      A
 Frequencies --    815.0308               833.1209               846.5726
 Red. masses --      1.2153                 4.1691                 3.9627
 Frc consts  --      0.4757                 1.7049                 1.6733
 IR Inten    --     57.8463                 4.6281                11.7489

                     58                     59                     60
                      A                      A                      A
 Frequencies --    864.7118               866.3293               880.9808
 Red. masses --      3.5706                 1.2510                 1.3924
 Frc consts  --      1.5730                 0.5532                 0.6367
 IR Inten    --     46.5268                 0.0265                 3.7433

                     61                     62                     63
                      A                      A                      A
 Frequencies --    892.4174               933.0252               940.2056
 Red. masses --      2.1356                 1.7206                 1.5996
 Frc consts  --      1.0021                 0.8825                 0.8331
 IR Inten    --      4.3446                 1.1196                 2.3992

                     64                     65                     66
                      A                      A                      A
 Frequencies --    947.9644               977.1603               981.4605
 Red. masses --      5.3461                 1.3545                 1.9062
 Frc consts  --      2.8306                 0.7620                 1.0818
 IR Inten    --     11.9695                 0.0114                 5.6296

                     67                     68                     69
                      A                      A                      A
 Frequencies --    991.4613              1001.0494              1005.0149
 Red. masses --      4.6249                 1.9127                 1.2512
 Frc consts  --      2.6786                 1.1293                 0.7446
 IR Inten    --     18.2381                18.5566                 0.2615

                     70                     71                     72
                      A                      A                      A
 Frequencies --   1017.0805              1035.8234              1036.8522
 Red. masses --      6.2272                 1.4818                 2.1492
 Frc consts  --      3.7954                 0.9367                 1.3613
 IR Inten    --      0.8218                44.1565                18.5999

                     73                     74                     75
                      A                      A                      A
 Frequencies --   1054.1757              1057.2571              1065.4108
 Red. masses --      2.2227                 2.1175                 2.3480
 Frc consts  --      1.4553                 1.3946                 1.5703
 IR Inten    --      4.4500                61.5977                38.5185

                     76                     77                     78
                      A                      A                      A
 Frequencies --   1070.2048              1085.2079              1106.2551
 Red. masses --      1.6011                 1.9457                 1.5433
 Frc consts  --      1.0804                 1.3500                 1.1128
 IR Inten    --     15.4462               150.1945                11.0087

                     79                     80                     81
                      A                      A                      A
 Frequencies --   1124.3918              1126.1123              1133.2342
 Red. masses --      4.9032                 2.2642                 1.3001
 Frc consts  --      3.6523                 1.6917                 0.9837
 IR Inten    --     12.0839                43.4986                15.9957

                     82                     83                     84
                      A                      A                      A
 Frequencies --   1161.7666              1176.6181              1184.8433
 Red. masses --      3.1254                 1.4521                 1.0928
 Frc consts  --      2.4854                 1.1845                 0.9039
 IR Inten    --    287.0782                22.0665                 0.0878

                     85                     86                     87
                      A                      A                      A
 Frequencies --   1202.1572              1203.0041              1212.4759
 Red. masses --      1.1442                 1.1423                 2.0627
 Frc consts  --      0.9743                 0.9740                 1.7866
 IR Inten    --      2.1235                 0.1249                 8.6785

                     88                     89                     90
                      A                      A                      A
 Frequencies --   1223.6124              1228.9511              1229.3818
 Red. masses --      1.7429                 1.5675                 2.2634
 Frc consts  --      1.5375                 1.3949                 2.0155
 IR Inten    --     24.8666               107.6660                12.0236

                     91                     92                     93
                      A                      A                      A
 Frequencies --   1234.9005              1267.1977              1276.3197
 Red. masses --      2.3500                 1.9442                 1.3666
 Frc consts  --      2.1114                 1.8394                 1.3116
 IR Inten    --     17.4005                22.2122                17.2069

                     94                     95                     96
                      A                      A                      A
 Frequencies --   1305.5340              1307.8777              1319.3021
 Red. masses --      2.5196                 2.4889                 1.7701
 Frc consts  --      2.5302                 2.5084                 1.8152
 IR Inten    --     12.8337                16.4262                21.1239

                     97                     98                     99
                      A                      A                      A
 Frequencies --   1336.9715              1352.4691              1356.6684
 Red. masses --      1.2486                 1.9572                 2.5292
 Frc consts  --      1.3150                 2.1093                 2.7427
 IR Inten    --    134.3125               147.7818                 7.4048

                    100                    101                    102
                      A                      A                      A
 Frequencies --   1360.7436              1384.7933              1387.9401
 Red. masses --      1.8503                 2.3565                 3.2233
 Frc consts  --      2.0186                 2.6625                 3.6584
 IR Inten    --      0.0455                42.7083               123.5595

                    103                    104                    105
                      A                      A                      A
 Frequencies --   1410.6614              1428.1796              1442.5483
 Red. masses --      2.7307                 1.7316                 1.6914
 Frc consts  --      3.2016                 2.0809                 2.0738
 IR Inten    --    451.5602                71.2983               267.8731

                    106                    107                    108
                      A                      A                      A
 Frequencies --   1460.0366              1465.9742              1478.2951
 Red. masses --      1.1614                 3.2421                 1.2338
 Frc consts  --      1.4587                 4.1051                 1.5886
 IR Inten    --      2.7806               139.7437                58.7881

                    109                    110                    111
                      A                      A                      A
 Frequencies --   1483.2271              1484.4557              1496.4189
 Red. masses --      4.1352                 1.1964                 2.1914
 Frc consts  --      5.3600                 1.5533                 2.8912
 IR Inten    --    758.5851                 7.7117                 6.3089

                    112                    113                    114
                      A                      A                      A
 Frequencies --   1504.6357              1506.3593              1507.8120
 Red. masses --      1.0500                 1.0826                 1.1081
 Frc consts  --      1.4006                 1.4473                 1.4843
 IR Inten    --     11.5493                 1.6206                15.8519

                    115                    116                    117
                      A                      A                      A
 Frequencies --   1517.4969              1524.7256              1529.7411
 Red. masses --      1.0852                 1.0511                 1.1061
 Frc consts  --      1.4724                 1.4397                 1.5251
 IR Inten    --     23.6878                 7.8280                56.0981

                    118                    119                    120
                      A                      A                      A
 Frequencies --   1533.0720              1535.9550              1543.5950
 Red. masses --      1.6753                 2.0732                 2.2899
 Frc consts  --      2.3199                 2.8817                 3.2147
 IR Inten    --     20.9661                14.0197                15.3858

                    121                    122                    123
                      A                      A                      A
 Frequencies --   1563.2439              1639.6038              1641.9768
 Red. masses --      2.2876                 6.3243                 5.5834
 Frc consts  --      3.2937                10.0171                 8.8691
 IR Inten    --    188.8260                11.8474                 2.1821

                    124                    125                    126
                      A                      A                      A
 Frequencies --   1643.9219              1662.9913              1669.3123
 Red. masses --      5.4148                 5.7499                 5.2757
 Frc consts  --      8.6218                 9.3690                 8.6618
 IR Inten    --     40.7231                47.9017               869.4207

                    127                    128                    129
                      A                      A                      A
 Frequencies --   2961.9632              2968.1558              2974.5393
 Red. masses --      1.0707                 1.0592                 1.0620
 Frc consts  --      5.5347                 5.4978                 5.5362
 IR Inten    --     60.6956                58.8812               262.7304

                    130                    131                    132
                      A                      A                      A
 Frequencies --   3039.6389              3064.2925              3066.8776
 Red. masses --      1.0669                 1.0605                 1.0877
 Frc consts  --      5.8079                 5.8673                 6.0279
 IR Inten    --     75.6493                31.7668                38.9682

                    133                    134                    135
                      A                      A                      A
 Frequencies --   3095.3649              3098.1294              3103.8315
 Red. masses --      1.1022                 1.0851                 1.0728
 Frc consts  --      6.2219                 6.1367                 6.0892
 IR Inten    --     23.8255                12.0809                47.6036

                    136                    137                    138
                      A                      A                      A
 Frequencies --   3105.6037              3109.7508              3152.0468
 Red. masses --      1.0712                 1.0707                 1.1042
 Frc consts  --      6.0869                 6.1004                 6.4639
 IR Inten    --     58.7971                43.3240                28.0492

                    139                    140                    141
                      A                      A                      A
 Frequencies --   3152.6819              3171.7109              3190.8967
 Red. masses --      1.1039                 1.1072                 1.0865
 Frc consts  --      6.4649                 6.5627                 6.5180
 IR Inten    --     67.6629                11.7755                13.6284

                    142                    143                    144
                      A                      A                      A
 Frequencies --   3193.9030              3203.3452              3210.5298
 Red. masses --      1.0870                 1.0902                 1.0941
 Frc consts  --      6.5330                 6.5910                 6.6447
 IR Inten    --      7.7291                18.3421                78.0022

                    145                    146                    147
                      A                      A                      A
 Frequencies --   3222.0478              3282.1464              3293.9727
 Red. masses --      1.0979                 1.0934                 1.1012
 Frc consts  --      6.7152                 6.9395                 7.0398
 IR Inten    --     32.2335                 6.1018                 1.8640

                    148                    149                    150
                      A                      A                      A
 Frequencies --   3317.1433              3536.6904              3622.5642
 Red. masses --      1.0972                 1.0770                 1.0817
 Frc consts  --      7.1131                 7.9374                 8.3637
 IR Inten    --      2.0290               137.5059               217.4012

 - Thermochemistry -
 -------------------
 Temperature   298.150 Kelvin.  Pressure   1.00000 Atm.
 Atom     1 has atomic number  6 and mass  12.00000

 Molecular mass:   400.15691 amu.
 Principal axes and moments of inertia in atomic units:
                           1         2         3
     Eigenvalues --  3626.65373********************
           X            0.99999  -0.00151  -0.00312
           Y            0.00153   0.99997   0.00699
           Z            0.00311  -0.00699   0.99997
 This molecule is an asymmetric top.
 Rotational symmetry number  1.
 Warning -- assumption of classical behavior for rotation
           may cause significant error
 Rotational temperatures (Kelvin)      0.02388     0.00199     0.00190
 Rotational constants (GHZ):           0.49763     0.04137     0.03966
 Zero-point vibrational energy    1111663.5 (Joules/Mol)
                                  265.69395 (Kcal/Mol)
 Warning -- explicit consideration of  41 degrees of freedom as
           vibrations may cause significant error
 Vibrational temperatures:     13.14    18.22    23.33    39.01    41.17
          (Kelvin)             44.58    57.69    74.07   104.33   118.86
                              120.61   138.23   156.50   185.93   203.03
                              229.13   304.88   326.80   335.24   341.18
                              362.24   366.93   371.30   419.39   432.09
                              456.66   461.59   485.14   521.40   549.80
                              569.33   589.69   602.75   648.29   654.30
                              680.87   711.39   765.75   791.70   807.64
                              871.71   905.58   913.12   941.49   973.04
                              979.91   997.11  1015.49  1035.23  1075.16
                             1082.39  1096.38  1106.42  1142.58  1172.65
                             1198.68  1218.03  1244.13  1246.45  1267.53
                             1283.99  1342.42  1352.75  1363.91  1405.92
                             1412.10  1426.49  1440.29  1445.99  1463.35
                             1490.32  1491.80  1516.72  1521.16  1532.89
                             1539.79  1561.37  1591.65  1617.75  1620.22
                             1630.47  1671.52  1692.89  1704.73  1729.64
                             1730.85  1744.48  1760.51  1768.19  1768.81
                             1776.75  1823.21  1836.34  1878.37  1881.74
                             1898.18  1923.60  1945.90  1951.94  1957.81
                             1992.41  1996.94  2029.63  2054.83  2075.51
                             2100.67  2109.21  2126.94  2134.03  2135.80
                             2153.01  2164.84  2167.32  2169.41  2183.34
                             2193.74  2200.96  2205.75  2209.90  2220.89
                             2249.16  2359.02  2362.44  2365.24  2392.67
                             2401.77  4261.60  4270.51  4279.70  4373.36
                             4408.83  4412.55  4453.54  4457.52  4465.72
                             4468.27  4474.24  4535.09  4536.01  4563.38
                             4590.99  4595.31  4608.90  4619.24  4635.81
                             4722.28  4739.29  4772.63  5088.51  5212.06

 Zero-point correction=                           0.423410 (Hartree/Particle)
 Thermal correction to Energy=                    0.450839
 Thermal correction to Enthalpy=                  0.451783
 Thermal correction to Gibbs Free Energy=         0.358870
 Sum of electronic and zero-point Energies=          -1618.915731
 Sum of electronic and thermal Energies=             -1618.888303
 Sum of electronic and thermal Enthalpies=           -1618.887359
 Sum of electronic and thermal Free Energies=        -1618.980272

                     E (Thermal)             CV                S
                      KCal/Mol        Cal/Mol-Kelvin    Cal/Mol-Kelvin
 Total                  282.906            101.801            195.552
 Electronic               0.000              0.000              0.000
 Translational            0.889              2.981             43.851
 Rotational               0.889              2.981             37.218
 Vibrational            281.128             95.839            114.482
 Vibration     1          0.593              1.987              8.191
 Vibration     2          0.593              1.987              7.541
 Vibration     3          0.593              1.986              7.051
 Vibration     4          0.593              1.984              6.030
 Vibration     5          0.593              1.984              5.923
 Vibration     6          0.594              1.984              5.765
 Vibration     7          0.594              1.981              5.254
 Vibration     8          0.596              1.977              4.760
 Vibration     9          0.599              1.967              4.084
 Vibration    10          0.600              1.961              3.828
 Vibration    11          0.601              1.960              3.799
 Vibration    12          0.603              1.952              3.532
 Vibration    13          0.606              1.942              3.291
 Vibration    14          0.612              1.924              2.957
 Vibration    15          0.615              1.912              2.789
 Vibration    16          0.621              1.892              2.559
 Vibration    17          0.643              1.823              2.027
 Vibration    18          0.651              1.800              1.901
 Vibration    19          0.654              1.790              1.856
 Vibration    20          0.656              1.784              1.824
 Vibration    21          0.664              1.760              1.718
 Vibration    22          0.665              1.754              1.696
 Vibration    23          0.667              1.749              1.675
 Vibration    24          0.687              1.690              1.465
 Vibration    25          0.693              1.673              1.415
 Vibration    26          0.704              1.640              1.323
 Vibration    27          0.706              1.634              1.306
 Vibration    28          0.718              1.601              1.225
 Vibration    29          0.736              1.550              1.112
 Vibration    30          0.752              1.508              1.031
 Vibration    31          0.762              1.479              0.979
 Vibration    32          0.774              1.449              0.927
 Vibration    33          0.782              1.429              0.896
 Vibration    34          0.809              1.360              0.794
 Vibration    35          0.813              1.350              0.782
 Vibration    36          0.830              1.309              0.729
 Vibration    37          0.850              1.262              0.672
 Vibration    38          0.887              1.179              0.582
 Vibration    39          0.906              1.139              0.544
 Vibration    40          0.917              1.115              0.521
 Vibration    41          0.964              1.019              0.440

 Optimization completed.
    -- Stationary point found.
 Normal termination of Gaussian 16 at Tue Mar  1 13:07:44 2022.

 ------------------------------------------
 #p b3lyp/6-31G(d) geom=allcheck guess=read
 ------------------------------------------

 Structure from the checkpoint file:  "290.n.pdb.xyz.mst.wat.chk"
 -------------
 290.n.pdb.xyz
 -------------
 Charge =  0 Multiplicity = 1

 SCF Done:  E(RB3LYP) =  -1619.31027774     A.U. after   12 cycles
 Normal termination of Gaussian 16 at Tue Mar  1 13:12:46 2022.
 Gaussian 16:  ES64L-G16RevA.03 25-Dec-2016

 ----------------------------------------------------------------------
 #p b3lyp/6-31G(d) scrf=(iefpcm,read,solvent=water) geom=allcheck guess
 =read
 ----------------------------------------------------------------------

 Structure from the checkpoint file:  "290.n.pdb.xyz.mst.wat.chk"
 -------------
 290.n.pdb.xyz
 -------------
 Charge =  0 Multiplicity = 1

                         Standard orientation:
 ---------------------------------------------------------------------
 Center     Atomic      Atomic             Coordinates (Angstroms)
 Number     Number       Type             X           Y           Z
 ---------------------------------------------------------------------
      1          6           0        9.535436   -1.651529    0.080543
      2          7           0        8.386158   -0.800169   -0.206286
      3          6           0        8.025857   -0.877287   -1.618544
      4          6           0        7.257489   -1.143630    0.656061
      5          6           0        6.200526   -0.084447    0.643596
      6          6           0        6.237049    1.281164    0.636173
      7          6           0        4.880005    1.726032    0.666702
      8          6           0        4.097717    0.604923    0.697375
      9          8           0        4.905026   -0.514925    0.686502
     10         16           0        2.369971    0.373855    0.814273
     11          6           0        1.946567   -0.101465   -0.927963
     12          6           0        0.530354   -0.651215   -0.998185
     13          7           0       -0.440979    0.353851   -0.589512
     14          6           0       -1.761425    0.112237   -0.471657
     15          6           0       -2.819984    1.044139   -0.273031
     16          6           0       -4.063158    0.307780   -0.162934
     17          6           0       -5.443018    0.875592    0.052687
     18          6           0       -6.519697   -0.181327    0.175290
     19          6           0       -7.265783   -0.575199   -0.942568
     20          6           0       -8.258286   -1.551575   -0.834743
     21          6           0       -8.518503   -2.151472    0.398908
     22          6           0       -7.780736   -1.767703    1.521334
     23          6           0       -6.790312   -0.790907    1.407885
     24          6           0       -3.719730   -1.002751   -0.299459
     25          7           0       -2.335924   -1.112151   -0.487635
     26          7           0       -2.632300    2.408887   -0.223300
     27          8           0       -3.614286    3.167408   -0.055011
     28          8           0       -1.463683    2.874642   -0.349472
     29          1           0        9.823836   -1.541434    1.129299
     30          1           0       10.374376   -1.343819   -0.546978
     31          1           0        9.339786   -2.721312   -0.112866
     32          1           0        7.743152   -1.899183   -1.929434
     33          1           0        8.876097   -0.557664   -2.226961
     34          1           0        7.183127   -0.212110   -1.820064
     35          1           0        7.645991   -1.262120    1.674655
     36          1           0        6.790784   -2.107779    0.384492
     37          1           0        7.127241    1.891237    0.606414
     38          1           0        4.523096    2.745307    0.662334
     39          1           0        2.644640   -0.874253   -1.249906
     40          1           0        2.065041    0.773177   -1.571698
     41          1           0        0.444860   -1.523347   -0.342339
     42          1           0        0.341504   -0.988860   -2.026166
     43          1           0       -0.228327    1.339109   -0.721858
     44          1           0       -5.685768    1.552266   -0.773587
     45          1           0       -5.432997    1.503566    0.949434
     46          1           0       -7.070444   -0.106825   -1.902875
     47          1           0       -8.829255   -1.839584   -1.711950
     48          1           0       -9.291622   -2.908040    0.486395
     49          1           0       -7.979395   -2.225011    2.485640
     50          1           0       -6.223407   -0.492984    2.285656
     51          1           0       -4.329072   -1.890732   -0.282039
     52          1           0       -1.850136   -1.989372   -0.627820
 ---------------------------------------------------------------------

 SCF Done:  E(RB3LYP) =  -1619.33581172     A.U. after   12 cycles

 The electronic state is 1-A.
 Alpha  occ. eigenvalues --  -88.89163 -19.21979 -19.15629 -19.15488 -14.55024
 Alpha  occ. eigenvalues --  -14.39084 -14.37173 -14.33262 -10.28655 -10.25919
 Alpha  occ. eigenvalues --  -10.24591 -10.24044 -10.22594 -10.22511 -10.22066
 Alpha  occ. eigenvalues --  -10.21574 -10.19984 -10.19968 -10.19837 -10.19698
 Alpha  occ. eigenvalues --  -10.19605 -10.19390 -10.18991 -10.18978 -10.18871
 Alpha  occ. eigenvalues --  -10.18816 -10.18811 -10.18687  -7.95220  -5.91749
 Alpha  occ. eigenvalues --   -5.91364  -5.90690  -1.19101  -1.11251  -1.01677
 Alpha  occ. eigenvalues --   -1.00893  -0.93928  -0.92600  -0.85737  -0.83567
 Alpha  occ. eigenvalues --   -0.82270  -0.80289  -0.79013  -0.77527  -0.74439
 Alpha  occ. eigenvalues --   -0.74326  -0.73232  -0.70399  -0.69398  -0.68760
 Alpha  occ. eigenvalues --   -0.67095  -0.62778  -0.61317  -0.60401  -0.59561
 Alpha  occ. eigenvalues --   -0.58443  -0.58153  -0.55962  -0.55776  -0.55379
 Alpha  occ. eigenvalues --   -0.51470  -0.51230  -0.50911  -0.50858  -0.49650
 Alpha  occ. eigenvalues --   -0.48550  -0.48085  -0.47953  -0.46986  -0.46642
 Alpha  occ. eigenvalues --   -0.46045  -0.45460  -0.45040  -0.44378  -0.43153
 Alpha  occ. eigenvalues --   -0.42604  -0.42342  -0.41980  -0.41789  -0.40665
 Alpha  occ. eigenvalues --   -0.39751  -0.39615  -0.39250  -0.39049  -0.38799
 Alpha  occ. eigenvalues --   -0.38462  -0.37386  -0.37251  -0.36482  -0.36070
 Alpha  occ. eigenvalues --   -0.35766  -0.34166  -0.33863  -0.33657  -0.30777
 Alpha  occ. eigenvalues --   -0.29828  -0.29129  -0.28408  -0.27328  -0.26133
 Alpha  occ. eigenvalues --   -0.25212  -0.25092  -0.24534  -0.22588  -0.22027
 Alpha  occ. eigenvalues --   -0.19826
 Alpha virt. eigenvalues --   -0.06093  -0.01263  -0.00295  -0.00194   0.03834
 Alpha virt. eigenvalues --    0.04698   0.06286   0.07646   0.08717   0.09189
 Alpha virt. eigenvalues --    0.09325   0.09687   0.10625   0.12090   0.12695

 Mulliken charges:
               1
     1  C   -0.304090
     2  N   -0.395784
     3  C   -0.311661
     4  C   -0.204959
     5  C    0.343635
     6  C   -0.208890
     7  C   -0.186202
     8  C    0.095698
     9  O   -0.458349
    10  S    0.079671
    11  C   -0.440176
    12  C   -0.135870
    13  N   -0.667799
    14  C    0.629026
    15  C    0.195666
    16  C    0.125013
    17  C   -0.410207
    18  C    0.142185
    19  C   -0.193441
    20  C   -0.149974
    21  C   -0.151088
    22  C   -0.150436
    23  C   -0.188853
    24  C   -0.033305
    25  N   -0.671670
    26  N    0.290633
    27  O   -0.505660
    28  O   -0.526462
    29  H    0.160165
    30  H    0.160044
    31  H    0.129997
    32  H    0.128923
    33  H    0.160095
    34  H    0.160900
    35  H    0.178368
    36  H    0.143067
    37  H    0.160960
    38  H    0.172599
    39  H    0.211103
    40  H    0.204455
    41  H    0.188543
    42  H    0.190631
    43  H    0.385830
    44  H    0.168174
    45  H    0.169814
    46  H    0.144312
    47  H    0.148401
    48  H    0.147739
    49  H    0.148472
    50  H    0.144911
    51  H    0.180587
    52  H    0.405262
 Sum of Mulliken charges =  -0.00000

 Dipole moment (field-independent basis, Debye):
    X=              5.0179    Y=            -10.3292    Z=             -3.7231  Tot=             12.0720
 Quadrupole moment (field-independent basis, Debye-Ang):
   XX=           -151.3631   YY=           -181.5711   ZZ=           -163.7037
   XY=             20.6832   XZ=             -3.3917   YZ=              2.0125

 Normal termination of Gaussian 16 at Tue Mar  1 13:19:43 2022.
