 Gaussian 16, Revision A.03,

 ----------------------------------------------------------------------
 #p b3lyp/6-31G(d) opt=(MaxStep=10,MaxCycles=1000) freq scf=(MaxCycle=2
 000,NoVarAcc,NoIncFock) scrf=(iefpcm,read,solvent=water)
 ----------------------------------------------------------------------

 -------------
 293.n.pdb.xyz
 -------------
 Symbolic Z-matrix:
 Charge =  0 Multiplicity = 1

 SCF Done:  E(RB3LYP) =  -1447.31640237     A.U. after   13 cycles
 SCF Done:  E(RB3LYP) =  -1447.32160168     A.U. after   10 cycles
 SCF Done:  E(RB3LYP) =  -1447.32383087     A.U. after   11 cycles
 SCF Done:  E(RB3LYP) =  -1447.32551776     A.U. after   11 cycles
 SCF Done:  E(RB3LYP) =  -1447.32579438     A.U. after   11 cycles
 SCF Done:  E(RB3LYP) =  -1447.32609935     A.U. after   11 cycles
 SCF Done:  E(RB3LYP) =  -1447.32619700     A.U. after   11 cycles
 SCF Done:  E(RB3LYP) =  -1447.32640483     A.U. after    9 cycles
 SCF Done:  E(RB3LYP) =  -1447.32673582     A.U. after   10 cycles
 SCF Done:  E(RB3LYP) =  -1447.32683830     A.U. after   10 cycles
 SCF Done:  E(RB3LYP) =  -1447.32758905     A.U. after    9 cycles
 SCF Done:  E(RB3LYP) =  -1447.32758122     A.U. after    8 cycles
 SCF Done:  E(RB3LYP) =  -1447.32761930     A.U. after    8 cycles
 SCF Done:  E(RB3LYP) =  -1447.32761523     A.U. after    7 cycles
 SCF Done:  E(RB3LYP) =  -1447.32762159     A.U. after    7 cycles
 SCF Done:  E(RB3LYP) =  -1447.32762311     A.U. after    6 cycles
 SCF Done:  E(RB3LYP) =  -1447.32762359     A.U. after    6 cycles
 Optimization completed.
    -- Stationary point found.
 Normal termination of Gaussian 16 at Tue Mar  1 19:47:22 2022.

 --------------------------------------------------------------------
 #P Geom=AllCheck Guess=TCheck SCRF=Check GenChk RB3LYP/6-31G(d) Freq
 --------------------------------------------------------------------

 Structure from the checkpoint file:  "293.n.pdb.xyz.mst.wat.chk"
 -------------
 293.n.pdb.xyz
 -------------
 Charge =  0 Multiplicity = 1

 SCF Done:  E(RB3LYP) =  -1447.32762359     A.U. after    1 cycles

  Exact polarizability: 474.936  -8.977 311.302  32.673  -6.615 175.414
 Approx polarizability: 474.409  -0.603 380.130  34.725  -5.386 206.326

                      1                      2                      3
                      A                      A                      A
 Frequencies --     13.3516                23.9494                28.0352
 Red. masses --      5.0187                 5.8448                 4.3811
 Frc consts  --      0.0005                 0.0020                 0.0020
 IR Inten    --      0.5803                 0.1303                 5.3090

                      4                      5                      6
                      A                      A                      A
 Frequencies --     46.1908                55.0150                64.4298
 Red. masses --      3.9895                 3.5789                 3.7186
 Frc consts  --      0.0050                 0.0064                 0.0091
 IR Inten    --      3.5262                10.7553                 1.1893

                      7                      8                      9
                      A                      A                      A
 Frequencies --     80.6751               109.4983               116.3075
 Red. masses --      4.1348                 1.2217                 6.0794
 Frc consts  --      0.0159                 0.0086                 0.0485
 IR Inten    --      4.2551                 1.3430                 6.3406

                     10                     11                     12
                      A                      A                      A
 Frequencies --    121.9746               140.5016               148.6188
 Red. masses --      2.5500                 6.7087                 3.1559
 Frc consts  --      0.0224                 0.0780                 0.0411
 IR Inten    --      2.9967                 4.9510                 1.9560

                     13                     14                     15
                      A                      A                      A
 Frequencies --    159.7496               162.2111               191.3309
 Red. masses --      1.2321                 1.0734                 3.5376
 Frc consts  --      0.0185                 0.0166                 0.0763
 IR Inten    --      0.7810                 0.3592                 0.2434

                     16                     17                     18
                      A                      A                      A
 Frequencies --    205.0129               230.1516               252.5891
 Red. masses --      3.0470                 7.0060                 2.8659
 Frc consts  --      0.0755                 0.2186                 0.1077
 IR Inten    --      2.9566                13.4126                 7.1604

                     19                     20                     21
                      A                      A                      A
 Frequencies --    265.4092               278.4059               297.1435
 Red. masses --      2.6238                 1.8231                 3.9706
 Frc consts  --      0.1089                 0.0833                 0.2066
 IR Inten    --      4.8319                 1.9120                 1.9418

                     22                     23                     24
                      A                      A                      A
 Frequencies --    301.5703               331.4948               346.9125
 Red. masses --      5.5909                 4.0959                 3.1645
 Frc consts  --      0.2996                 0.2652                 0.2244
 IR Inten    --      7.6198                 5.9903                12.4622

                     25                     26                     27
                      A                      A                      A
 Frequencies --    367.5637               378.6852               393.7920
 Red. masses --      3.6432                 3.6244                 4.7896
 Frc consts  --      0.2900                 0.3062                 0.4376
 IR Inten    --      3.5451                16.5903                12.0876

                     28                     29                     30
                      A                      A                      A
 Frequencies --    407.8625               441.2405               444.5559
 Red. masses --      7.2604                 5.7549                 3.0417
 Frc consts  --      0.7116                 0.6601                 0.3542
 IR Inten    --     17.9332                47.7879                 1.0961

                     31                     32                     33
                      A                      A                      A
 Frequencies --    488.4521               508.0008               512.3335
 Red. masses --      5.0404                 3.6803                 2.3057
 Frc consts  --      0.7085                 0.5596                 0.3566
 IR Inten    --      3.9791                43.1471                83.4367

                     34                     35                     36
                      A                      A                      A
 Frequencies --    522.3725               531.8622               564.1906
 Red. masses --      2.1527                 3.3870                 4.4486
 Frc consts  --      0.3461                 0.5645                 0.8343
 IR Inten    --     41.9762                 9.6763                 7.4895

                     37                     38                     39
                      A                      A                      A
 Frequencies --    576.4285               617.8575               638.0230
 Red. masses --      5.3990                 5.8580                 3.1367
 Frc consts  --      1.0569                 1.3176                 0.7523
 IR Inten    --      7.6592                 0.3371                17.9236

                     40                     41                     42
                      A                      A                      A
 Frequencies --    651.8968               653.5689               692.8678
 Red. masses --      5.2855                 4.8683                 5.5130
 Frc consts  --      1.3234                 1.2252                 1.5593
 IR Inten    --      9.6542                 2.6239                 5.5521

                     43                     44                     45
                      A                      A                      A
 Frequencies --    733.6302               758.8205               765.4610
 Red. masses --      5.6152                 4.7815                 7.0800
 Frc consts  --      1.7806                 1.6221                 2.4442
 IR Inten    --     13.1510                 6.5113                10.6838

                     46                     47                     48
                      A                      A                      A
 Frequencies --    767.4916               808.1431               815.9578
 Red. masses --      5.4656                 5.5241                 1.5848
 Frc consts  --      1.8969                 2.1256                 0.6217
 IR Inten    --      6.3841                12.8764                45.0389

                     49                     50                     51
                      A                      A                      A
 Frequencies --    841.4480               863.6360               891.6411
 Red. masses --      4.4023                 1.4583                 2.9383
 Frc consts  --      1.8365                 0.6409                 1.3764
 IR Inten    --     23.7750                37.1438                11.7613

                     52                     53                     54
                      A                      A                      A
 Frequencies --    905.6030               938.7068               940.9040
 Red. masses --      2.0779                 1.2741                 1.3352
 Frc consts  --      1.0040                 0.6615                 0.6964
 IR Inten    --     22.9527                 0.0021                 4.5565

                     55                     56                     57
                      A                      A                      A
 Frequencies --    956.9389               984.1137               989.3729
 Red. masses --      4.0732                 9.0584                 2.3278
 Frc consts  --      2.1976                 5.1688                 1.3425
 IR Inten    --     10.2204                 1.6990                33.6279

                     58                     59                     60
                      A                      A                      A
 Frequencies --   1028.1540              1036.3842              1060.4553
 Red. masses --      3.6867                 8.1789                 3.0993
 Frc consts  --      2.2962                 5.1759                 2.0535
 IR Inten    --     59.9871               210.1419                61.3930

                     61                     62                     63
                      A                      A                      A
 Frequencies --   1061.4494              1069.5925              1075.3269
 Red. masses --      1.8939                 1.5191                 1.4950
 Frc consts  --      1.2572                 1.0239                 1.0185
 IR Inten    --     23.2739                 5.1377                 0.5908

                     64                     65                     66
                      A                      A                      A
 Frequencies --   1108.1783              1166.1892              1172.3495
 Red. masses --      2.2237                 1.4746                 1.5634
 Frc consts  --      1.6090                 1.1816                 1.2660
 IR Inten    --    238.3142                44.4895                54.4885

                     67                     68                     69
                      A                      A                      A
 Frequencies --   1175.9961              1185.7272              1186.6126
 Red. masses --      1.2513                 1.6531                 1.2988
 Frc consts  --      1.0196                 1.3694                 1.0775
 IR Inten    --      2.4449               122.9271                12.5352

                     70                     71                     72
                      A                      A                      A
 Frequencies --   1195.6663              1212.1643              1230.6977
 Red. masses --      2.4670                 1.4450                 1.4841
 Frc consts  --      2.0780                 1.2510                 1.3244
 IR Inten    --    225.8690                 3.2109                41.6155

                     73                     74                     75
                      A                      A                      A
 Frequencies --   1249.1810              1251.4849              1267.1867
 Red. masses --      2.3564                 2.3162                 1.5868
 Frc consts  --      2.1664                 2.1374                 1.5013
 IR Inten    --     48.2238                38.4353                 4.0146

                     76                     77                     78
                      A                      A                      A
 Frequencies --   1293.4294              1313.2636              1316.2865
 Red. masses --      5.1347                 3.2665                 2.8797
 Frc consts  --      5.0612                 3.3192                 2.9397
 IR Inten    --    128.1911               188.4808                27.0563

                     79                     80                     81
                      A                      A                      A
 Frequencies --   1325.3394              1328.0486              1400.7625
 Red. masses --      3.7938                 2.4591                 5.8652
 Frc consts  --      3.9263                 2.5554                 6.7805
 IR Inten    --     51.2157                12.2499               121.4749

                     82                     83                     84
                      A                      A                      A
 Frequencies --   1427.9249              1428.9540              1430.3902
 Red. masses --      1.2600                 2.7659                 2.2334
 Frc consts  --      1.5136                 3.3275                 2.6923
 IR Inten    --      1.4390                31.3057                47.9978

                     85                     86                     87
                      A                      A                      A
 Frequencies --   1436.9316              1459.4582              1481.7534
 Red. masses --      1.6565                 1.2954                 1.5457
 Frc consts  --      2.0152                 1.6257                 1.9996
 IR Inten    --     26.3515                 9.5050               100.3031

                     88                     89                     90
                      A                      A                      A
 Frequencies --   1486.0331              1494.7169              1501.4509
 Red. masses --      3.0273                 1.0610                 1.1564
 Frc consts  --      3.9388                 1.3967                 1.5359
 IR Inten    --    229.3666                10.8528                17.1851

                     91                     92                     93
                      A                      A                      A
 Frequencies --   1504.5271              1506.7873              1507.9018
 Red. masses --      1.0663                 1.5321                 1.2206
 Frc consts  --      1.4221                 2.0495                 1.6351
 IR Inten    --      0.8396                34.8259                 7.3063

                     94                     95                     96
                      A                      A                      A
 Frequencies --   1514.6849              1516.2842              1519.2448
 Red. masses --      1.1375                 3.9409                 1.0712
 Frc consts  --      1.5376                 5.3383                 1.4567
 IR Inten    --     39.4121                52.9597                11.0481

                     97                     98                     99
                      A                      A                      A
 Frequencies --   1520.3047              1527.4510              1528.2148
 Red. masses --      1.0936                 1.5491                 1.3038
 Frc consts  --      1.4892                 2.1294                 1.7940
 IR Inten    --     41.8285               103.0398                45.9283

                    100                    101                    102
                      A                      A                      A
 Frequencies --   1544.9970              1616.1340              1634.1179
 Red. masses --      1.5085                 6.5827                 6.6406
 Frc consts  --      2.1216                10.1299                10.4478
 IR Inten    --      5.2283                87.8666                42.2933

                    103                    104                    105
                      A                      A                      A
 Frequencies --   1635.4619              1685.3748              3055.7431
 Red. masses --      5.9827                 7.3255                 1.0319
 Frc consts  --      9.4282                12.2597                 5.6768
 IR Inten    --    112.5485                60.0743                64.1241

                    106                    107                    108
                      A                      A                      A
 Frequencies --   3058.5973              3062.4314              3070.4374
 Red. masses --      1.0337                 1.0375                 1.0408
 Frc consts  --      5.6974                 5.7328                 5.7814
 IR Inten    --     93.3929                44.0042                23.5694

                    109                    110                    111
                      A                      A                      A
 Frequencies --   3116.1481              3120.4362              3122.8785
 Red. masses --      1.1012                 1.0583                 1.1063
 Frc consts  --      6.3004                 6.0717                 6.3569
 IR Inten    --     23.3485                 5.7830                59.9735

                    112                    113                    114
                      A                      A                      A
 Frequencies --   3123.6037              3128.7248              3150.5280
 Red. masses --      1.1073                 1.0988                 1.1015
 Frc consts  --      6.3653                 6.3373                 6.4417
 IR Inten    --     56.5920                12.4341                29.1884

                    115                    116                    117
                      A                      A                      A
 Frequencies --   3176.9440              3178.7428              3179.2542
 Red. masses --      1.1023                 1.1006                 1.0904
 Frc consts  --      6.5547                 6.5523                 6.4936
 IR Inten    --     56.4770                 0.4894                58.3326

                    118                    119                    120
                      A                      A                      A
 Frequencies --   3183.8252              3192.3883              3231.3637
 Red. masses --      1.1020                 1.1090                 1.0904
 Frc consts  --      6.5816                 6.6593                 6.7083
 IR Inten    --     36.2783                 0.5716                12.7160

                    121                    122                    123
                      A                      A                      A
 Frequencies --   3234.5709              3254.7157              3602.2863
 Red. masses --      1.0918                 1.0918                 1.0819
 Frc consts  --      6.7300                 6.8142                 8.2718
 IR Inten    --      6.8523                11.1824               280.7813

 - Thermochemistry -
 -------------------
 Temperature   298.150 Kelvin.  Pressure   1.00000 Atm.
 Atom     1 has atomic number  6 and mass  12.00000

 Molecular mass:   345.11471 amu.
 Principal axes and moments of inertia in atomic units:
                           1         2         3
     Eigenvalues --  2440.73402********************
           X            1.00000   0.00019   0.00299
           Y           -0.00013   0.99980  -0.01988
           Z           -0.00300   0.01988   0.99980
 This molecule is an asymmetric top.
 Rotational symmetry number  1.
 Warning -- assumption of classical behavior for rotation
           may cause significant error
 Rotational temperatures (Kelvin)      0.03549     0.00359     0.00344
 Rotational constants (GHZ):           0.73943     0.07485     0.07174
 Zero-point vibrational energy     898315.3 (Joules/Mol)
                                  214.70252 (Kcal/Mol)
 Warning -- explicit consideration of  38 degrees of freedom as
           vibrations may cause significant error
 Vibrational temperatures:     19.21    34.46    40.34    66.46    79.15
          (Kelvin)             92.70   116.07   157.54   167.34   175.49
                              202.15   213.83   229.84   233.39   275.28
                              294.97   331.14   363.42   381.86   400.56
                              427.52   433.89   476.95   499.13   528.84
                              544.84   566.58   586.82   634.85   639.62
                              702.77   730.90   737.13   751.58   765.23
                              811.74   829.35   888.96   917.97   937.93
                              940.34   996.88  1055.53  1091.77  1101.33
                             1104.25  1162.74  1173.98  1210.66  1242.58
                             1282.87  1302.96  1350.59  1353.75  1376.82
                             1415.92  1423.49  1479.28  1491.13  1525.76
                             1527.19  1538.90  1547.16  1594.42  1677.89
                             1686.75  1692.00  1706.00  1707.27  1720.30
                             1744.03  1770.70  1797.29  1800.61  1823.20
                             1860.96  1889.49  1893.84  1906.87  1910.77
                             2015.38  2054.47  2055.95  2058.01  2067.42
                             2099.83  2131.91  2138.07  2150.56  2160.25
                             2164.68  2167.93  2169.53  2179.29  2181.59
                             2185.85  2187.38  2197.66  2198.76  2222.91
                             2325.26  2351.13  2353.06  2424.88  4396.53
                             4400.64  4406.16  4417.67  4483.44  4489.61
                             4493.13  4494.17  4501.54  4532.91  4570.91
                             4573.50  4574.24  4580.81  4593.13  4649.21
                             4653.83  4682.81  5182.89

 Zero-point correction=                           0.342150 (Hartree/Particle)
 Thermal correction to Energy=                    0.365663
 Thermal correction to Enthalpy=                  0.366608
 Thermal correction to Gibbs Free Energy=         0.286530
 Sum of electronic and zero-point Energies=          -1446.985473
 Sum of electronic and thermal Energies=             -1446.961960
 Sum of electronic and thermal Enthalpies=           -1446.961016
 Sum of electronic and thermal Free Energies=        -1447.041094

                     E (Thermal)             CV                S
                      KCal/Mol        Cal/Mol-Kelvin    Cal/Mol-Kelvin
 Total                  229.457             87.408            168.537
 Electronic               0.000              0.000              0.000
 Translational            0.889              2.981             43.410
 Rotational               0.889              2.981             35.647
 Vibrational            227.680             81.446             89.480
 Vibration     1          0.593              1.987              7.437
 Vibration     2          0.593              1.985              6.276
 Vibration     3          0.593              1.984              5.964
 Vibration     4          0.595              1.979              4.974
 Vibration     5          0.596              1.976              4.628
 Vibration     6          0.597              1.971              4.317
 Vibration     7          0.600              1.962              3.874
 Vibration     8          0.606              1.942              3.278
 Vibration     9          0.608              1.936              3.161
 Vibration    10          0.609              1.931              3.069
 Vibration    11          0.615              1.913              2.797
 Vibration    12          0.618              1.904              2.690
 Vibration    13          0.622              1.892              2.553
 Vibration    14          0.622              1.889              2.524
 Vibration    15          0.634              1.852              2.215
 Vibration    16          0.640              1.833              2.088
 Vibration    17          0.652              1.795              1.878
 Vibration    18          0.664              1.758              1.712
 Vibration    19          0.671              1.736              1.626
 Vibration    20          0.679              1.713              1.543
 Vibration    21          0.691              1.679              1.433
 Vibration    22          0.694              1.671              1.408
 Vibration    23          0.714              1.613              1.253
 Vibration    24          0.725              1.582              1.180
 Vibration    25          0.740              1.539              1.090
 Vibration    26          0.749              1.516              1.044
 Vibration    27          0.761              1.483              0.986
 Vibration    28          0.772              1.453              0.934
 Vibration    29          0.801              1.380              0.823
 Vibration    30          0.804              1.373              0.812
 Vibration    31          0.844              1.276              0.688
 Vibration    32          0.863              1.232              0.638
 Vibration    33          0.867              1.223              0.628
 Vibration    34          0.877              1.200              0.604
 Vibration    35          0.887              1.180              0.583
 Vibration    36          0.920              1.109              0.516
 Vibration    37          0.933              1.082              0.492
 Vibration    38          0.978              0.994              0.420

                           ! Non-Optimized Parameters !
 Normal termination of Gaussian 16 at Tue Mar  1 20:49:12 2022.

 ------------------------------------------
 #p b3lyp/6-31G(d) geom=allcheck guess=read
 ------------------------------------------

 Structure from the checkpoint file:  "293.n.pdb.xyz.mst.wat.chk"
 -------------
 293.n.pdb.xyz
 -------------
 Charge =  0 Multiplicity = 1

 SCF Done:  E(RB3LYP) =  -1447.30635053     A.U. after   12 cycles
 Normal termination of Gaussian 16 at Tue Mar  1 20:53:12 2022.
 Gaussian 16:  ES64L-G16RevA.03 25-Dec-2016

 ----------------------------------------------------------------------
 #p b3lyp/6-31G(d) scrf=(iefpcm,read,solvent=water) geom=allcheck guess
 =read
 ----------------------------------------------------------------------

 Structure from the checkpoint file:  "293.n.pdb.xyz.mst.wat.chk"
 -------------
 293.n.pdb.xyz
 -------------
 Charge =  0 Multiplicity = 1

                         Standard orientation:
 ---------------------------------------------------------------------
 Center     Atomic      Atomic             Coordinates (Angstroms)
 Number     Number       Type             X           Y           Z
 ---------------------------------------------------------------------
      1          6           0        8.049002    0.373097    0.918968
      2          8           0        6.852507    1.112035    0.696979
      3          6           0        5.724122    0.418449    0.352287
      4          6           0        5.696078   -0.989462    0.220215
      5          6           0        4.526485   -1.658009   -0.130886
      6          6           0        3.386972   -0.886990   -0.345977
      7          7           0        2.084753   -1.200968   -0.696678
      8          6           0        1.415259   -0.020311   -0.753827
      9          7           0        2.140211    1.042557   -0.489794
     10          6           0        3.402994    0.525018   -0.217048
     11          6           0        4.581375    1.189283    0.135682
     12         16           0       -0.318914    0.025875   -1.251729
     13          8           0       -0.710236   -1.424320   -1.507472
     14          6           0       -0.986853    0.532180    0.412818
     15          6           0       -2.477150    0.705364    0.335068
     16          7           0       -2.893633    1.885054   -0.153620
     17          6           0       -4.210040    2.094028   -0.250376
     18          6           0       -5.185413    1.162561    0.107741
     19          6           0       -6.650802    1.475557   -0.009479
     20          6           0       -4.724537   -0.067002    0.597586
     21          8           0       -5.650038   -1.001782    1.002375
     22          6           0       -5.941472   -2.018833    0.030632
     23          6           0       -3.351401   -0.322714    0.732240
     24          6           0       -2.857871   -1.627425    1.304331
     25          1           0        8.364494   -0.158274    0.014559
     26          1           0        7.927943   -0.346927    1.733851
     27          1           0        8.806585    1.106794    1.191991
     28          1           0        6.597140   -1.561983    0.395630
     29          1           0        4.512956   -2.736997   -0.229463
     30          1           0        1.689349   -2.118238   -0.871993
     31          1           0        4.620700    2.267081    0.241437
     32          1           0       -0.676012   -0.231598    1.125693
     33          1           0       -0.488992    1.479049    0.629737
     34          1           0       -4.518936    3.063312   -0.636309
     35          1           0       -6.789991    2.493611   -0.378676
     36          1           0       -7.155012    1.387468    0.959050
     37          1           0       -7.158415    0.792721   -0.698287
     38          1           0       -6.305115   -1.576813   -0.902915
     39          1           0       -5.056587   -2.628432   -0.175781
     40          1           0       -6.720226   -2.643051    0.468511
     41          1           0       -3.698698   -2.232946    1.641700
     42          1           0       -2.197873   -1.455969    2.160974
     43          1           0       -2.288337   -2.195512    0.563701
 ---------------------------------------------------------------------

 SCF Done:  E(RB3LYP) =  -1447.32600338     A.U. after   11 cycles

 The electronic state is 1-A.
 Alpha  occ. eigenvalues --  -89.00841 -19.17850 -19.17348 -19.13078 -14.39766
 Alpha  occ. eigenvalues --  -14.33621 -14.33606 -10.27923 -10.25638 -10.25187
 Alpha  occ. eigenvalues --  -10.23753 -10.23513 -10.23312 -10.23008 -10.22442
 Alpha  occ. eigenvalues --  -10.22290 -10.22256 -10.21052 -10.20602 -10.20277
 Alpha  occ. eigenvalues --  -10.19443 -10.19010 -10.18528 -10.18393  -8.05529
 Alpha  occ. eigenvalues --   -6.01956  -6.01819  -6.01254  -1.06302  -1.05960
 Alpha  occ. eigenvalues --   -1.03807  -1.01451  -0.94880  -0.89212  -0.85145
 Alpha  occ. eigenvalues --   -0.81823  -0.81472  -0.78236  -0.76058  -0.74598
 Alpha  occ. eigenvalues --   -0.71889  -0.70744  -0.69375  -0.68473  -0.66314
 Alpha  occ. eigenvalues --   -0.62930  -0.60758  -0.60275  -0.59873  -0.58279
 Alpha  occ. eigenvalues --   -0.55120  -0.52965  -0.52400  -0.51924  -0.50211
 Alpha  occ. eigenvalues --   -0.47495  -0.47192  -0.46870  -0.46482  -0.46210
 Alpha  occ. eigenvalues --   -0.45376  -0.44600  -0.44221  -0.43637  -0.43314
 Alpha  occ. eigenvalues --   -0.42967  -0.41821  -0.41363  -0.41183  -0.40655
 Alpha  occ. eigenvalues --   -0.40405  -0.39865  -0.38792  -0.38383  -0.38088
 Alpha  occ. eigenvalues --   -0.37567  -0.36726  -0.36127  -0.35551  -0.33352
 Alpha  occ. eigenvalues --   -0.31988  -0.30742  -0.30322  -0.28929  -0.28309
 Alpha  occ. eigenvalues --   -0.26865  -0.26469  -0.26168  -0.24742  -0.23027
 Alpha  occ. eigenvalues --   -0.21349
 Alpha virt. eigenvalues --   -0.04461  -0.02411  -0.01573   0.01588   0.02372
 Alpha virt. eigenvalues --    0.02623   0.05535   0.08546   0.08939   0.10412
 Alpha virt. eigenvalues --    0.10937   0.11666   0.11993   0.12290   0.12725

 Mulliken charges:
               1
     1  C   -0.227754
     2  O   -0.535779
     3  C    0.376289
     4  C   -0.233970
     5  C   -0.185190
     6  C    0.339210
     7  N   -0.672628
     8  C    0.228729
     9  N   -0.578763
    10  C    0.221101
    11  C   -0.267005
    12  S    0.823893
    13  O   -0.682663
    14  C   -0.546743
    15  C    0.224029
    16  N   -0.510522
    17  C   -0.039217
    18  C    0.141269
    19  C   -0.534233
    20  C    0.255815
    21  O   -0.540135
    22  C   -0.222434
    23  C    0.149198
    24  C   -0.565740
    25  H    0.166346
    26  H    0.166736
    27  H    0.179617
    28  H    0.164369
    29  H    0.169406
    30  H    0.406878
    31  H    0.151320
    32  H    0.220164
    33  H    0.225424
    34  H    0.154334
    35  H    0.169511
    36  H    0.177026
    37  H    0.176714
    38  H    0.166106
    39  H    0.163478
    40  H    0.179272
    41  H    0.179376
    42  H    0.178875
    43  H    0.188292
 Sum of Mulliken charges =  -0.00000

 Dipole moment (field-independent basis, Debye):
    X=             -0.0741    Y=             -5.5960    Z=              1.8171  Tot=              5.8841
 Quadrupole moment (field-independent basis, Debye-Ang):
   XX=            -93.4129   YY=           -141.6496   ZZ=           -150.9679
   XY=            -13.7831   XZ=              7.3001   YZ=             -0.9014

 Normal termination of Gaussian 16 at Tue Mar  1 20:57:59 2022.
