 Gaussian 16, Revision A.03,

 ----------------------------------------------------------------------
 #p b3lyp/6-31G(d) opt=(MaxStep=10,MaxCycles=1000) freq scf=(MaxCycle=2
 000,NoVarAcc,NoIncFock) scrf=(iefpcm,read,solvent=water)
 ----------------------------------------------------------------------

 -------------
 294.n.pdb.xyz
 -------------
 Symbolic Z-matrix:
 Charge =  0 Multiplicity = 1

 SCF Done:  E(RB3LYP) =  -1625.09593308     A.U. after   13 cycles
 SCF Done:  E(RB3LYP) =  -1625.10395275     A.U. after   11 cycles
 SCF Done:  E(RB3LYP) =  -1625.11249060     A.U. after   11 cycles
 SCF Done:  E(RB3LYP) =  -1625.11567960     A.U. after   11 cycles
 SCF Done:  E(RB3LYP) =  -1625.11675444     A.U. after   11 cycles
 SCF Done:  E(RB3LYP) =  -1625.11752467     A.U. after   11 cycles
 SCF Done:  E(RB3LYP) =  -1625.11801829     A.U. after   11 cycles
 SCF Done:  E(RB3LYP) =  -1625.11879634     A.U. after   10 cycles
 SCF Done:  E(RB3LYP) =  -1625.11910577     A.U. after   11 cycles
 SCF Done:  E(RB3LYP) =  -1625.11957599     A.U. after   11 cycles
 SCF Done:  E(RB3LYP) =  -1625.12088468     A.U. after    8 cycles
 SCF Done:  E(RB3LYP) =  -1625.12089468     A.U. after    9 cycles
 SCF Done:  E(RB3LYP) =  -1625.12089804     A.U. after    7 cycles
 SCF Done:  E(RB3LYP) =  -1625.12090199     A.U. after    8 cycles
 SCF Done:  E(RB3LYP) =  -1625.12090700     A.U. after    8 cycles
 SCF Done:  E(RB3LYP) =  -1625.12090650     A.U. after    7 cycles
 SCF Done:  E(RB3LYP) =  -1625.12090657     A.U. after    8 cycles
 Optimization completed.
    -- Stationary point found.
 Normal termination of Gaussian 16 at Tue Mar  1 22:30:33 2022.

 --------------------------------------------------------------------
 #P Geom=AllCheck Guess=TCheck SCRF=Check GenChk RB3LYP/6-31G(d) Freq
 --------------------------------------------------------------------

 Structure from the checkpoint file:  "294.n.pdb.xyz.mst.wat.chk"
 -------------
 294.n.pdb.xyz
 -------------
 Charge =  0 Multiplicity = 1

 SCF Done:  E(RB3LYP) =  -1625.12090657     A.U. after    1 cycles

  Exact polarizability: 349.894  24.905 283.650  29.093 -10.633 162.073
 Approx polarizability: 348.490  24.757 342.770  30.980 -14.815 185.340

                      1                      2                      3
                      A                      A                      A
 Frequencies --     13.3591                15.6092                30.4884
 Red. masses --      8.1207                 6.4024                 6.3720
 Frc consts  --      0.0009                 0.0009                 0.0035
 IR Inten    --      3.7365                 6.9000                 8.4569

                      4                      5                      6
                      A                      A                      A
 Frequencies --     31.1466                49.0770                55.1783
 Red. masses --      5.4439                 4.6148                 6.3439
 Frc consts  --      0.0031                 0.0065                 0.0114
 IR Inten    --      4.9185                 4.6087                 5.7183

                      7                      8                      9
                      A                      A                      A
 Frequencies --     70.5211                79.6427                85.3134
 Red. masses --      4.5489                 4.9451                 5.1861
 Frc consts  --      0.0133                 0.0185                 0.0222
 IR Inten    --      1.4918                15.8011                10.1698

                     10                     11                     12
                      A                      A                      A
 Frequencies --     96.7121               110.0436               123.2864
 Red. masses --      2.9418                 3.2024                 1.4003
 Frc consts  --      0.0162                 0.0228                 0.0125
 IR Inten    --      5.6183                 8.3019                 0.3215

                     13                     14                     15
                      A                      A                      A
 Frequencies --    151.0794               156.8870               169.1721
 Red. masses --      5.3982                 4.6757                 5.3827
 Frc consts  --      0.0726                 0.0678                 0.0908
 IR Inten    --      6.1684                23.3705                 8.7942

                     16                     17                     18
                      A                      A                      A
 Frequencies --    209.2983               258.4755               260.0759
 Red. masses --      5.8730                 2.9570                 3.8801
 Frc consts  --      0.1516                 0.1164                 0.1546
 IR Inten    --      4.0322                 6.5767                 2.0361

                     19                     20                     21
                      A                      A                      A
 Frequencies --    283.8888               316.0476               321.9965
 Red. masses --      4.5649                 6.8956                 4.1568
 Frc consts  --      0.2168                 0.4058                 0.2539
 IR Inten    --      5.7756                 3.1987                10.2038

                     22                     23                     24
                      A                      A                      A
 Frequencies --    347.5651               365.4922               367.8071
 Red. masses --      1.1314                 4.7581                 5.0023
 Frc consts  --      0.0805                 0.3745                 0.3987
 IR Inten    --     55.7052                 3.1084                13.7613

                     25                     26                     27
                      A                      A                      A
 Frequencies --    404.0778               407.8132               471.9219
 Red. masses --      1.1146                 4.2881                 1.1659
 Frc consts  --      0.1072                 0.4202                 0.1530
 IR Inten    --      5.6063                 6.2264               114.3306

                     28                     29                     30
                      A                      A                      A
 Frequencies --    473.6048               527.2691               560.6102
 Red. masses --      1.2154                 5.1816                 5.6520
 Frc consts  --      0.1606                 0.8487                 1.0466
 IR Inten    --    339.3402                 2.7168                14.7164

                     31                     32                     33
                      A                      A                      A
 Frequencies --    563.4655               563.9242               580.1703
 Red. masses --      7.8333                 1.3958                 4.2041
 Frc consts  --      1.4653                 0.2615                 0.8337
 IR Inten    --     21.2430               457.0368                61.5941

                     34                     35                     36
                      A                      A                      A
 Frequencies --    582.6886               604.2222               658.7638
 Red. masses --      4.3985                 4.8860                 7.3571
 Frc consts  --      0.8799                 1.0510                 1.8811
 IR Inten    --     73.1603                24.0478                37.0804

                     37                     38                     39
                      A                      A                      A
 Frequencies --    666.0493               685.4297               708.2032
 Red. masses --      4.2534                 6.9656                 2.8547
 Frc consts  --      1.1117                 1.9281                 0.8436
 IR Inten    --      1.7443                15.4346                19.2446

                     40                     41                     42
                      A                      A                      A
 Frequencies --    714.1955               729.2648               749.1307
 Red. masses --      6.4953                 1.7924                 2.8398
 Frc consts  --      1.9520                 0.5616                 0.9390
 IR Inten    --     15.3842                35.1931                79.6882

                     43                     44                     45
                      A                      A                      A
 Frequencies --    761.7197               764.0449               792.7859
 Red. masses --      1.6004                 3.6208                 1.5725
 Frc consts  --      0.5471                 1.2453                 0.5823
 IR Inten    --    239.1126                11.3329                13.8402

                     46                     47                     48
                      A                      A                      A
 Frequencies --    795.8913               845.2334               860.9636
 Red. masses --      2.9273                 3.7625                 5.1001
 Frc consts  --      1.0925                 1.5837                 2.2274
 IR Inten    --      9.2368                13.7206                13.6989

                     49                     50                     51
                      A                      A                      A
 Frequencies --    918.3710               973.4695              1029.6560
 Red. masses --      1.6433                 5.1641                 1.9138
 Frc consts  --      0.8166                 2.8833                 1.1954
 IR Inten    --      4.1541                 3.0369                 6.9075

                     52                     53                     54
                      A                      A                      A
 Frequencies --   1040.5155              1056.8535              1064.8512
 Red. masses --      2.9894                 3.9345                 4.2870
 Frc consts  --      1.9069                 2.5892                 2.8640
 IR Inten    --     12.1429                21.9036                21.5662

                     55                     56                     57
                      A                      A                      A
 Frequencies --   1128.7502              1136.1621              1153.9314
 Red. masses --      1.7817                 1.7831                 1.1105
 Frc consts  --      1.3375                 1.3561                 0.8712
 IR Inten    --     41.6642               112.7785                11.6726

                     58                     59                     60
                      A                      A                      A
 Frequencies --   1157.7689              1168.7054              1183.1160
 Red. masses --      1.2875                 1.2675                 1.4993
 Frc consts  --      1.0168                 1.0200                 1.2365
 IR Inten    --      1.2419               189.2827                36.3897

                     61                     62                     63
                      A                      A                      A
 Frequencies --   1198.9703              1236.2628              1269.1754
 Red. masses --      1.5218                 2.0155                 1.2466
 Frc consts  --      1.2889                 1.8149                 1.1831
 IR Inten    --      0.5988                30.3015                64.6278

                     64                     65                     66
                      A                      A                      A
 Frequencies --   1301.4932              1308.8177              1318.0855
 Red. masses --      1.3976                 2.2672                 7.2401
 Frc consts  --      1.3948                 2.2883                 7.4111
 IR Inten    --     12.4757                11.2826               101.5387

                     67                     68                     69
                      A                      A                      A
 Frequencies --   1351.8491              1362.9306              1365.3792
 Red. masses --      1.3557                 1.7311                 2.9429
 Frc consts  --      1.4597                 1.8946                 3.2324
 IR Inten    --     11.4454               365.1893                 1.6252

                     70                     71                     72
                      A                      A                      A
 Frequencies --   1393.3293              1415.9885              1478.5283
 Red. masses --      1.7764                 1.3197                 1.2303
 Frc consts  --      2.0318                 1.5591                 1.5846
 IR Inten    --    451.3868                12.3327               101.6588

                     73                     74                     75
                      A                      A                      A
 Frequencies --   1490.7074              1499.5334              1509.9437
 Red. masses --      1.1179                 1.0949                 1.0471
 Frc consts  --      1.4636                 1.4506                 1.4065
 IR Inten    --     10.1176                36.5986                21.2293

                     76                     77                     78
                      A                      A                      A
 Frequencies --   1515.8693              1516.6109              1522.1305
 Red. masses --      1.1128                 3.9583                 1.0781
 Frc consts  --      1.5065                 5.3643                 1.4717
 IR Inten    --     49.6058                27.0911                 6.7819

                     79                     80                     81
                      A                      A                      A
 Frequencies --   1566.2549              1588.3780              1600.6124
 Red. masses --      2.0495                 6.2041                 3.3771
 Frc consts  --      2.9623                 9.2222                 5.0976
 IR Inten    --    705.0228               219.9204              1001.3500

                     82                     83                     84
                      A                      A                      A
 Frequencies --   1629.2480              1645.1426              1649.8017
 Red. masses --      2.6414                 1.9714                 1.1512
 Frc consts  --      4.1310                 3.1436                 1.8462
 IR Inten    --    940.2444               554.4272                55.4713

                     85                     86                     87
                      A                      A                      A
 Frequencies --   1702.0925              2267.3981              3082.3994
 Red. masses --      5.4021                12.5810                 1.0570
 Frc consts  --      9.2209                38.1083                 5.9168
 IR Inten    --    517.5227               943.2135                49.6384

                     88                     89                     90
                      A                      A                      A
 Frequencies --   3086.9258              3091.8092              3105.2120
 Red. masses --      1.0597                 1.0337                 1.0645
 Frc consts  --      5.9496                 5.8218                 6.0473
 IR Inten    --     18.0647                55.2052                40.9993

                     91                     92                     93
                      A                      A                      A
 Frequencies --   3135.6659              3150.3807              3158.8864
 Red. masses --      1.1074                 1.1064                 1.1048
 Frc consts  --      6.4152                 6.4698                 6.4953
 IR Inten    --     25.8269                10.8912                28.8430

                     94                     95                     96
                      A                      A                      A
 Frequencies --   3171.2150              3184.1299              3277.0955
 Red. masses --      1.1035                 1.1048                 1.0953
 Frc consts  --      6.5387                 6.5994                 6.9305
 IR Inten    --     17.8094                21.3715                 1.0842

                     97                     98                     99
                      A                      A                      A
 Frequencies --   3495.6405              3537.6110              3581.6368
 Red. masses --      1.0749                 1.0500                 1.0778
 Frc consts  --      7.7386                 7.7422                 8.1464
 IR Inten    --     13.9527                88.0088               188.1563

                    100                    101                    102
                      A                      A                      A
 Frequencies --   3598.5475              3610.4039              3640.6824
 Red. masses --      1.0787                 1.0783                 1.0993
 Frc consts  --      8.2300                 8.2813                 8.5848
 IR Inten    --     20.0344               287.9695                85.2940

 - Thermochemistry -
 -------------------
 Temperature   298.150 Kelvin.  Pressure   1.00000 Atm.
 Atom     1 has atomic number  6 and mass  12.00000

 Molecular mass:   312.09394 amu.
 Principal axes and moments of inertia in atomic units:
                           1         2         3
     Eigenvalues --  1961.32756********************
           X            0.99998  -0.00108   0.00587
           Y            0.00100   0.99991   0.01339
           Z           -0.00589  -0.01338   0.99989
 This molecule is an asymmetric top.
 Rotational symmetry number  1.
 Warning -- assumption of classical behavior for rotation
           may cause significant error
 Rotational temperatures (Kelvin)      0.04416     0.00335     0.00321
 Rotational constants (GHZ):           0.92016     0.06974     0.06683
 Zero-point vibrational energy     742070.7 (Joules/Mol)
                                  177.35915 (Kcal/Mol)
 Warning -- explicit consideration of  35 degrees of freedom as
           vibrations may cause significant error
 Vibrational temperatures:     19.22    22.46    43.87    44.81    70.61
          (Kelvin)             79.39   101.46   114.59   122.75   139.15
                              158.33   177.38   217.37   225.73   243.40
                              301.13   371.89   374.19   408.45   454.72
                              463.28   500.07   525.86   529.19   581.38
                              586.75   678.99   681.41   758.62   806.59
                              810.70   811.36   834.74   838.36   869.34
                              947.81   958.30   986.18  1018.95  1027.57
                             1049.25  1077.83  1095.94  1099.29  1140.64
                             1145.11  1216.10  1238.73  1321.33  1400.61
                             1481.45  1497.07  1520.58  1532.08  1624.02
                             1634.68  1660.25  1665.77  1681.51  1702.24
                             1725.05  1778.71  1826.06  1872.56  1883.10
                             1896.43  1945.01  1960.95  1964.48  2004.69
                             2037.29  2127.27  2144.80  2157.49  2172.47
                             2181.00  2182.06  2190.01  2253.49  2285.32
                             2302.92  2344.12  2366.99  2373.70  2448.93
                             3262.28  4434.89  4441.40  4448.42  4467.71
                             4511.52  4532.70  4544.93  4562.67  4581.25
                             4715.01  5029.45  5089.83  5153.18  5177.51
                             5194.57  5238.13

 Zero-point correction=                           0.282640 (Hartree/Particle)
 Thermal correction to Energy=                    0.304956
 Thermal correction to Enthalpy=                  0.305901
 Thermal correction to Gibbs Free Energy=         0.226064
 Sum of electronic and zero-point Energies=          -1624.838267
 Sum of electronic and thermal Energies=             -1624.815950
 Sum of electronic and thermal Enthalpies=           -1624.815006
 Sum of electronic and thermal Free Energies=        -1624.894843

                     E (Thermal)             CV                S
                      KCal/Mol        Cal/Mol-Kelvin    Cal/Mol-Kelvin
 Total                  191.363             79.135            168.031
 Electronic               0.000              0.000              0.000
 Translational            0.889              2.981             43.111
 Rotational               0.889              2.981             35.570
 Vibrational            189.586             73.173             89.350
 Vibration     1          0.593              1.987              7.436
 Vibration     2          0.593              1.986              7.126
 Vibration     3          0.594              1.984              5.797
 Vibration     4          0.594              1.983              5.755
 Vibration     5          0.595              1.978              4.854
 Vibration     6          0.596              1.976              4.623
 Vibration     7          0.598              1.968              4.139
 Vibration     8          0.600              1.963              3.900
 Vibration     9          0.601              1.959              3.765
 Vibration    10          0.603              1.952              3.520
 Vibration    11          0.606              1.941              3.268
 Vibration    12          0.610              1.930              3.048
 Vibration    13          0.618              1.901              2.659
 Vibration    14          0.621              1.895              2.587
 Vibration    15          0.625              1.880              2.445
 Vibration    16          0.642              1.827              2.050
 Vibration    17          0.667              1.748              1.672
 Vibration    18          0.668              1.746              1.661
 Vibration    19          0.682              1.704              1.510
 Vibration    20          0.703              1.643              1.330
 Vibration    21          0.707              1.631              1.300
 Vibration    22          0.725              1.580              1.177
 Vibration    23          0.739              1.543              1.099
 Vibration    24          0.740              1.538              1.089
 Vibration    25          0.769              1.461              0.948
 Vibration    26          0.772              1.453              0.934
 Vibration    27          0.829              1.312              0.732
 Vibration    28          0.830              1.309              0.728
 Vibration    29          0.882              1.190              0.593
 Vibration    30          0.916              1.117              0.523
 Vibration    31          0.919              1.110              0.517
 Vibration    32          0.920              1.109              0.516
 Vibration    33          0.937              1.074              0.485
 Vibration    34          0.940              1.069              0.480
 Vibration    35          0.963              1.023              0.442

                           ! Non-Optimized Parameters !
 Normal termination of Gaussian 16 at Tue Mar  1 22:58:29 2022.

 ------------------------------------------
 #p b3lyp/6-31G(d) geom=allcheck guess=read
 ------------------------------------------

 Structure from the checkpoint file:  "294.n.pdb.xyz.mst.wat.chk"
 -------------
 294.n.pdb.xyz
 -------------
 Charge =  0 Multiplicity = 1

 SCF Done:  E(RB3LYP) =  -1625.05402134     A.U. after   13 cycles
 Normal termination of Gaussian 16 at Tue Mar  1 23:00:48 2022.
 Gaussian 16:  ES64L-G16RevA.03 25-Dec-2016

 ----------------------------------------------------------------------
 #p b3lyp/6-31G(d) scrf=(iefpcm,read,solvent=water) geom=allcheck guess
 =read
 ----------------------------------------------------------------------

 Structure from the checkpoint file:  "294.n.pdb.xyz.mst.wat.chk"
 -------------
 294.n.pdb.xyz
 -------------
 Charge =  0 Multiplicity = 1

                         Standard orientation:
 ---------------------------------------------------------------------
 Center     Atomic      Atomic             Coordinates (Angstroms)
 Number     Number       Type             X           Y           Z
 ---------------------------------------------------------------------
      1          6           0       -7.614911    0.418586   -0.690147
      2          7           0       -6.261049    0.949546   -0.779895
      3          6           0       -5.241380    0.656941    0.053126
      4          7           0       -4.189859    1.510370    0.042453
      5          6           0       -2.891654    1.211097    0.625730
      6          6           0       -1.954945    0.529121   -0.378508
      7         16           0       -0.323752    0.220714    0.407404
      8          6           0        0.604868   -0.408685   -1.063953
      9          6           0        2.042548   -0.639246   -0.719764
     10          6           0        2.639041   -1.857102   -0.595504
     11         16           0        4.329857   -1.677262   -0.192483
     12          6           0        4.083891    0.068704   -0.214738
     13          7           0        5.073986    0.981923    0.041280
     14          6           0        6.393871    0.706749    0.381167
     15          7           0        7.154240    1.845132    0.561356
     16          7           0        6.793392   -0.517277    0.433190
     17          7           0        2.865552    0.453491   -0.501991
     18          7           0       -5.188846   -0.367917    0.903959
     19          6           0       -5.996070   -1.396226    0.880987
     20          7           0       -6.618933   -2.391535    0.974928
     21          1           0       -7.720638   -0.532936   -1.214873
     22          1           0       -7.907054    0.278085    0.351454
     23          1           0       -8.288050    1.145466   -1.144956
     24          1           0       -6.119201    1.724933   -1.416429
     25          1           0       -4.240278    2.306294   -0.581863
     26          1           0       -2.455669    2.152426    0.968537
     27          1           0       -3.052338    0.573346    1.494757
     28          1           0       -1.808031    1.169910   -1.252432
     29          1           0       -2.386236   -0.419210   -0.709113
     30          1           0        0.139854   -1.335774   -1.402547
     31          1           0        0.517316    0.340242   -1.855664
     32          1           0        2.197975   -2.836630   -0.717020
     33          1           0        4.784069    1.952092   -0.024218
     34          1           0        6.657225    2.668494    0.888185
     35          1           0        8.016748    1.686932    1.070749
     36          1           0        7.775693   -0.554670    0.709363
 ---------------------------------------------------------------------

 SCF Done:  E(RB3LYP) =  -1625.11724047     A.U. after   12 cycles

 The electronic state is 1-A.
 Alpha  occ. eigenvalues --  -88.91285 -88.87393 -14.37935 -14.37099 -14.36822
 Alpha  occ. eigenvalues --  -14.34383 -14.33531 -14.32749 -14.30142 -14.29438
 Alpha  occ. eigenvalues --  -10.32266 -10.29683 -10.28992 -10.24150 -10.22987
 Alpha  occ. eigenvalues --  -10.22597 -10.22057 -10.21981 -10.21546 -10.20489
 Alpha  occ. eigenvalues --   -7.97260  -7.93520  -5.93683  -5.93312  -5.92935
 Alpha  occ. eigenvalues --   -5.90036  -5.89680  -5.88972  -1.01337  -1.00645
 Alpha  occ. eigenvalues --   -0.95829  -0.92183  -0.91475  -0.89412  -0.85847
 Alpha  occ. eigenvalues --   -0.84872  -0.81228  -0.79219  -0.77212  -0.72985
 Alpha  occ. eigenvalues --   -0.69914  -0.66271  -0.65104  -0.63804  -0.60098
 Alpha  occ. eigenvalues --   -0.57926  -0.57419  -0.56398  -0.53791  -0.52411
 Alpha  occ. eigenvalues --   -0.51367  -0.49647  -0.48444  -0.47019  -0.46053
 Alpha  occ. eigenvalues --   -0.45434  -0.45155  -0.44575  -0.44008  -0.42455
 Alpha  occ. eigenvalues --   -0.41561  -0.40718  -0.40592  -0.40024  -0.39158
 Alpha  occ. eigenvalues --   -0.38107  -0.37680  -0.36601  -0.35577  -0.35201
 Alpha  occ. eigenvalues --   -0.34138  -0.32096  -0.30616  -0.28395  -0.27801
 Alpha  occ. eigenvalues --   -0.27196  -0.26281  -0.25180  -0.24275  -0.23439
 Alpha  occ. eigenvalues --   -0.22769  -0.21186
 Alpha virt. eigenvalues --   -0.01350   0.00678   0.02062   0.03476   0.04023
 Alpha virt. eigenvalues --    0.06460   0.07039   0.07782   0.08361   0.09572
 Alpha virt. eigenvalues --    0.11082   0.11849   0.11984   0.12380   0.13167

 Mulliken charges:
               1
     1  C   -0.315906
     2  N   -0.610091
     3  C    0.747133
     4  N   -0.623028
     5  C   -0.141386
     6  C   -0.408129
     7  S    0.033908
     8  C   -0.476268
     9  C    0.310069
    10  C   -0.418939
    11  S    0.253222
    12  C    0.320788
    13  N   -0.655268
    14  C    0.634573
    15  N   -0.793111
    16  N   -0.729995
    17  N   -0.538561
    18  N   -0.600530
    19  C    0.460578
    20  N   -0.636709
    21  H    0.183260
    22  H    0.188696
    23  H    0.186880
    24  H    0.400871
    25  H    0.396578
    26  H    0.180100
    27  H    0.192295
    28  H    0.187915
    29  H    0.189710
    30  H    0.197353
    31  H    0.196766
    32  H    0.193437
    33  H    0.401269
    34  H    0.382460
    35  H    0.382617
    36  H    0.327442
 Sum of Mulliken charges =  -0.00000

 Dipole moment (field-independent basis, Debye):
    X=              4.7768    Y=             14.1824    Z=             -5.1502  Tot=             15.8267
 Quadrupole moment (field-independent basis, Debye-Ang):
   XX=           -104.6079   YY=           -126.2099   ZZ=           -130.8670
   XY=            -32.5603   XZ=             52.5976   YZ=              7.5145

 Normal termination of Gaussian 16 at Tue Mar  1 23:03:39 2022.
