 Gaussian 16, Revision A.03,

 ----------------------------------------------------------------------
 #p b3lyp/6-31G(d) opt=(MaxStep=10,MaxCycles=1000) freq scf=(MaxCycle=2
 000,NoVarAcc,NoIncFock) scrf=(iefpcm,read,solvent=water)
 ----------------------------------------------------------------------

 -------------
 295.n.pdb.xyz
 -------------
 Symbolic Z-matrix:
 Charge =  0 Multiplicity = 1

 SCF Done:  E(RB3LYP) =  -810.935491699     A.U. after   13 cycles
 SCF Done:  E(RB3LYP) =  -810.938895435     A.U. after   11 cycles
 SCF Done:  E(RB3LYP) =  -810.940055971     A.U. after   11 cycles
 SCF Done:  E(RB3LYP) =  -810.940216864     A.U. after    8 cycles
 SCF Done:  E(RB3LYP) =  -810.940239263     A.U. after    9 cycles
 SCF Done:  E(RB3LYP) =  -810.940239392     A.U. after    8 cycles
 Optimization completed.
    -- Stationary point found.
 Normal termination of Gaussian 16 at Tue Mar  1 21:16:04 2022.

 --------------------------------------------------------------------
 #P Geom=AllCheck Guess=TCheck SCRF=Check GenChk RB3LYP/6-31G(d) Freq
 --------------------------------------------------------------------

 Structure from the checkpoint file:  "295.n.pdb.xyz.mst.wat.chk"
 -------------
 295.n.pdb.xyz
 -------------
 Charge =  0 Multiplicity = 1

 SCF Done:  E(RB3LYP) =  -810.940239392     A.U. after    1 cycles

  Exact polarizability: 225.509 -10.945 193.879  -0.044  -0.011  83.784
 Approx polarizability: 241.621   1.489 226.200  -0.064  -0.018  95.402

 ******    2 imaginary frequencies (negative Signs) ******

                      1                      2                      3
                      A                      A                      A
 Frequencies --   -275.7456               -56.0357                12.2333
 Red. masses --      1.2706                 2.7711                 6.8448
 Frc consts  --      0.0569                 0.0051                 0.0006
 IR Inten    --    370.7280                 2.6131                 1.6795

                      4                      5                      6
                      A                      A                      A
 Frequencies --     54.6111                57.9235                93.7319
 Red. masses --      2.9426                 3.6671                 3.6814
 Frc consts  --      0.0052                 0.0072                 0.0191
 IR Inten    --     18.4840                12.5535                31.5733

                      7                      8                      9
                      A                      A                      A
 Frequencies --    116.9303               146.2693               159.5050
 Red. masses --      3.4416                 5.2216                 4.9134
 Frc consts  --      0.0277                 0.0658                 0.0737
 IR Inten    --     12.5565                 9.3228                 1.2826

                     10                     11                     12
                      A                      A                      A
 Frequencies --    188.2423               222.8351               229.8305
 Red. masses --      6.8242                 1.0789                 8.1724
 Frc consts  --      0.1425                 0.0316                 0.2543
 IR Inten    --      2.2288               181.0428                 0.8699

                     13                     14                     15
                      A                      A                      A
 Frequencies --    241.6034               329.3527               356.2059
 Red. masses --      5.0181                 6.7419                 3.9324
 Frc consts  --      0.1726                 0.4309                 0.2940
 IR Inten    --      0.6422                19.7217                 9.2066

                     16                     17                     18
                      A                      A                      A
 Frequencies --    357.2758               410.2144               479.7936
 Red. masses --      7.0953                 4.0754                 6.5690
 Frc consts  --      0.5336                 0.4041                 0.8910
 IR Inten    --     14.1339                 2.2130                 3.6136

                     19                     20                     21
                      A                      A                      A
 Frequencies --    492.1780               492.5926               583.8866
 Red. masses --      8.5513                 1.0423                 8.1034
 Frc consts  --      1.2205                 0.1490                 1.6277
 IR Inten    --      2.9016                64.2339                 5.0163

                     22                     23                     24
                      A                      A                      A
 Frequencies --    613.0107               648.8513               676.7877
 Red. masses --      1.1702                 4.3174                 4.9681
 Frc consts  --      0.2591                 1.0709                 1.3407
 IR Inten    --     85.3890                48.4947                28.1938

                     25                     26                     27
                      A                      A                      A
 Frequencies --    694.3323               702.8081               728.8242
 Red. masses --      8.7997                 6.8510                 7.9007
 Frc consts  --      2.4995                 1.9938                 2.4726
 IR Inten    --     25.4938                37.9600                 0.3364

                     28                     29                     30
                      A                      A                      A
 Frequencies --    757.8693               772.6695               833.8103
 Red. masses --      4.7552                10.4297                 1.0890
 Frc consts  --      1.6092                 3.6687                 0.4461
 IR Inten    --     33.9578                26.6674                 0.4934

                     31                     32                     33
                      A                      A                      A
 Frequencies --    836.3618               863.0640              1027.1710
 Red. masses --      1.3821                 8.5584                 3.5189
 Frc consts  --      0.5696                 3.7560                 2.1874
 IR Inten    --     10.6030                 8.0330                53.0407

                     34                     35                     36
                      A                      A                      A
 Frequencies --   1040.5368              1054.0585              1085.2216
 Red. masses --      2.9661                 3.9763                 3.9211
 Frc consts  --      1.8921                 2.6029                 2.7208
 IR Inten    --     11.3981               135.8996                62.9993

                     37                     38                     39
                      A                      A                      A
 Frequencies --   1095.8789              1100.6502              1126.3870
 Red. masses --      4.7812                 2.2751                 1.4796
 Frc consts  --      3.3831                 1.6238                 1.1060
 IR Inten    --     40.7761                11.8759                14.4519

                     40                     41                     42
                      A                      A                      A
 Frequencies --   1169.6012              1179.7010              1182.6411
 Red. masses --      5.0872                 1.5551                 6.4079
 Frc consts  --      4.1002                 1.2751                 5.2805
 IR Inten    --    193.9748                 1.3625               308.2637

                     43                     44                     45
                      A                      A                      A
 Frequencies --   1234.7234              1240.9351              1245.7895
 Red. masses --      1.2027                 2.0160                 1.0920
 Frc consts  --      1.0803                 1.8291                 0.9985
 IR Inten    --     14.0814                52.1199                 5.9443

                     46                     47                     48
                      A                      A                      A
 Frequencies --   1256.1806              1284.4643              1303.0825
 Red. masses --      1.2746                 2.6128                 1.0986
 Frc consts  --      1.1850                 2.5398                 1.0990
 IR Inten    --    131.9673                12.7156                 0.6915

                     49                     50                     51
                      A                      A                      A
 Frequencies --   1352.1903              1385.8966              1392.3910
 Red. masses --      5.5380                 1.8436                 1.6146
 Frc consts  --      5.9659                 2.0863                 1.8443
 IR Inten    --     60.0652               171.5057                68.3265

                     52                     53                     54
                      A                      A                      A
 Frequencies --   1399.2063              1449.8195              1455.6792
 Red. masses --      3.6684                 3.3206                 1.9821
 Frc consts  --      4.2314                 4.1124                 2.4746
 IR Inten    --    117.2016               138.1372                62.3694

                     55                     56                     57
                      A                      A                      A
 Frequencies --   1494.2547              1525.1353              1541.4797
 Red. masses --      1.6094                 4.4819                 1.1206
 Frc consts  --      2.1172                 6.1423                 1.5689
 IR Inten    --      6.2929                37.4782                 7.5119

                     58                     59                     60
                      A                      A                      A
 Frequencies --   1554.8646              1562.5211              1583.9742
 Red. masses --      1.2585                 1.1888                 2.5379
 Frc consts  --      1.7926                 1.7101                 3.7516
 IR Inten    --     41.1902                67.1720               143.3728

                     61                     62                     63
                      A                      A                      A
 Frequencies --   1599.7536              1608.7936              1657.7945
 Red. masses --      3.5184                 2.6407                 1.9742
 Frc consts  --      5.3051                 4.0268                 3.1967
 IR Inten    --     85.2583               777.0352              1090.2879

                     64                     65                     66
                      A                      A                      A
 Frequencies --   1747.7554              3022.4455              3024.4155
 Red. masses --      8.9450                 1.0535                 1.0543
 Frc consts  --     16.0987                 5.6705                 5.6821
 IR Inten    --   1343.5315                46.1818                30.8480

                     67                     68                     69
                      A                      A                      A
 Frequencies --   3031.1231              3051.5257              3059.3915
 Red. masses --      1.0545                 1.1068                 1.1108
 Frc consts  --      5.7082                 6.0722                 6.1259
 IR Inten    --    133.7561                 3.1645               122.1687

                     70                     71                     72
                      A                      A                      A
 Frequencies --   3076.2376              3317.8105              3570.4123
 Red. masses --      1.1113                 1.0968                 1.0786
 Frc consts  --      6.1962                 7.1132                 8.1014
 IR Inten    --    132.2669                 1.4919               143.5539

                     73                     74                     75
                      A                      A                      A
 Frequencies --   3596.9808              3715.6752              3746.4850
 Red. masses --      1.0460                 1.1080                 1.0668
 Frc consts  --      7.9740                 9.0127                 8.8221
 IR Inten    --    325.8736               160.0584                98.9504

 - Thermochemistry -
 -------------------
 Temperature   298.150 Kelvin.  Pressure   1.00000 Atm.
 Atom     1 has atomic number  7 and mass  14.00307

 Molecular mass:   225.08619 amu.
 Principal axes and moments of inertia in atomic units:
                           1         2         3
     Eigenvalues --  1393.020048197.938689556.79992
           X            0.99993  -0.01206  -0.00000
           Y            0.01206   0.99993   0.00001
           Z            0.00000  -0.00001   1.00000
 This molecule is an asymmetric top.
 Rotational symmetry number  1.
 Warning -- assumption of classical behavior for rotation
           may cause significant error
 Rotational temperatures (Kelvin)      0.06218     0.01057     0.00906
 Rotational constants (GHZ):           1.29556     0.22015     0.18884
    2 imaginary frequencies ignored.
 Zero-point vibrational energy     552104.3 (Joules/Mol)
                                  131.95611 (Kcal/Mol)
 Warning -- explicit consideration of  20 degrees of freedom as
           vibrations may cause significant error
 Vibrational temperatures:     17.60    78.57    83.34   134.86   168.24
          (Kelvin)            210.45   229.49   270.84   320.61   330.67
                              347.61   473.87   512.50   514.04   590.21
                              690.32   708.13   708.73   840.08   881.99
                              933.55   973.75   998.99  1011.18  1048.62
                             1090.40  1111.70  1199.67  1203.34  1241.76
                             1477.87  1497.10  1516.56  1561.39  1576.73
                             1583.59  1620.62  1682.80  1697.33  1701.56
                             1776.49  1785.43  1792.41  1807.36  1848.06
                             1874.85  1945.50  1994.00  2003.34  2013.15
                             2085.97  2094.40  2149.90  2194.33  2217.85
                             2237.10  2248.12  2278.99  2301.69  2314.70
                             2385.20  2514.63  4348.62  4351.46  4361.11
                             4390.46  4401.78  4426.02  4773.59  5137.03
                             5175.25  5346.03  5390.36

 Zero-point correction=                           0.210285 (Hartree/Particle)
 Thermal correction to Energy=                    0.224307
 Thermal correction to Enthalpy=                  0.225251
 Thermal correction to Gibbs Free Energy=         0.166873
 Sum of electronic and zero-point Energies=           -810.729954
 Sum of electronic and thermal Energies=              -810.715932
 Sum of electronic and thermal Enthalpies=            -810.714988
 Sum of electronic and thermal Free Energies=         -810.773366

                     E (Thermal)             CV                S
                      KCal/Mol        Cal/Mol-Kelvin    Cal/Mol-Kelvin
 Total                  140.755             51.297            122.867
 Electronic               0.000              0.000              0.000
 Translational            0.889              2.981             42.136
 Rotational               0.889              2.981             33.056
 Vibrational            138.977             45.335             47.675
 Vibration     1          0.593              1.987              7.611
 Vibration     2          0.596              1.976              4.643
 Vibration     3          0.596              1.974              4.527
 Vibration     4          0.603              1.954              3.581
 Vibration     5          0.608              1.935              3.150
 Vibration     6          0.617              1.907              2.720
 Vibration     7          0.621              1.892              2.556
 Vibration     8          0.633              1.856              2.245
 Vibration     9          0.649              1.806              1.936
 Vibration    10          0.652              1.795              1.880
 Vibration    11          0.658              1.777              1.791
 Vibration    12          0.712              1.617              1.263
 Vibration    13          0.732              1.563              1.139
 Vibration    14          0.732              1.560              1.134
 Vibration    15          0.774              1.448              0.926
 Vibration    16          0.836              1.295              0.711
 Vibration    17          0.848              1.267              0.678
 Vibration    18          0.848              1.266              0.677
 Vibration    19          0.941              1.066              0.478
 Vibration    20          0.972              1.004              0.428

                           ! Non-Optimized Parameters !
 Normal termination of Gaussian 16 at Tue Mar  1 21:33:01 2022.

 ------------------------------------------
 #p b3lyp/6-31G(d) geom=allcheck guess=read
 ------------------------------------------

 Structure from the checkpoint file:  "295.n.pdb.xyz.mst.wat.chk"
 -------------
 295.n.pdb.xyz
 -------------
 Charge =  0 Multiplicity = 1

 SCF Done:  E(RB3LYP) =  -810.893229738     A.U. after   12 cycles
 Normal termination of Gaussian 16 at Tue Mar  1 21:34:30 2022.
 Gaussian 16:  ES64L-G16RevA.03 25-Dec-2016

 ----------------------------------------------------------------------
 #p b3lyp/6-31G(d) scrf=(iefpcm,read,solvent=water) geom=allcheck guess
 =read
 ----------------------------------------------------------------------

 Structure from the checkpoint file:  "295.n.pdb.xyz.mst.wat.chk"
 -------------
 295.n.pdb.xyz
 -------------
 Charge =  0 Multiplicity = 1

                         Standard orientation:
 ---------------------------------------------------------------------
 Center     Atomic      Atomic             Coordinates (Angstroms)
 Number     Number       Type             X           Y           Z
 ---------------------------------------------------------------------
      1          7           0       -3.432901    2.631943    0.000435
      2          6           0       -2.816280    1.437228    0.000013
      3          7           0       -1.489749    1.374202   -0.000562
      4          6           0       -1.030143    0.103923   -0.000540
      5          6           0       -1.751356   -1.090293   -0.000146
      6          7           0       -0.896787   -2.181127    0.000438
      7          6           0        0.304946   -1.652516   -0.000946
      8          7           0        0.288828   -0.271917   -0.000783
      9          6           0        1.426896    0.634270   -0.001077
     10          8           0        2.582269   -0.155306   -0.002034
     11          6           0        3.769277    0.631633    0.000514
     12          6           0        4.954412   -0.319182   -0.000204
     13          8           0        6.123618    0.487419    0.002283
     14          6           0       -3.180342   -1.025685    0.000035
     15          8           0       -4.001488   -1.947168    0.001383
     16          7           0       -3.619264    0.318829    0.000443
     17          1           0       -2.872300    3.473836    0.000055
     18          1           0       -4.440217    2.712066    0.000710
     19          1           0        1.237092   -2.193808   -0.001225
     20          1           0        1.375801    1.274482   -0.891939
     21          1           0        1.377047    1.273637    0.890294
     22          1           0        3.801578    1.276840   -0.887533
     23          1           0        3.799815    1.273579    0.891040
     24          1           0        4.904193   -0.962423   -0.888984
     25          1           0        4.902699   -0.965852    0.886120
     26          1           0        6.891572   -0.107678    0.001583
     27          1           0       -4.627817    0.445980    0.001143
 ---------------------------------------------------------------------

 SCF Done:  E(RB3LYP) =  -810.938554617     A.U. after   12 cycles

 The electronic state is 1-A.
 Alpha  occ. eigenvalues --  -19.17390 -19.14422 -19.11715 -14.39838 -14.38450
 Alpha  occ. eigenvalues --  -14.35694 -14.32859 -14.32847 -10.31651 -10.29752
 Alpha  occ. eigenvalues --  -10.28640 -10.25951 -10.24960 -10.23863 -10.23171
 Alpha  occ. eigenvalues --  -10.20329  -1.07100  -1.04490  -1.02243  -1.01480
 Alpha  occ. eigenvalues --   -0.99814  -0.90655  -0.90201  -0.88601  -0.76776
 Alpha  occ. eigenvalues --   -0.75276  -0.69852  -0.67183  -0.65326  -0.61491
 Alpha  occ. eigenvalues --   -0.59317  -0.56644  -0.55134  -0.53780  -0.51958
 Alpha  occ. eigenvalues --   -0.51718  -0.50218  -0.48252  -0.47971  -0.47549
 Alpha  occ. eigenvalues --   -0.45817  -0.45096  -0.43083  -0.42360  -0.41627
 Alpha  occ. eigenvalues --   -0.40911  -0.39099  -0.38160  -0.36160  -0.33230
 Alpha  occ. eigenvalues --   -0.31724  -0.31010  -0.28359  -0.27697  -0.27633
 Alpha  occ. eigenvalues --   -0.27150  -0.26668  -0.26418  -0.20463
 Alpha virt. eigenvalues --   -0.00625   0.00555   0.04807   0.07227   0.09173
 Alpha virt. eigenvalues --    0.09484   0.12242   0.13035   0.14646   0.14863
 Alpha virt. eigenvalues --    0.15176   0.15993   0.16214   0.17274   0.17407

 Mulliken charges:
               1
     1  N   -0.804870
     2  C    0.759536
     3  N   -0.651191
     4  C    0.547233
     5  C    0.104816
     6  N   -0.582892
     7  C    0.211234
     8  N   -0.530974
     9  C    0.151861
    10  O   -0.507509
    11  C   -0.027887
    12  C   -0.041208
    13  O   -0.672345
    14  C    0.576725
    15  O   -0.605211
    16  N   -0.701486
    17  H    0.400276
    18  H    0.404361
    19  H    0.194548
    20  H    0.171293
    21  H    0.171286
    22  H    0.152265
    23  H    0.152277
    24  H    0.142220
    25  H    0.142196
    26  H    0.447404
    27  H    0.396041
 Sum of Mulliken charges =  -0.00000

 Dipole moment (field-independent basis, Debye):
    X=              1.9869    Y=              9.6789    Z=             -0.0042  Tot=              9.8807
 Quadrupole moment (field-independent basis, Debye-Ang):
   XX=            -59.1883   YY=            -95.3931   ZZ=            -92.1579
   XY=            -46.6979   XZ=             -0.0064   YZ=              0.0082

 Normal termination of Gaussian 16 at Tue Mar  1 21:36:18 2022.
