 Gaussian 16, Revision A.03,

 ----------------------------------------------------------------------
 #p b3lyp/6-31G(d) opt=(MaxStep=10,MaxCycles=1000) freq scf=(MaxCycle=2
 000,NoVarAcc,NoIncFock) scrf=(iefpcm,read,solvent=water)
 ----------------------------------------------------------------------

 -------------
 296.n.pdb.xyz
 -------------
 Symbolic Z-matrix:
 Charge =  0 Multiplicity = 1

 SCF Done:  E(RB3LYP) =  -1388.27370456     A.U. after   13 cycles
 SCF Done:  E(RB3LYP) =  -1388.27881927     A.U. after   11 cycles
 SCF Done:  E(RB3LYP) =  -1388.28099440     A.U. after   11 cycles
 SCF Done:  E(RB3LYP) =  -1388.28277686     A.U. after   11 cycles
 SCF Done:  E(RB3LYP) =  -1388.27719575     A.U. after   12 cycles
 SCF Done:  E(RB3LYP) =  -1388.28314268     A.U. after   11 cycles
 SCF Done:  E(RB3LYP) =  -1388.28329838     A.U. after   10 cycles
 SCF Done:  E(RB3LYP) =  -1388.28371015     A.U. after   12 cycles
 SCF Done:  E(RB3LYP) =  -1388.28396863     A.U. after   11 cycles
 SCF Done:  E(RB3LYP) =  -1388.28439340     A.U. after   11 cycles
 SCF Done:  E(RB3LYP) =  -1388.28889543     A.U. after    9 cycles
 SCF Done:  E(RB3LYP) =  -1388.28889725     A.U. after    8 cycles
 SCF Done:  E(RB3LYP) =  -1388.28889838     A.U. after    8 cycles
 SCF Done:  E(RB3LYP) =  -1388.28889940     A.U. after    8 cycles
 SCF Done:  E(RB3LYP) =  -1388.28889897     A.U. after    8 cycles
 SCF Done:  E(RB3LYP) =  -1388.28889958     A.U. after    7 cycles
 SCF Done:  E(RB3LYP) =  -1388.28889960     A.U. after    7 cycles
 Optimization completed.
    -- Stationary point found.
 Normal termination of Gaussian 16 at Wed Mar  2 02:59:29 2022.

 --------------------------------------------------------------------
 #P Geom=AllCheck Guess=TCheck SCRF=Check GenChk RB3LYP/6-31G(d) Freq
 --------------------------------------------------------------------

 Structure from the checkpoint file:  "296.n.pdb.xyz.mst.wat.chk"
 -------------
 296.n.pdb.xyz
 -------------
 Charge =  0 Multiplicity = 1

 SCF Done:  E(RB3LYP) =  -1388.28889960     A.U. after    1 cycles

  Exact polarizability: 363.946 -11.954 255.467 -46.482 -21.331 227.211
 Approx polarizability: 385.535 -11.344 293.712 -62.527 -29.271 270.484

                      1                      2                      3
                      A                      A                      A
 Frequencies --     10.3373                19.3387                24.1497
 Red. masses --      6.8835                 5.2631                 5.9456
 Frc consts  --      0.0004                 0.0012                 0.0020
 IR Inten    --      2.7064                 1.6864                 4.7759

                      4                      5                      6
                      A                      A                      A
 Frequencies --     34.0763                38.1583                50.5044
 Red. masses --      5.3970                 3.7781                 5.1861
 Frc consts  --      0.0037                 0.0032                 0.0078
 IR Inten    --      2.1305                 1.2007                 1.8381

                      7                      8                      9
                      A                      A                      A
 Frequencies --     69.8899                82.2772                98.0062
 Red. masses --      5.1380                 3.9479                 3.1740
 Frc consts  --      0.0148                 0.0157                 0.0180
 IR Inten    --      3.8183                 1.3205                 0.8237

                     10                     11                     12
                      A                      A                      A
 Frequencies --    111.1320               120.2387               164.2994
 Red. masses --      7.5817                 5.4845                 4.5074
 Frc consts  --      0.0552                 0.0467                 0.0717
 IR Inten    --      0.7601                 0.8132                 1.1684

                     13                     14                     15
                      A                      A                      A
 Frequencies --    182.8565               200.7138               221.4882
 Red. masses --      4.6155                 2.6195                 3.2477
 Frc consts  --      0.0909                 0.0622                 0.0939
 IR Inten    --      3.6662                 4.3688                 4.4639

                     16                     17                     18
                      A                      A                      A
 Frequencies --    241.1238               243.7625               256.8019
 Red. masses --      4.0268                 1.6050                 1.7761
 Frc consts  --      0.1379                 0.0562                 0.0690
 IR Inten    --     13.4506                 0.0605                 2.6320

                     19                     20                     21
                      A                      A                      A
 Frequencies --    263.3472               268.8272               286.7557
 Red. masses --      1.0549                 3.8072                 5.9285
 Frc consts  --      0.0431                 0.1621                 0.2872
 IR Inten    --      0.5418                 7.8129                 2.5125

                     22                     23                     24
                      A                      A                      A
 Frequencies --    321.7501               349.0428               361.7986
 Red. masses --      5.3442                 6.5725                 2.5655
 Frc consts  --      0.3260                 0.4718                 0.1979
 IR Inten    --      3.9771                 1.9906                 1.5794

                     25                     26                     27
                      A                      A                      A
 Frequencies --    372.0484               415.6023               449.8056
 Red. masses --      2.4817                 1.6887                 6.8489
 Frc consts  --      0.2024                 0.1719                 0.8164
 IR Inten    --      7.2416                 0.5899                29.1702

                     28                     29                     30
                      A                      A                      A
 Frequencies --    467.2790               477.9171               493.8268
 Red. masses --      3.8553                 6.1073                 1.2202
 Frc consts  --      0.4960                 0.8219                 0.1753
 IR Inten    --     13.7839                23.5170               283.0242

                     31                     32                     33
                      A                      A                      A
 Frequencies --    514.4008               605.7582               615.0960
 Red. masses --      1.1974                 2.9523                 5.4710
 Frc consts  --      0.1867                 0.6383                 1.2196
 IR Inten    --     30.7980                 0.5683                 7.0849

                     34                     35                     36
                      A                      A                      A
 Frequencies --    629.3105               631.8290               668.7011
 Red. masses --      4.6510                 4.4925                 2.4209
 Frc consts  --      1.0852                 1.0567                 0.6378
 IR Inten    --      6.7468                 1.7570                39.0054

                     37                     38                     39
                      A                      A                      A
 Frequencies --    699.0552               706.8855               727.8406
 Red. masses --      2.6938                 4.9567                 2.0531
 Frc consts  --      0.7756                 1.4593                 0.6408
 IR Inten    --     23.7968                12.7630                61.5050

                     40                     41                     42
                      A                      A                      A
 Frequencies --    732.6218               755.9993               758.5856
 Red. masses --      3.4473                 9.4396                 4.7175
 Frc consts  --      1.0901                 3.1787                 1.5995
 IR Inten    --      7.6020                15.8558                 6.6450

                     43                     44                     45
                      A                      A                      A
 Frequencies --    767.9049               783.0918               809.3789
 Red. masses --      4.0362                 1.9449                 1.6118
 Frc consts  --      1.4023                 0.7027                 0.6221
 IR Inten    --     44.7051                 4.1918                44.1331

                     46                     47                     48
                      A                      A                      A
 Frequencies --    825.7706               828.0386               855.5074
 Red. masses --      4.6349                 2.6437                 1.2525
 Frc consts  --      1.8621                 1.0680                 0.5401
 IR Inten    --     12.0764                31.2499                 2.3278

                     49                     50                     51
                      A                      A                      A
 Frequencies --    871.1635               884.6408               897.6496
 Red. masses --      1.4220                 1.7182                 4.2864
 Frc consts  --      0.6358                 0.7923                 2.0350
 IR Inten    --      0.1717                 4.4993                84.4834

                     52                     53                     54
                      A                      A                      A
 Frequencies --    943.5106               987.7969              1002.5414
 Red. masses --      1.9971                 5.0770                 4.1843
 Frc consts  --      1.0475                 2.9187                 2.4779
 IR Inten    --      4.4187                19.1908                17.8083

                     55                     56                     57
                      A                      A                      A
 Frequencies --   1024.8061              1040.8054              1044.1489
 Red. masses --      4.7977                 1.8607                 1.4987
 Frc consts  --      2.9687                 1.1876                 0.9627
 IR Inten    --      5.8752                 4.8297                72.6077

                     58                     59                     60
                      A                      A                      A
 Frequencies --   1047.7872              1057.5941              1068.7182
 Red. masses --      2.0853                 2.4840                 1.5951
 Frc consts  --      1.3488                 1.6370                 1.0734
 IR Inten    --     49.6912                20.1019                17.7452

                     61                     62                     63
                      A                      A                      A
 Frequencies --   1078.8803              1112.9912              1132.4657
 Red. masses --      1.5925                 1.7972                 1.2587
 Frc consts  --      1.0921                 1.3117                 0.9511
 IR Inten    --      6.7905               126.4645                12.7214

                     64                     65                     66
                      A                      A                      A
 Frequencies --   1139.7566              1166.3857              1171.2512
 Red. masses --      1.2550                 1.7556                 1.9850
 Frc consts  --      0.9605                 1.4072                 1.6044
 IR Inten    --     16.6731                31.9168               310.0735

                     67                     68                     69
                      A                      A                      A
 Frequencies --   1196.6283              1225.7303              1227.8072
 Red. masses --      1.4842                 2.2081                 1.7013
 Frc consts  --      1.2522                 1.9546                 1.5111
 IR Inten    --     14.2680                13.2129               120.9863

                     70                     71                     72
                      A                      A                      A
 Frequencies --   1252.6400              1253.6604              1272.3977
 Red. masses --      2.1352                 2.2826                 1.8394
 Frc consts  --      1.9740                 2.1137                 1.7545
 IR Inten    --     28.4347                40.1025                30.5335

                     73                     74                     75
                      A                      A                      A
 Frequencies --   1288.7779              1290.2149              1302.8726
 Red. masses --      1.4525                 1.6068                 2.5251
 Frc consts  --      1.4214                 1.5759                 2.5254
 IR Inten    --      5.5108               101.9738                23.3739

                     76                     77                     78
                      A                      A                      A
 Frequencies --   1335.8358              1364.8258              1369.2179
 Red. masses --      1.2165                 1.7584                 1.9988
 Frc consts  --      1.2790                 1.9298                 2.2078
 IR Inten    --     10.8315                 9.8731               173.3114

                     79                     80                     81
                      A                      A                      A
 Frequencies --   1374.2797              1389.6404              1396.5715
 Red. masses --      2.9172                 1.2605                 1.5066
 Frc consts  --      3.2462                 1.4342                 1.7314
 IR Inten    --    221.8522                41.3320               211.5638

                     82                     83                     84
                      A                      A                      A
 Frequencies --   1421.2694              1422.8005              1457.6877
 Red. masses --      2.1985                 2.2861                 1.1596
 Frc consts  --      2.6166                 2.7267                 1.4518
 IR Inten    --    299.6846                85.0683                 1.3839

                     85                     86                     87
                      A                      A                      A
 Frequencies --   1457.9530              1470.7251              1474.6758
 Red. masses --      3.9330                 1.0959                 1.1499
 Frc consts  --      4.9257                 1.3967                 1.4733
 IR Inten    --     41.6140                 8.4558                 4.9906

                     88                     89                     90
                      A                      A                      A
 Frequencies --   1481.4996              1486.1853              1488.6695
 Red. masses --      1.1476                 1.1537                 4.9332
 Frc consts  --      1.4840                 1.5013                 6.4413
 IR Inten    --     70.7368                29.2312               923.1984

                     91                     92                     93
                      A                      A                      A
 Frequencies --   1499.9262              1514.6240              1525.0737
 Red. masses --      1.0510                 1.0818                 1.1174
 Frc consts  --      1.3932                 1.4623                 1.5312
 IR Inten    --     13.2212                14.3345                31.7573

                     94                     95                     96
                      A                      A                      A
 Frequencies --   1526.2370              1537.1154              1555.8275
 Red. masses --      1.0525                 1.0501                 2.5811
 Frc consts  --      1.4444                 1.4618                 3.6812
 IR Inten    --      7.1324                13.2245               201.0963

                     97                     98                     99
                      A                      A                      A
 Frequencies --   1584.2751              1604.1726              1656.3726
 Red. masses --      7.7999                 3.9772                 6.2457
 Frc consts  --     11.5346                 6.0302                10.0960
 IR Inten    --     28.1116                30.8701                 1.0795

                    100                    101                    102
                      A                      A                      A
 Frequencies --   1671.8268              2982.1781              2991.4638
 Red. masses --      5.5766                 1.0554                 1.0569
 Frc consts  --      9.1834                 5.5299                 5.5723
 IR Inten    --    935.4212                90.1867               137.9238

                    103                    104                    105
                      A                      A                      A
 Frequencies --   3063.9807              3084.3592              3089.5420
 Red. masses --      1.0593                 1.0758                 1.0615
 Frc consts  --      5.8595                 6.0300                 5.9699
 IR Inten    --     48.2427                67.7194                17.0729

                    106                    107                    108
                      A                      A                      A
 Frequencies --   3090.5571              3092.5482              3099.2817
 Red. masses --      1.0758                 1.0610                 1.0614
 Frc consts  --      6.0541                 5.9784                 6.0070
 IR Inten    --     78.2023                20.6023                60.6287

                    109                    110                    111
                      A                      A                      A
 Frequencies --   3113.3363              3128.0475              3135.1937
 Red. masses --      1.1057                 1.1043                 1.1040
 Frc consts  --      6.3143                 6.3660                 6.3936
 IR Inten    --     29.6666                49.9450                55.1876

                    112                    113                    114
                      A                      A                      A
 Frequencies --   3140.3591              3158.6237              3161.7795
 Red. masses --      1.1035                 1.1057                 1.1060
 Frc consts  --      6.4117                 6.4994                 6.5142
 IR Inten    --      2.1013                16.3347                27.8563

                    115                    116                    117
                      A                      A                      A
 Frequencies --   3274.1586              3286.2727              3303.7189
 Red. masses --      1.0933                 1.1012                 1.0903
 Frc consts  --      6.9056                 7.0068                 7.0116
 IR Inten    --      9.5395                 2.8587                 3.8478

                    118                    119                    120
                      A                      A                      A
 Frequencies --   3320.6343              3548.0336              3629.4047
 Red. masses --      1.1057                 1.0774                 1.0821
 Frc consts  --      7.1831                 7.9914                 8.3983
 IR Inten    --      0.8097               150.2281               199.8858

 - Thermochemistry -
 -------------------
 Temperature   298.150 Kelvin.  Pressure   1.00000 Atm.
 Atom     1 has atomic number  6 and mass  12.00000

 Molecular mass:   324.12561 amu.
 Principal axes and moments of inertia in atomic units:
                           1         2         3
     Eigenvalues --  2700.54025********************
           X            0.99999   0.00139   0.00431
           Y           -0.00157   0.99911   0.04207
           Z           -0.00425  -0.04208   0.99911
 This molecule is an asymmetric top.
 Rotational symmetry number  1.
 Warning -- assumption of classical behavior for rotation
           may cause significant error
 Rotational temperatures (Kelvin)      0.03207     0.00337     0.00328
 Rotational constants (GHZ):           0.66829     0.07023     0.06829
 Zero-point vibrational energy     899336.5 (Joules/Mol)
                                  214.94657 (Kcal/Mol)
 Warning -- explicit consideration of  33 degrees of freedom as
           vibrations may cause significant error
 Vibrational temperatures:     14.87    27.82    34.75    49.03    54.90
          (Kelvin)             72.66   100.56   118.38   141.01   159.89
                              173.00   236.39   263.09   288.78   318.67
                              346.92   350.72   369.48   378.90   386.78
                              412.58   462.93   502.19   520.55   535.29
                              597.96   647.17   672.31   687.62   710.51
                              740.11   871.55   884.99   905.44   909.06
                              962.11  1005.78  1017.05  1047.20  1054.08
                             1087.71  1091.44  1104.84  1126.69  1164.52
                             1188.10  1191.36  1230.88  1253.41  1272.80
                             1291.52  1357.50  1421.22  1442.43  1474.47
                             1497.49  1502.30  1507.53  1521.64  1537.65
                             1552.27  1601.35  1629.37  1639.86  1678.17
                             1685.17  1721.68  1763.55  1766.54  1802.27
                             1803.74  1830.70  1854.26  1856.33  1874.54
                             1921.97  1963.68  1970.00  1977.28  1999.38
                             2009.35  2044.89  2047.09  2097.29  2097.67
                             2116.05  2121.73  2131.55  2138.29  2141.86
                             2158.06  2179.21  2194.24  2195.91  2211.57
                             2238.49  2279.42  2308.05  2383.15  2405.39
                             4290.69  4304.05  4408.38  4437.70  4445.16
                             4446.62  4449.49  4459.18  4479.40  4500.56
                             4510.84  4518.28  4544.55  4549.10  4710.78
                             4728.21  4753.31  4777.65  5104.83  5221.90

 Zero-point correction=                           0.342539 (Hartree/Particle)
 Thermal correction to Energy=                    0.365076
 Thermal correction to Enthalpy=                  0.366021
 Thermal correction to Gibbs Free Energy=         0.285935
 Sum of electronic and zero-point Energies=          -1387.946360
 Sum of electronic and thermal Energies=             -1387.923823
 Sum of electronic and thermal Enthalpies=           -1387.922879
 Sum of electronic and thermal Free Energies=        -1388.002965

                     E (Thermal)             CV                S
                      KCal/Mol        Cal/Mol-Kelvin    Cal/Mol-Kelvin
 Total                  229.089             82.838            168.554
 Electronic               0.000              0.000              0.000
 Translational            0.889              2.981             43.223
 Rotational               0.889              2.981             35.860
 Vibrational            227.311             76.877             89.471
 Vibration     1          0.593              1.987              7.945
 Vibration     2          0.593              1.986              6.701
 Vibration     3          0.593              1.985              6.260
 Vibration     4          0.594              1.983              5.577
 Vibration     5          0.594              1.982              5.352
 Vibration     6          0.595              1.977              4.798
 Vibration     7          0.598              1.968              4.156
 Vibration     8          0.600              1.961              3.836
 Vibration     9          0.603              1.951              3.494
 Vibration    10          0.607              1.940              3.249
 Vibration    11          0.609              1.932              3.097
 Vibration    12          0.623              1.886              2.500
 Vibration    13          0.630              1.863              2.299
 Vibration    14          0.638              1.839              2.127
 Vibration    15          0.648              1.808              1.947
 Vibration    16          0.658              1.777              1.795
 Vibration    17          0.659              1.773              1.775
 Vibration    18          0.666              1.751              1.683
 Vibration    19          0.670              1.740              1.639
 Vibration    20          0.673              1.730              1.604
 Vibration    21          0.684              1.698              1.493
 Vibration    22          0.707              1.632              1.301
 Vibration    23          0.726              1.577              1.171
 Vibration    24          0.736              1.551              1.114
 Vibration    25          0.744              1.530              1.071
 Vibration    26          0.779              1.436              0.907
 Vibration    27          0.809              1.361              0.796
 Vibration    28          0.825              1.323              0.745
 Vibration    29          0.834              1.299              0.716
 Vibration    30          0.849              1.264              0.674
 Vibration    31          0.869              1.218              0.623
 Vibration    32          0.964              1.020              0.440
 Vibration    33          0.975              1.000              0.424

 Optimization completed.
    -- Stationary point found.
 Normal termination of Gaussian 16 at Wed Mar  2 03:46:01 2022.

 ------------------------------------------
 #p b3lyp/6-31G(d) geom=allcheck guess=read
 ------------------------------------------

 Structure from the checkpoint file:  "296.n.pdb.xyz.mst.wat.chk"
 -------------
 296.n.pdb.xyz
 -------------
 Charge =  0 Multiplicity = 1

 SCF Done:  E(RB3LYP) =  -1388.25781408     A.U. after   12 cycles
 Normal termination of Gaussian 16 at Wed Mar  2 03:49:21 2022.
 Gaussian 16:  ES64L-G16RevA.03 25-Dec-2016

 ----------------------------------------------------------------------
 #p b3lyp/6-31G(d) scrf=(iefpcm,read,solvent=water) geom=allcheck guess
 =read
 ----------------------------------------------------------------------

 Structure from the checkpoint file:  "296.n.pdb.xyz.mst.wat.chk"
 -------------
 296.n.pdb.xyz
 -------------
 Charge =  0 Multiplicity = 1

                         Standard orientation:
 ---------------------------------------------------------------------
 Center     Atomic      Atomic             Coordinates (Angstroms)
 Number     Number       Type             X           Y           Z
 ---------------------------------------------------------------------
      1          6           0       -5.063859   -2.035290   -1.401050
      2          7           0       -6.218296   -1.218631   -1.043615
      3          6           0       -6.768643   -1.594424    0.253191
      4          6           0       -5.966136    0.224882   -1.168621
      5          6           0       -4.966535    0.834555   -0.228935
      6          6           0       -5.077098    1.513726    0.950933
      7          6           0       -3.746098    1.820893    1.380513
      8          6           0       -2.904087    1.312312    0.434197
      9          6           0       -1.429806    1.289977    0.293715
     10         16           0       -0.745010   -0.383634    0.726893
     11          6           0        0.951292   -0.241051    0.051938
     12          6           0        1.896087    0.590135    0.932869
     13          7           0        3.236149    0.695282    0.376433
     14          6           0        4.184129   -0.257610    0.421600
     15          6           0        5.455792   -0.261350   -0.218049
     16          6           0        6.140930   -1.469233    0.151317
     17          6           0        5.300947   -2.149096    0.974761
     18          7           0        4.120517   -1.411807    1.133630
     19          7           0        5.915029    0.735168   -1.050486
     20          8           0        5.178552    1.737701   -1.276136
     21          8           0        7.050204    0.629377   -1.566990
     22          8           0       -3.637403    0.704430   -0.553556
     23          1           0       -4.699048   -1.735392   -2.387671
     24          1           0       -4.225279   -1.958799   -0.689150
     25          1           0       -5.368746   -3.085251   -1.448776
     26          1           0       -7.665633   -1.001612    0.457361
     27          1           0       -6.066281   -1.450592    1.091610
     28          1           0       -7.052219   -2.651619    0.228630
     29          1           0       -6.919850    0.743862   -1.021743
     30          1           0       -5.641561    0.408637   -2.197792
     31          1           0       -6.000342    1.772425    1.448877
     32          1           0       -3.450761    2.356339    2.271174
     33          1           0       -0.994968    2.043569    0.950582
     34          1           0       -1.129855    1.502924   -0.735771
     35          1           0        1.314997   -1.267266   -0.038236
     36          1           0        0.895235    0.182457   -0.954511
     37          1           0        1.518899    1.608780    1.034593
     38          1           0        1.943486    0.166971    1.939761
     39          1           0        3.447222    1.438312   -0.282979
     40          1           0        7.126221   -1.763644   -0.170346
     41          1           0        5.410936   -3.096715    1.476693
     42          1           0        3.331593   -1.717948    1.688850
 ---------------------------------------------------------------------

 SCF Done:  E(RB3LYP) =  -1388.28620221     A.U. after   12 cycles

 The electronic state is 1-A.
 Alpha  occ. eigenvalues --  -88.87805 -19.21345 -19.15577 -19.15382 -14.54892
 Alpha  occ. eigenvalues --  -14.39230 -14.37088 -14.32878 -10.28814 -10.24466
 Alpha  occ. eigenvalues --  -10.23734 -10.23581 -10.22744 -10.22457 -10.22201
 Alpha  occ. eigenvalues --  -10.22060 -10.21816 -10.19756 -10.19703 -10.19008
 Alpha  occ. eigenvalues --  -10.18810 -10.18543  -7.93925  -5.90445  -5.90074
 Alpha  occ. eigenvalues --   -5.89378  -1.18993  -1.10666  -1.01617  -1.00890
 Alpha  occ. eigenvalues --   -0.93772  -0.91895  -0.83303  -0.82163  -0.79886
 Alpha  occ. eigenvalues --   -0.78519  -0.75483  -0.74070  -0.70997  -0.70179
 Alpha  occ. eigenvalues --   -0.68221  -0.65765  -0.60759  -0.60366  -0.60216
 Alpha  occ. eigenvalues --   -0.58499  -0.58251  -0.55362  -0.55004  -0.51499
 Alpha  occ. eigenvalues --   -0.51106  -0.50665  -0.49559  -0.49100  -0.47956
 Alpha  occ. eigenvalues --   -0.47036  -0.46720  -0.46110  -0.45484  -0.44629
 Alpha  occ. eigenvalues --   -0.44057  -0.43474  -0.43079  -0.42094  -0.41373
 Alpha  occ. eigenvalues --   -0.40227  -0.39635  -0.39275  -0.38603  -0.38381
 Alpha  occ. eigenvalues --   -0.37800  -0.36687  -0.36474  -0.36006  -0.35602
 Alpha  occ. eigenvalues --   -0.32792  -0.30887  -0.29865  -0.29061  -0.28017
 Alpha  occ. eigenvalues --   -0.27290  -0.26842  -0.23440  -0.22516  -0.21308
 Alpha  occ. eigenvalues --   -0.19867
 Alpha virt. eigenvalues --   -0.06129  -0.00550   0.02805   0.04272   0.05822
 Alpha virt. eigenvalues --    0.07173   0.08939   0.09263   0.09948   0.11238
 Alpha virt. eigenvalues --    0.11499   0.11923   0.12879   0.13467   0.14082

 Mulliken charges:
               1
     1  C   -0.312419
     2  N   -0.381651
     3  C   -0.309762
     4  C   -0.243990
     5  C    0.346275
     6  C   -0.229942
     7  C   -0.221234
     8  C    0.343920
     9  C   -0.504823
    10  S    0.051356
    11  C   -0.426991
    12  C   -0.153522
    13  N   -0.649203
    14  C    0.609787
    15  C    0.235994
    16  C   -0.198579
    17  C    0.023878
    18  N   -0.658874
    19  N    0.298015
    20  O   -0.527046
    21  O   -0.511743
    22  O   -0.474387
    23  H    0.154559
    24  H    0.138354
    25  H    0.155129
    26  H    0.154914
    27  H    0.131575
    28  H    0.156691
    29  H    0.170305
    30  H    0.167381
    31  H    0.160686
    32  H    0.163413
    33  H    0.211183
    34  H    0.206470
    35  H    0.198197
    36  H    0.196848
    37  H    0.192128
    38  H    0.183183
    39  H    0.396569
    40  H    0.165507
    41  H    0.187466
    42  H    0.404381
 Sum of Mulliken charges =  -0.00000

 Dipole moment (field-independent basis, Debye):
    X=             -6.6297    Y=             -2.4778    Z=              6.1762  Tot=              9.3935
 Quadrupole moment (field-independent basis, Debye-Ang):
   XX=           -200.1291   YY=           -128.9206   ZZ=           -138.2766
   XY=            -31.8049   XZ=             24.1193   YZ=              1.1333

 Normal termination of Gaussian 16 at Wed Mar  2 03:53:42 2022.
