 Gaussian 16, Revision A.03,

 ----------------------------------------------------------------------
 #p b3lyp/6-31G(d) opt=(MaxStep=10,MaxCycles=1000) freq scf=(MaxCycle=2
 000,NoVarAcc,NoIncFock) scrf=(iefpcm,read,solvent=water)
 ----------------------------------------------------------------------

 -------------
 298.n.pdb.xyz
 -------------
 Symbolic Z-matrix:
 Charge =  0 Multiplicity = 1

 SCF Done:  E(RB3LYP) =  -612.331878482     A.U. after   13 cycles
 SCF Done:  E(RB3LYP) =  -612.336828194     A.U. after   11 cycles
 SCF Done:  E(RB3LYP) =  -612.338998767     A.U. after   11 cycles
 SCF Done:  E(RB3LYP) =  -612.340409504     A.U. after   10 cycles
 SCF Done:  E(RB3LYP) =  -612.340521545     A.U. after   10 cycles
 SCF Done:  E(RB3LYP) =  -612.340486366     A.U. after    9 cycles
 SCF Done:  E(RB3LYP) =  -612.340546019     A.U. after    9 cycles
 SCF Done:  E(RB3LYP) =  -612.340557240     A.U. after    9 cycles
 SCF Done:  E(RB3LYP) =  -612.340557648     A.U. after    7 cycles
 SCF Done:  E(RB3LYP) =  -612.340558234     A.U. after    7 cycles
 SCF Done:  E(RB3LYP) =  -612.340558606     A.U. after    6 cycles
 Optimization completed.
    -- Stationary point found.
 Normal termination of Gaussian 16 at Wed Mar  2 04:04:14 2022.

 --------------------------------------------------------------------
 #P Geom=AllCheck Guess=TCheck SCRF=Check GenChk RB3LYP/6-31G(d) Freq
 --------------------------------------------------------------------

 Structure from the checkpoint file:  "298.n.pdb.xyz.mst.wat.chk"
 -------------
 298.n.pdb.xyz
 -------------
 Charge =  0 Multiplicity = 1

 SCF Done:  E(RB3LYP) =  -612.340558606     A.U. after    1 cycles

  Exact polarizability: 204.909   1.328 196.763  17.032   4.543 112.673
 Approx polarizability: 215.829   9.303 230.090  19.790   8.257 125.179

                      1                      2                      3
                      A                      A                      A
 Frequencies --     63.7177                90.2333               148.7219
 Red. masses --      3.2485                 4.4857                 3.1758
 Frc consts  --      0.0078                 0.0215                 0.0414
 IR Inten    --      1.7590                 2.3529                 6.5261

                      4                      5                      6
                      A                      A                      A
 Frequencies --    221.2535               268.7416               282.8265
 Red. masses --      4.1981                 2.3836                 4.3698
 Frc consts  --      0.1211                 0.1014                 0.2059
 IR Inten    --      3.9386                 8.9982                 3.5100

                      7                      8                      9
                      A                      A                      A
 Frequencies --    311.4141               329.6858               389.3447
 Red. masses --      3.1044                 2.4928                 2.1738
 Frc consts  --      0.1774                 0.1596                 0.1942
 IR Inten    --      1.2977                 3.9017                 0.9189

                     10                     11                     12
                      A                      A                      A
 Frequencies --    438.7168               467.9391               479.7869
 Red. masses --      3.9739                 4.2954                 3.6735
 Frc consts  --      0.4507                 0.5542                 0.4982
 IR Inten    --      7.3826                 5.9805                 1.0598

                     13                     14                     15
                      A                      A                      A
 Frequencies --    519.8680               539.1161               583.4332
 Red. masses --      4.7890                 5.1938                 5.5466
 Frc consts  --      0.7626                 0.8894                 1.1124
 IR Inten    --      1.2405                 3.1810                12.3226

                     16                     17                     18
                      A                      A                      A
 Frequencies --    628.0931               664.2490               704.1691
 Red. masses --      3.3462                 4.9568                 3.4085
 Frc consts  --      0.7778                 1.2886                 0.9958
 IR Inten    --      1.8546                 3.3723                 0.9965

                     19                     20                     21
                      A                      A                      A
 Frequencies --    743.9080               749.1114               793.1152
 Red. masses --      2.5680                 2.4803                 2.5651
 Frc consts  --      0.8373                 0.8201                 0.9507
 IR Inten    --      2.8213                 2.0881                24.5270

                     22                     23                     24
                      A                      A                      A
 Frequencies --    798.2411               830.8369               850.6419
 Red. masses --      1.7793                 3.1045                 2.1695
 Frc consts  --      0.6680                 1.2626                 0.9249
 IR Inten    --     99.0960                11.1465                67.3624

                     25                     26                     27
                      A                      A                      A
 Frequencies --    859.9793               864.8752               919.4150
 Red. masses --      2.0889                 1.9193                 2.0190
 Frc consts  --      0.9102                 0.8459                 1.0056
 IR Inten    --    159.3677                30.8977                39.2244

                     28                     29                     30
                      A                      A                      A
 Frequencies --    929.6329               973.4739               991.6370
 Red. masses --      2.2583                 1.7663                 2.3200
 Frc consts  --      1.1499                 0.9862                 1.3442
 IR Inten    --      0.7733                16.6273                 7.6421

                     31                     32                     33
                      A                      A                      A
 Frequencies --   1005.3645              1018.3972              1037.1584
 Red. masses --      1.2879                 2.1474                 2.7284
 Frc consts  --      0.7670                 1.3122                 1.7292
 IR Inten    --      0.0457                 9.2123                 8.4290

                     34                     35                     36
                      A                      A                      A
 Frequencies --   1079.2922              1093.4798              1119.6233
 Red. masses --      1.9699                 1.7510                 1.8868
 Frc consts  --      1.3520                 1.2335                 1.3936
 IR Inten    --      4.2588                24.3707                31.2906

                     37                     38                     39
                      A                      A                      A
 Frequencies --   1125.4323              1137.9273              1158.2717
 Red. masses --      2.0142                 2.5320                 1.5400
 Frc consts  --      1.5031                 1.9317                 1.2173
 IR Inten    --     15.3161                39.3486                58.2380

                     40                     41                     42
                      A                      A                      A
 Frequencies --   1187.4213              1207.3895              1229.1298
 Red. masses --      1.6269                 2.4854                 1.8346
 Frc consts  --      1.3515                 2.1348                 1.6330
 IR Inten    --     39.5944                 2.7750                10.3610

                     43                     44                     45
                      A                      A                      A
 Frequencies --   1233.2983              1246.5946              1260.0616
 Red. masses --      1.1269                 2.1215                 1.4630
 Frc consts  --      1.0099                 1.9424                 1.3687
 IR Inten    --      4.2491                 6.3246                 3.6941

                     46                     47                     48
                      A                      A                      A
 Frequencies --   1290.3669              1317.5475              1345.6161
 Red. masses --      1.2588                 1.4757                 1.3909
 Frc consts  --      1.2349                 1.5093                 1.4838
 IR Inten    --     16.1511                12.6018                14.4959

                     49                     50                     51
                      A                      A                      A
 Frequencies --   1358.5080              1367.8810              1379.9755
 Red. masses --      1.3262                 1.3890                 1.5234
 Frc consts  --      1.4421                 1.5313                 1.7092
 IR Inten    --      0.0817                33.7618                 4.0528

                     52                     53                     54
                      A                      A                      A
 Frequencies --   1384.5321              1397.7719              1412.4199
 Red. masses --      1.4261                 1.4683                 1.3964
 Frc consts  --      1.6107                 1.6902                 1.6412
 IR Inten    --     22.3719                21.8475                 4.9650

                     55                     56                     57
                      A                      A                      A
 Frequencies --   1451.5700              1470.2852              1505.5071
 Red. masses --      2.2320                 1.9976                 1.0768
 Frc consts  --      2.7709                 2.5443                 1.4380
 IR Inten    --      0.8731                40.3922                 0.2496

                     58                     59                     60
                      A                      A                      A
 Frequencies --   1513.7359              1520.2599              1526.7591
 Red. masses --      1.0933                 1.1388                 1.2063
 Frc consts  --      1.4760                 1.5507                 1.6567
 IR Inten    --      4.2919                 7.9056                 3.2467

                     61                     62                     63
                      A                      A                      A
 Frequencies --   1531.3334              1589.8349              1632.9103
 Red. masses --      1.1587                 6.6089                 6.0956
 Frc consts  --      1.6009                 9.8420                 9.5762
 IR Inten    --     25.7511               554.3761               111.2646

                     64                     65                     66
                      A                      A                      A
 Frequencies --   1706.0010              3046.9320              3059.0595
 Red. masses --      8.4363                 1.0678                 1.0655
 Frc consts  --     14.4664                 5.8408                 5.8749
 IR Inten    --    769.6806                76.0921                85.2993

                     67                     68                     69
                      A                      A                      A
 Frequencies --   3069.0171              3076.1497              3087.5751
 Red. masses --      1.0710                 1.0654                 1.0828
 Frc consts  --      5.9437                 5.9400                 6.0817
 IR Inten    --     19.6046                21.2692                80.0132

                     70                     71                     72
                      A                      A                      A
 Frequencies --   3106.3059              3118.5520              3119.1005
 Red. masses --      1.0882                 1.1026                 1.0983
 Frc consts  --      6.1866                 6.3180                 6.2953
 IR Inten    --     24.3537                32.2887               105.0040

                     73                     74                     75
                      A                      A                      A
 Frequencies --   3126.5490              3142.3250              3205.2741
 Red. masses --      1.0985                 1.0952                 1.0887
 Frc consts  --      6.3267                 6.3718                 6.5899
 IR Inten    --     72.5162                17.1003                25.8132

                     76                     77                     78
                      A                      A                      A
 Frequencies --   3236.4887              3241.1964              3512.1773
 Red. masses --      1.0920                 1.0949                 1.0750
 Frc consts  --      6.7397                 6.7769                 7.8126
 IR Inten    --     20.6482                 7.3629                 3.9649

 - Thermochemistry -
 -------------------
 Temperature   298.150 Kelvin.  Pressure   1.00000 Atm.
 Atom     1 has atomic number  8 and mass  15.99491

 Molecular mass:   190.11061 amu.
 Principal axes and moments of inertia in atomic units:
                           1         2         3
     Eigenvalues --  1419.091612934.401923698.66498
           X            0.99975  -0.02184   0.00498
           Y            0.02186   0.99975  -0.00456
           Z           -0.00488   0.00467   0.99998
 This molecule is an asymmetric top.
 Rotational symmetry number  1.
 Warning -- assumption of classical behavior for rotation
           may cause significant error
 Rotational temperatures (Kelvin)      0.06103     0.02952     0.02342
 Rotational constants (GHZ):           1.27176     0.61503     0.48794
 Zero-point vibrational energy     636560.1 (Joules/Mol)
                                  152.14152 (Kcal/Mol)
 Warning -- explicit consideration of  15 degrees of freedom as
           vibrations may cause significant error
 Vibrational temperatures:     91.68   129.83   213.98   318.33   386.66
          (Kelvin)            406.92   448.06   474.34   560.18   631.22
                              673.26   690.31   747.97   775.67   839.43
                              903.69   955.71  1013.14  1070.32  1077.80
                             1141.12  1148.49  1195.39  1223.88  1237.32
                             1244.36  1322.83  1337.53  1400.61  1426.74
                             1446.50  1465.25  1492.24  1552.86  1573.27
                             1610.89  1619.25  1637.22  1666.49  1708.43
                             1737.16  1768.44  1774.44  1793.57  1812.95
                             1856.55  1895.66  1936.04  1954.59  1968.08
                             1985.48  1992.03  2011.08  2032.16  2088.49
                             2115.41  2166.09  2177.93  2187.31  2196.67
                             2203.25  2287.42  2349.39  2454.55  4383.86
                             4401.30  4415.63  4425.89  4442.33  4469.28
                             4486.90  4487.69  4498.41  4521.10  4611.67
                             4656.59  4663.36  5053.24

 Zero-point correction=                           0.242453 (Hartree/Particle)
 Thermal correction to Energy=                    0.252995
 Thermal correction to Enthalpy=                  0.253939
 Thermal correction to Gibbs Free Energy=         0.206283
 Sum of electronic and zero-point Energies=           -612.098106
 Sum of electronic and thermal Energies=              -612.087564
 Sum of electronic and thermal Enthalpies=            -612.086620
 Sum of electronic and thermal Free Energies=         -612.134275

                     E (Thermal)             CV                S
                      KCal/Mol        Cal/Mol-Kelvin    Cal/Mol-Kelvin
 Total                  158.757             44.278            100.300
 Electronic               0.000              0.000              0.000
 Translational            0.889              2.981             41.633
 Rotational               0.889              2.981             31.111
 Vibrational            156.979             38.317             27.556
 Vibration     1          0.597              1.972              4.339
 Vibration     2          0.602              1.956              3.655
 Vibration     3          0.618              1.904              2.689
 Vibration     4          0.648              1.809              1.949
 Vibration     5          0.673              1.731              1.604
 Vibration     6          0.682              1.705              1.517
 Vibration     7          0.700              1.652              1.355
 Vibration     8          0.712              1.616              1.262
 Vibration     9          0.757              1.493              1.003
 Vibration    10          0.799              1.386              0.831
 Vibration    11          0.825              1.321              0.743
 Vibration    12          0.836              1.295              0.711
 Vibration    13          0.875              1.206              0.610
 Vibration    14          0.894              1.164              0.567
 Vibration    15          0.940              1.067              0.479

 Optimization completed.
    -- Stationary point found.
 Normal termination of Gaussian 16 at Wed Mar  2 04:27:29 2022.

 ------------------------------------------
 #p b3lyp/6-31G(d) geom=allcheck guess=read
 ------------------------------------------

 Structure from the checkpoint file:  "298.n.pdb.xyz.mst.wat.chk"
 -------------
 298.n.pdb.xyz
 -------------
 Charge =  0 Multiplicity = 1

 SCF Done:  E(RB3LYP) =  -612.323898911     A.U. after   12 cycles
 Normal termination of Gaussian 16 at Wed Mar  2 04:29:33 2022.
 Gaussian 16:  ES64L-G16RevA.03 25-Dec-2016

 ----------------------------------------------------------------------
 #p b3lyp/6-31G(d) scrf=(iefpcm,read,solvent=water) geom=allcheck guess
 =read
 ----------------------------------------------------------------------

 Structure from the checkpoint file:  "298.n.pdb.xyz.mst.wat.chk"
 -------------
 298.n.pdb.xyz
 -------------
 Charge =  0 Multiplicity = 1

                         Standard orientation:
 ---------------------------------------------------------------------
 Center     Atomic      Atomic             Coordinates (Angstroms)
 Number     Number       Type             X           Y           Z
 ---------------------------------------------------------------------
      1          8           0       -2.447872   -1.988069   -0.295623
      2          6           0       -2.124519   -0.791849   -0.177111
      3          6           0       -3.009877    0.323756   -0.358354
      4          6           0       -2.582511    1.609825   -0.159719
      5          6           0       -1.246794    1.869233    0.212789
      6          6           0       -0.359804    0.827376    0.366071
      7          6           0        1.092024    1.104573    0.688661
      8          6           0        1.918513    1.431920   -0.617504
      9          7           0        2.788176    0.348564   -1.071532
     10          6           0        2.136903   -0.957352   -0.963648
     11          6           0        1.565683   -1.285066    0.458653
     12          6           0        1.744834   -0.083920    1.394625
     13          6           0        0.084995   -1.639391    0.400232
     14          7           0       -0.788987   -0.464406    0.170911
     15          1           0       -4.030162    0.091016   -0.638208
     16          1           0       -3.273927    2.437768   -0.284748
     17          1           0       -0.896015    2.880398    0.376599
     18          1           0        1.100052    1.994378    1.321665
     19          1           0        2.543201    2.308395   -0.430121
     20          1           0        1.222548    1.693648   -1.422411
     21          1           0        3.634231    0.340310   -0.505712
     22          1           0        2.857513   -1.723084   -1.260910
     23          1           0        1.321979   -0.987756   -1.697713
     24          1           0        2.081692   -2.160069    0.864428
     25          1           0        1.274230   -0.277840    2.363637
     26          1           0        2.801234    0.123106    1.584577
     27          1           0       -0.239250   -2.113418    1.333489
     28          1           0       -0.125357   -2.346040   -0.403414
 ---------------------------------------------------------------------

 SCF Done:  E(RB3LYP) =  -612.339704631     A.U. after   12 cycles

 The electronic state is 1-A.
 Alpha  occ. eigenvalues --  -19.10509 -14.39531 -14.31947 -10.28222 -10.24551
 Alpha  occ. eigenvalues --  -10.22122 -10.20977 -10.20584 -10.20584 -10.20031
 Alpha  occ. eigenvalues --  -10.19236 -10.18578 -10.18577 -10.18518  -1.02817
 Alpha  occ. eigenvalues --   -0.95859  -0.91012  -0.82824  -0.80560  -0.77837
 Alpha  occ. eigenvalues --   -0.72839  -0.69902  -0.65411  -0.63091  -0.62025
 Alpha  occ. eigenvalues --   -0.60952  -0.53748  -0.51616  -0.50237  -0.49544
 Alpha  occ. eigenvalues --   -0.48753  -0.46483  -0.45292  -0.44825  -0.43168
 Alpha  occ. eigenvalues --   -0.41756  -0.41119  -0.39765  -0.38918  -0.38152
 Alpha  occ. eigenvalues --   -0.37627  -0.35974  -0.35867  -0.35194  -0.32649
 Alpha  occ. eigenvalues --   -0.31809  -0.31410  -0.28814  -0.25263  -0.22994
 Alpha  occ. eigenvalues --   -0.20759
 Alpha virt. eigenvalues --   -0.03291   0.01425   0.07224   0.10164   0.11247
 Alpha virt. eigenvalues --    0.12123   0.12795   0.13399   0.14613   0.15285
 Alpha virt. eigenvalues --    0.15857   0.16620   0.16928   0.17406   0.18167

 Mulliken charges:
               1
     1  O   -0.637718
     2  C    0.600633
     3  C   -0.244678
     4  C   -0.091684
     5  C   -0.258174
     6  C    0.399661
     7  C   -0.191316
     8  C   -0.147143
     9  N   -0.581461
    10  C   -0.163602
    11  C   -0.131407
    12  C   -0.287309
    13  C   -0.141107
    14  N   -0.546998
    15  H    0.148172
    16  H    0.164164
    17  H    0.156223
    18  H    0.167950
    19  H    0.161383
    20  H    0.151885
    21  H    0.340958
    22  H    0.158685
    23  H    0.151703
    24  H    0.155017
    25  H    0.157462
    26  H    0.154527
    27  H    0.174665
    28  H    0.179507
 Sum of Mulliken charges =  -0.00000

 Dipole moment (field-independent basis, Debye):
    X=              5.0925    Y=              3.8691    Z=              2.7982  Tot=              6.9809
 Quadrupole moment (field-independent basis, Debye-Ang):
   XX=            -83.5020   YY=            -82.4552   ZZ=            -85.3034
   XY=            -13.5286   XZ=              5.2570   YZ=             -0.3588

 Normal termination of Gaussian 16 at Wed Mar  2 04:31:53 2022.
