 Gaussian 16, Revision A.03,

 ----------------------------------------------------------------------
 #p b3lyp/6-31G(d) opt=(MaxStep=10,MaxCycles=1000) freq scf=(MaxCycle=2
 000,NoVarAcc,NoIncFock) scrf=(iefpcm,read,solvent=water)
 ----------------------------------------------------------------------

 -------------
 299.n.pdb.xyz
 -------------
 Symbolic Z-matrix:
 Charge =  0 Multiplicity = 1

 SCF Done:  E(RB3LYP) =  -496.056660732     A.U. after   13 cycles
 SCF Done:  E(RB3LYP) =  -496.058900670     A.U. after   10 cycles
 SCF Done:  E(RB3LYP) =  -496.059447313     A.U. after   11 cycles
 SCF Done:  E(RB3LYP) =  -496.059610046     A.U. after    9 cycles
 SCF Done:  E(RB3LYP) =  -496.059616586     A.U. after    9 cycles
 SCF Done:  E(RB3LYP) =  -496.059597488     A.U. after    9 cycles
 SCF Done:  E(RB3LYP) =  -496.059610840     A.U. after    9 cycles
 SCF Done:  E(RB3LYP) =  -496.059617486     A.U. after    8 cycles
 SCF Done:  E(RB3LYP) =  -496.059615738     A.U. after    8 cycles
 Optimization completed.
    -- Stationary point found.
 Normal termination of Gaussian 16 at Wed Mar  2 04:39:16 2022.

 --------------------------------------------------------------------
 #P Geom=AllCheck Guess=TCheck SCRF=Check GenChk RB3LYP/6-31G(d) Freq
 --------------------------------------------------------------------

 Structure from the checkpoint file:  "299.n.pdb.xyz.mst.wat.chk"
 -------------
 299.n.pdb.xyz
 -------------
 Charge =  0 Multiplicity = 1

 SCF Done:  E(RB3LYP) =  -496.059615738     A.U. after    1 cycles

  Exact polarizability: 154.127   0.381 132.540  -0.000   0.001  37.112
 Approx polarizability: 173.237   2.982 169.101  -0.001   0.000  45.125

                      1                      2                      3
                      A                      A                      A
 Frequencies --     59.6326               137.7980               248.8672
 Red. masses --     10.9345                 4.4409                 4.7947
 Frc consts  --      0.0229                 0.0497                 0.1750
 IR Inten    --      2.5774                 0.2424                 3.7670

                      4                      5                      6
                      A                      A                      A
 Frequencies --    260.2776               381.6885               412.6356
 Red. masses --      6.4803                 8.3902                 7.2758
 Frc consts  --      0.2587                 0.7202                 0.7299
 IR Inten    --      2.9247                 2.7781                17.1635

                      7                      8                      9
                      A                      A                      A
 Frequencies --    430.3634               470.5662               527.9492
 Red. masses --      2.6417                 1.1803                 1.6371
 Frc consts  --      0.2883                 0.1540                 0.2689
 IR Inten    --     43.9479               308.4966                 1.1733

                     10                     11                     12
                      A                      A                      A
 Frequencies --    545.7013               557.6980               567.2584
 Red. masses --      6.2531                 1.7937                 6.3204
 Frc consts  --      1.0971                 0.3287                 1.1983
 IR Inten    --     18.1971                30.1525                14.3830

                     13                     14                     15
                      A                      A                      A
 Frequencies --    635.7733               703.9349               748.5402
 Red. masses --      4.8489                 4.5182                 4.5393
 Frc consts  --      1.1548                 1.3191                 1.4986
 IR Inten    --     75.7199                25.1610                12.9230

                     16                     17                     18
                      A                      A                      A
 Frequencies --    764.6741               797.0146               861.7085
 Red. masses --      2.3824                 1.9786                 5.7491
 Frc consts  --      0.8208                 0.7405                 2.5152
 IR Inten    --     80.8414                 6.5615                28.7811

                     19                     20                     21
                      A                      A                      A
 Frequencies --    880.8483               980.4595               999.7921
 Red. masses --      1.4395                 1.3359                 1.2727
 Frc consts  --      0.6581                 0.7566                 0.7495
 IR Inten    --      2.5094                 1.4255                 0.0722

                     22                     23                     24
                      A                      A                      A
 Frequencies --   1057.2493              1107.8237              1126.1630
 Red. masses --      2.5997                 3.3350                 2.1080
 Frc consts  --      1.7121                 2.4115                 1.5751
 IR Inten    --     68.0364                57.7019               216.9472

                     25                     26                     27
                      A                      A                      A
 Frequencies --   1177.9169              1196.8916              1262.7770
 Red. masses --      1.2038                 1.2799                 1.6065
 Frc consts  --      0.9841                 1.0803                 1.5094
 IR Inten    --     62.7545                32.3040               326.3419

                     28                     29                     30
                      A                      A                      A
 Frequencies --   1279.6086              1348.3057              1366.8319
 Red. masses --      3.3863                 2.4168                 3.8080
 Frc consts  --      3.2669                 2.5886                 4.1916
 IR Inten    --    270.0020               222.5302                90.3436

                     31                     32                     33
                      A                      A                      A
 Frequencies --   1420.4691              1518.5630              1527.1226
 Red. masses --      1.7052                 2.9706                 2.3286
 Frc consts  --      2.0272                 4.0361                 3.1996
 IR Inten    --     43.8646               237.1833                50.9444

                     34                     35                     36
                      A                      A                      A
 Frequencies --   1629.7287              1671.4938              1774.6471
 Red. masses --      5.1343                 5.6043                10.3584
 Frc consts  --      8.0346                 9.2254                19.2206
 IR Inten    --    112.3418               225.3370               696.0613

                     37                     38                     39
                      A                      A                      A
 Frequencies --   3210.8412              3224.9925              3230.9375
 Red. masses --      1.0868                 1.0897                 1.0938
 Frc consts  --      6.6014                 6.6774                 6.7273
 IR Inten    --      8.3944                16.1496                21.4793

                     40                     41                     42
                      A                      A                      A
 Frequencies --   3241.2405              3592.1023              3653.6983
 Red. masses --      1.0955                 1.0655                 1.0647
 Frc consts  --      6.7807                 8.1000                 8.3741
 IR Inten    --     18.4544               560.8930               195.0195

 - Thermochemistry -
 -------------------
 Temperature   298.150 Kelvin.  Pressure   1.00000 Atm.
 Atom     1 has atomic number  8 and mass  15.99491

 Molecular mass:   138.03169 amu.
 Principal axes and moments of inertia in atomic units:
                           1         2         3
     Eigenvalues --   777.666441487.090272264.75671
           X            0.99958  -0.02904   0.00000
           Y            0.02904   0.99958   0.00000
           Z           -0.00000  -0.00000   1.00000
 This molecule is an asymmetric top.
 Rotational symmetry number  1.
 Warning -- assumption of classical behavior for rotation
           may cause significant error
 Rotational temperatures (Kelvin)      0.11138     0.05824     0.03824
 Rotational constants (GHZ):           2.32071     1.21361     0.79688
 Zero-point vibrational energy     314573.5 (Joules/Mol)
                                   75.18488 (Kcal/Mol)
 Warning -- explicit consideration of  12 degrees of freedom as
           vibrations may cause significant error
 Vibrational temperatures:     85.80   198.26   358.06   374.48   549.16
          (Kelvin)            593.69   619.20   677.04   759.60   785.14
                              802.40   816.16   914.74  1012.81  1076.98
                             1100.20  1146.73  1239.81  1267.34  1410.66
                             1438.48  1521.15  1593.91  1620.30  1694.76
                             1722.06  1816.85  1841.07  1939.91  1966.57
                             2043.74  2184.87  2197.19  2344.82  2404.91
                             2553.32  4619.68  4640.04  4648.60  4663.42
                             5168.23  5256.86

 Zero-point correction=                           0.119815 (Hartree/Particle)
 Thermal correction to Energy=                    0.127890
 Thermal correction to Enthalpy=                  0.128834
 Thermal correction to Gibbs Free Energy=         0.086644
 Sum of electronic and zero-point Energies=           -495.939801
 Sum of electronic and thermal Energies=              -495.931726
 Sum of electronic and thermal Enthalpies=            -495.930782
 Sum of electronic and thermal Free Energies=         -495.972972

                     E (Thermal)             CV                S
                      KCal/Mol        Cal/Mol-Kelvin    Cal/Mol-Kelvin
 Total                   80.252             31.536             88.796
 Electronic               0.000              0.000              0.000
 Translational            0.889              2.981             40.679
 Rotational               0.889              2.981             29.350
 Vibrational             78.474             25.575             18.767
 Vibration     1          0.597              1.974              4.469
 Vibration     2          0.614              1.916              2.834
 Vibration     3          0.662              1.765              1.739
 Vibration     4          0.668              1.745              1.660
 Vibration     5          0.751              1.509              1.032
 Vibration     6          0.776              1.443              0.917
 Vibration     7          0.792              1.404              0.857
 Vibration     8          0.828              1.315              0.736
 Vibration     9          0.883              1.188              0.592
 Vibration    10          0.901              1.149              0.553
 Vibration    11          0.913              1.123              0.528
 Vibration    12          0.923              1.102              0.510

 Optimization completed.
    -- Stationary point found.
 Normal termination of Gaussian 16 at Wed Mar  2 04:44:54 2022.

 ------------------------------------------
 #p b3lyp/6-31G(d) geom=allcheck guess=read
 ------------------------------------------

 Structure from the checkpoint file:  "299.n.pdb.xyz.mst.wat.chk"
 -------------
 299.n.pdb.xyz
 -------------
 Charge =  0 Multiplicity = 1

 SCF Done:  E(RB3LYP) =  -496.043732222     A.U. after   11 cycles
 Normal termination of Gaussian 16 at Wed Mar  2 04:45:30 2022.
 Gaussian 16:  ES64L-G16RevA.03 25-Dec-2016

 ----------------------------------------------------------------------
 #p b3lyp/6-31G(d) scrf=(iefpcm,read,solvent=water) geom=allcheck guess
 =read
 ----------------------------------------------------------------------

 Structure from the checkpoint file:  "299.n.pdb.xyz.mst.wat.chk"
 -------------
 299.n.pdb.xyz
 -------------
 Charge =  0 Multiplicity = 1

                         Standard orientation:
 ---------------------------------------------------------------------
 Center     Atomic      Atomic             Coordinates (Angstroms)
 Number     Number       Type             X           Y           Z
 ---------------------------------------------------------------------
      1          8           0       -2.349817    0.715758   -0.000161
      2          6           0       -1.662192   -0.453727    0.000011
      3          8           0       -2.232516   -1.530750    0.000157
      4          6           0       -0.195884   -0.274729   -0.000019
      5          6           0        0.464916    0.978386    0.000020
      6          8           0       -0.157383    2.178352    0.000055
      7          6           0        1.869690    1.010836    0.000044
      8          6           0        2.605948   -0.166312    0.000003
      9          6           0        1.961491   -1.412126   -0.000055
     10          6           0        0.577347   -1.451219   -0.000053
     11          1           0       -3.309813    0.521352   -0.000048
     12          1           0       -1.127594    2.046002    0.000008
     13          1           0        2.356703    1.979530    0.000089
     14          1           0        3.689939   -0.115762    0.000013
     15          1           0        2.536973   -2.330559   -0.000095
     16          1           0        0.043617   -2.394095   -0.000081
 ---------------------------------------------------------------------

 SCF Done:  E(RB3LYP) =  -496.058947540     A.U. after   11 cycles

 The electronic state is 1-A.
 Alpha  occ. eigenvalues --  -19.20624 -19.18004 -19.14458 -10.33206 -10.26864
 Alpha  occ. eigenvalues --  -10.20875 -10.20362 -10.20179 -10.19320 -10.19082
 Alpha  occ. eigenvalues --   -1.11237  -1.06473  -1.01967  -0.86059  -0.77345
 Alpha  occ. eigenvalues --   -0.74836  -0.67230  -0.61633  -0.60184  -0.55997
 Alpha  occ. eigenvalues --   -0.51267  -0.49973  -0.47528  -0.45861  -0.45338
 Alpha  occ. eigenvalues --   -0.43914  -0.41951  -0.40982  -0.38850  -0.37046
 Alpha  occ. eigenvalues --   -0.34647  -0.34367  -0.32709  -0.28925  -0.26420
 Alpha  occ. eigenvalues --   -0.23219
 Alpha virt. eigenvalues --   -0.04901   0.00148   0.05375   0.09066   0.10116
 Alpha virt. eigenvalues --    0.14997   0.15453   0.17339   0.17471   0.18909
 Alpha virt. eigenvalues --    0.22814   0.24886   0.26649   0.29217   0.32184

 Mulliken charges:
               1
     1  O   -0.629847
     2  C    0.586778
     3  O   -0.525345
     4  C    0.027165
     5  C    0.296908
     6  O   -0.673109
     7  C   -0.179526
     8  C   -0.136918
     9  C   -0.158764
    10  C   -0.182913
    11  H    0.474138
    12  H    0.464804
    13  H    0.156697
    14  H    0.162012
    15  H    0.154822
    16  H    0.163098
 Sum of Mulliken charges =  -0.00000

 Dipole moment (field-independent basis, Debye):
    X=             -0.4701    Y=              1.3400    Z=             -0.0005  Tot=              1.4200
 Quadrupole moment (field-independent basis, Debye-Ang):
   XX=            -42.1546   YY=            -60.2318   ZZ=            -58.2610
   XY=             -9.4035   XZ=              0.0006   YZ=              0.0004

 Normal termination of Gaussian 16 at Wed Mar  2 04:46:13 2022.
