 Gaussian 16, Revision A.03,

 ----------------------------------------------------------------------
 #p b3lyp/6-31G(d) opt=(MaxStep=10,MaxCycles=1000) freq scf=(MaxCycle=2
 000,NoVarAcc,NoIncFock) scrf=(iefpcm,read,solvent=water)
 ----------------------------------------------------------------------

 -------------
 301.n.pdb.xyz
 -------------
 Symbolic Z-matrix:
 Charge =  0 Multiplicity = 1

 SCF Done:  E(RB3LYP) =  -788.443039663     A.U. after   12 cycles
 SCF Done:  E(RB3LYP) =  -788.446319703     A.U. after   10 cycles
 SCF Done:  E(RB3LYP) =  -788.443749080     A.U. after   10 cycles
 SCF Done:  E(RB3LYP) =  -788.447346062     A.U. after   10 cycles
 SCF Done:  E(RB3LYP) =  -788.447868705     A.U. after   10 cycles
 SCF Done:  E(RB3LYP) =  -788.448188461     A.U. after   10 cycles
 SCF Done:  E(RB3LYP) =  -788.448336858     A.U. after    9 cycles
 SCF Done:  E(RB3LYP) =  -788.448370686     A.U. after    9 cycles
 SCF Done:  E(RB3LYP) =  -788.448376163     A.U. after    8 cycles
 SCF Done:  E(RB3LYP) =  -788.448368482     A.U. after    8 cycles
 SCF Done:  E(RB3LYP) =  -788.452199743     A.U. after    9 cycles
 SCF Done:  E(RB3LYP) =  -788.452182329     A.U. after    9 cycles
 SCF Done:  E(RB3LYP) =  -788.452197762     A.U. after    9 cycles
 SCF Done:  E(RB3LYP) =  -788.452184475     A.U. after    9 cycles
 SCF Done:  E(RB3LYP) =  -788.452197017     A.U. after    9 cycles
 SCF Done:  E(RB3LYP) =  -788.452196533     A.U. after    7 cycles
 SCF Done:  E(RB3LYP) =  -788.452196223     A.U. after    6 cycles
 Optimization completed.
    -- Stationary point found.
 Normal termination of Gaussian 16 at Tue Mar  1 08:29:19 2022.

 --------------------------------------------------------------------
 #P Geom=AllCheck Guess=TCheck SCRF=Check GenChk RB3LYP/6-31G(d) Freq
 --------------------------------------------------------------------

 Structure from the checkpoint file:  "301.n.pdb.xyz.mst.wat.chk"
 -------------
 301.n.pdb.xyz
 -------------
 Charge =  0 Multiplicity = 1

 SCF Done:  E(RB3LYP) =  -788.452196223     A.U. after    1 cycles

  Exact polarizability: 249.827  -0.738 219.439 -26.887   2.149 149.329
 Approx polarizability: 258.540   0.411 242.618 -32.315   3.685 164.442

                      1                      2                      3
                      A                      A                      A
 Frequencies --      5.8008                32.5996                43.2599
 Red. masses --      3.6220                 3.6004                 4.1783
 Frc consts  --      0.0001                 0.0023                 0.0046
 IR Inten    --      0.5017                 0.5051                 1.1118

                      4                      5                      6
                      A                      A                      A
 Frequencies --     51.2836                87.3256               118.2746
 Red. masses --      3.7312                 4.2134                 3.8787
 Frc consts  --      0.0058                 0.0189                 0.0320
 IR Inten    --      3.1286                 2.5715                 5.0373

                      7                      8                      9
                      A                      A                      A
 Frequencies --    146.5533               148.5257               184.7447
 Red. masses --      3.0356                 2.9883                 1.6739
 Frc consts  --      0.0384                 0.0388                 0.0337
 IR Inten    --      1.9898                 0.3255                 1.6692

                     10                     11                     12
                      A                      A                      A
 Frequencies --    198.3558               216.0522               251.2145
 Red. masses --      3.6950                 2.4953                 2.0420
 Frc consts  --      0.0857                 0.0686                 0.0759
 IR Inten    --      1.8587                 4.7558                 0.4918

                     13                     14                     15
                      A                      A                      A
 Frequencies --    256.9860               268.2227               278.3837
 Red. masses --      1.0795                 1.5370                 1.8188
 Frc consts  --      0.0420                 0.0651                 0.0830
 IR Inten    --      0.7422                 1.9092                 1.8313

                     16                     17                     18
                      A                      A                      A
 Frequencies --    311.2582               342.9928               356.9293
 Red. masses --      4.3079                 2.2803                 2.7917
 Frc consts  --      0.2459                 0.1581                 0.2096
 IR Inten    --      3.7164                 1.0949                 5.1435

                     19                     20                     21
                      A                      A                      A
 Frequencies --    373.4429               399.1252               402.1641
 Red. masses --      4.4589                 3.7640                 1.1191
 Frc consts  --      0.3664                 0.3533                 0.1066
 IR Inten    --      6.1702                 4.2233               239.2143

                     22                     23                     24
                      A                      A                      A
 Frequencies --    437.8671               446.0363               451.0533
 Red. masses --      2.8042                 3.1576                 2.2264
 Frc consts  --      0.3168                 0.3701                 0.2669
 IR Inten    --      6.6863                 0.4897                 0.0366

                     25                     26                     27
                      A                      A                      A
 Frequencies --    473.4628               484.5883               496.8059
 Red. masses --      2.2011                 1.3814                 2.8628
 Frc consts  --      0.2907                 0.1911                 0.4163
 IR Inten    --     66.1320               149.4591                 1.4062

                     28                     29                     30
                      A                      A                      A
 Frequencies --    558.5663               574.8280               591.2104
 Red. masses --      2.7301                 1.9254                 1.9963
 Frc consts  --      0.5019                 0.3748                 0.4111
 IR Inten    --      8.9536                26.6430               153.9936

                     31                     32                     33
                      A                      A                      A
 Frequencies --    600.3801               663.5550               732.2262
 Red. masses --      3.3479                 4.4989                 4.3708
 Frc consts  --      0.7110                 1.1671                 1.3807
 IR Inten    --     17.6120                 5.3291                23.4915

                     34                     35                     36
                      A                      A                      A
 Frequencies --    756.9330               775.2981               801.6127
 Red. masses --      4.2321                 4.1564                 2.7036
 Frc consts  --      1.4286                 1.4720                 1.0236
 IR Inten    --      8.7951                14.7821                33.8690

                     37                     38                     39
                      A                      A                      A
 Frequencies --    825.8543               835.5663               907.1837
 Red. masses --      1.4529                 1.6126                 2.2774
 Frc consts  --      0.5838                 0.6633                 1.1043
 IR Inten    --      9.8972               146.0741                22.5332

                     40                     41                     42
                      A                      A                      A
 Frequencies --    918.3695               928.0194               928.5024
 Red. masses --      1.9691                 1.8733                 1.5606
 Frc consts  --      0.9785                 0.9505                 0.7927
 IR Inten    --     10.8920                 1.3666                48.0895

                     43                     44                     45
                      A                      A                      A
 Frequencies --    943.8817               948.3095               963.5804
 Red. masses --      1.7167                 1.3056                 2.0038
 Frc consts  --      0.9011                 0.6918                 1.0962
 IR Inten    --      8.6004                 0.5358                39.1526

                     46                     47                     48
                      A                      A                      A
 Frequencies --    967.6024              1001.4732              1036.7024
 Red. masses --      1.3087                 1.8878                 1.5598
 Frc consts  --      0.7219                 1.1155                 0.9877
 IR Inten    --      5.8300                10.6502                 6.8002

                     49                     50                     51
                      A                      A                      A
 Frequencies --   1046.5208              1051.4460              1084.8719
 Red. masses --      5.6673                 1.4588                 2.5529
 Frc consts  --      3.6569                 0.9502                 1.7703
 IR Inten    --    133.0739                 6.4679                43.9265

                     52                     53                     54
                      A                      A                      A
 Frequencies --   1106.4079              1114.4097              1126.1629
 Red. masses --      3.2061                 2.7830                 2.0098
 Frc consts  --      2.3124                 2.0363                 1.5018
 IR Inten    --    122.3443                59.9689                53.6095

                     55                     56                     57
                      A                      A                      A
 Frequencies --   1172.5061              1198.3890              1220.6316
 Red. masses --      1.6265                 1.3112                 1.4144
 Frc consts  --      1.3174                 1.1095                 1.2416
 IR Inten    --     34.8849                43.9369                47.6494

                     58                     59                     60
                      A                      A                      A
 Frequencies --   1224.8118              1241.3152              1262.9860
 Red. masses --      1.2615                 2.4826                 2.5434
 Frc consts  --      1.1150                 2.2538                 2.3904
 IR Inten    --    266.9412               108.2782                16.6289

                     61                     62                     63
                      A                      A                      A
 Frequencies --   1272.4589              1292.3098              1299.1285
 Red. masses --      2.4979                 3.4849                 1.3876
 Frc consts  --      2.3829                 3.4290                 1.3799
 IR Inten    --     42.2427               140.5309                37.9998

                     64                     65                     66
                      A                      A                      A
 Frequencies --   1310.6863              1333.7115              1356.9406
 Red. masses --      1.7489                 1.3113                 1.3188
 Frc consts  --      1.7701                 1.3743                 1.4307
 IR Inten    --     14.7059                58.9752                58.8113

                     67                     68                     69
                      A                      A                      A
 Frequencies --   1380.6459              1389.3926              1395.5419
 Red. masses --      1.9356                 1.2613                 1.6136
 Frc consts  --      2.1739                 1.4346                 1.8515
 IR Inten    --     28.1682                19.4163                41.6389

                     70                     71                     72
                      A                      A                      A
 Frequencies --   1407.4605              1421.3644              1437.1298
 Red. masses --      1.2713                 1.2851                 1.2334
 Frc consts  --      1.4838                 1.5297                 1.5009
 IR Inten    --     12.2974                 5.1906                17.8035

                     73                     74                     75
                      A                      A                      A
 Frequencies --   1441.6340              1463.6857              1478.9018
 Red. masses --      1.2877                 1.5704                 3.2189
 Frc consts  --      1.5768                 1.9823                 4.1479
 IR Inten    --    178.4734                95.9164                67.3378

                     76                     77                     78
                      A                      A                      A
 Frequencies --   1493.9796              1495.2636              1498.5874
 Red. masses --      1.0548                 1.0962                 1.0517
 Frc consts  --      1.3871                 1.4440                 1.3915
 IR Inten    --      4.4153                22.5426                 2.2062

                     79                     80                     81
                      A                      A                      A
 Frequencies --   1505.6709              1515.2323              1520.5529
 Red. masses --      1.0480                 1.0792                 1.0948
 Frc consts  --      1.3998                 1.4599                 1.4914
 IR Inten    --      1.0142                 4.3481                 0.6574

                     82                     83                     84
                      A                      A                      A
 Frequencies --   1523.9794              1531.7241              1538.5528
 Red. masses --      1.0717                 1.0669                 1.1778
 Frc consts  --      1.4665                 1.4748                 1.6426
 IR Inten    --      1.3189                10.9754                35.1683

                     85                     86                     87
                      A                      A                      A
 Frequencies --   1551.2643              1654.3121              1668.7195
 Red. masses --      2.7834                 6.1990                 6.5964
 Frc consts  --      3.9463                 9.9956                10.8224
 IR Inten    --     79.8904                13.8580                61.0913

                     88                     89                     90
                      A                      A                      A
 Frequencies --   2978.8727              3014.2904              3030.0058
 Red. masses --      1.0827                 1.0705                 1.0680
 Frc consts  --      5.6606                 5.7305                 5.7771
 IR Inten    --    129.2927               100.2379                74.4609

                     91                     92                     93
                      A                      A                      A
 Frequencies --   3047.4300              3051.9386              3065.6473
 Red. masses --      1.0357                 1.0359                 1.0364
 Frc consts  --      5.6668                 5.6850                 5.7387
 IR Inten    --     48.9392                54.8146                11.9066

                     94                     95                     96
                      A                      A                      A
 Frequencies --   3113.2879              3117.2339              3118.8213
 Red. masses --      1.1025                 1.1013                 1.0955
 Frc consts  --      6.2961                 6.3054                 6.2783
 IR Inten    --      5.2365                63.5413                95.4083

                     97                     98                     99
                      A                      A                      A
 Frequencies --   3121.2715              3123.8725              3129.4417
 Red. masses --      1.0933                 1.1021                 1.1032
 Frc consts  --      6.2753                 6.3364                 6.3658
 IR Inten    --     57.4057                43.7932                20.0839

                    100                    101                    102
                      A                      A                      A
 Frequencies --   3133.8712              3136.6127              3186.8051
 Red. masses --      1.0999                 1.1025                 1.0877
 Frc consts  --      6.3645                 6.3905                 6.5083
 IR Inten    --     73.4836                96.2298                23.4865

                    103                    104                    105
                      A                      A                      A
 Frequencies --   3204.5075              3211.9312              3473.3000
 Red. masses --      1.0942                 1.0895                 1.0743
 Frc consts  --      6.6200                 6.6222                 7.6359
 IR Inten    --     33.7774                 8.9329                 4.4989

                    106                    107                    108
                      A                      A                      A
 Frequencies --   3503.3810              3683.0963              3702.2416
 Red. masses --      1.0647                 1.0658                 1.0664
 Frc consts  --      7.6993                 8.5180                 8.6117
 IR Inten    --    344.3321               139.1611               185.6523

 - Thermochemistry -
 -------------------
 Temperature   298.150 Kelvin.  Pressure   1.00000 Atm.
 Atom     1 has atomic number  6 and mass  12.00000

 Molecular mass:   239.15214 amu.
 Principal axes and moments of inertia in atomic units:
                           1         2         3
     Eigenvalues --  1792.07740********************
           X            0.99999  -0.00325   0.00375
           Y            0.00333   0.99973  -0.02286
           Z           -0.00367   0.02288   0.99973
 This molecule is an asymmetric top.
 Rotational symmetry number  1.
 Warning -- assumption of classical behavior for rotation
           may cause significant error
 Rotational temperatures (Kelvin)      0.04833     0.00864     0.00824
 Rotational constants (GHZ):           1.00707     0.18001     0.17172
 Zero-point vibrational energy     865498.9 (Joules/Mol)
                                  206.85920 (Kcal/Mol)
 Warning -- explicit consideration of  31 degrees of freedom as
           vibrations may cause significant error
 Vibrational temperatures:      8.35    46.90    62.24    73.79   125.64
          (Kelvin)            170.17   210.86   213.70   265.81   285.39
                              310.85   361.44   369.75   385.91   400.53
                              447.83   493.49   513.54   537.30   574.25
                              578.62   629.99   641.75   648.97   681.21
                              697.21   714.79   803.65   827.05   850.62
                              863.81   954.71  1053.51  1089.06  1115.48
                             1153.34  1188.22  1202.19  1305.23  1321.33
                             1335.21  1335.91  1358.04  1364.41  1386.38
                             1392.16  1440.90  1491.58  1505.71  1512.80
                             1560.89  1591.87  1603.39  1620.30  1686.97
                             1724.21  1756.22  1762.23  1785.98  1817.16
                             1830.78  1859.35  1869.16  1885.79  1918.91
                             1952.33  1986.44  1999.03  2007.87  2025.02
                             2045.03  2067.71  2074.19  2105.92  2127.81
                             2149.50  2151.35  2156.13  2166.32  2180.08
                             2187.74  2192.67  2203.81  2213.63  2231.92
                             2380.19  2400.92  4285.93  4336.89  4359.50
                             4384.57  4391.06  4410.78  4479.33  4485.00
                             4487.29  4490.81  4494.56  4502.57  4508.94
                             4512.89  4585.10  4610.57  4621.25  4997.30
                             5040.58  5299.15  5326.70

 Zero-point correction=                           0.329651 (Hartree/Particle)
 Thermal correction to Energy=                    0.348050
 Thermal correction to Enthalpy=                  0.348994
 Thermal correction to Gibbs Free Energy=         0.281158
 Sum of electronic and zero-point Energies=           -788.122545
 Sum of electronic and thermal Energies=              -788.104147
 Sum of electronic and thermal Enthalpies=            -788.103202
 Sum of electronic and thermal Free Energies=         -788.171038

                     E (Thermal)             CV                S
                      KCal/Mol        Cal/Mol-Kelvin    Cal/Mol-Kelvin
 Total                  218.404             70.283            142.772
 Electronic               0.000              0.000              0.000
 Translational            0.889              2.981             42.317
 Rotational               0.889              2.981             33.601
 Vibrational            216.627             64.322             66.854
 Vibration     1          0.593              1.987              9.093
 Vibration     2          0.594              1.983              5.665
 Vibration     3          0.595              1.980              5.104
 Vibration     4          0.596              1.977              4.767
 Vibration     5          0.601              1.958              3.719
 Vibration     6          0.608              1.934              3.128
 Vibration     7          0.617              1.906              2.717
 Vibration     8          0.618              1.904              2.691
 Vibration     9          0.631              1.861              2.280
 Vibration    10          0.637              1.842              2.148
 Vibration    11          0.645              1.817              1.992
 Vibration    12          0.663              1.761              1.722
 Vibration    13          0.667              1.751              1.682
 Vibration    14          0.673              1.732              1.608
 Vibration    15          0.679              1.713              1.544
 Vibration    16          0.700              1.652              1.356
 Vibration    17          0.722              1.590              1.198
 Vibration    18          0.732              1.561              1.135
 Vibration    19          0.745              1.527              1.066
 Vibration    20          0.765              1.472              0.966
 Vibration    21          0.768              1.465              0.955
 Vibration    22          0.798              1.388              0.833
 Vibration    23          0.805              1.370              0.808
 Vibration    24          0.810              1.359              0.793
 Vibration    25          0.830              1.309              0.728
 Vibration    26          0.841              1.284              0.698
 Vibration    27          0.852              1.257              0.666
 Vibration    28          0.914              1.121              0.527
 Vibration    29          0.931              1.086              0.495
 Vibration    30          0.949              1.051              0.465
 Vibration    31          0.959              1.031              0.449

                           ! Non-Optimized Parameters !
 Normal termination of Gaussian 16 at Tue Mar  1 09:03:42 2022.

 ------------------------------------------
 #p b3lyp/6-31G(d) geom=allcheck guess=read
 ------------------------------------------

 Structure from the checkpoint file:  "301.n.pdb.xyz.mst.wat.chk"
 -------------
 301.n.pdb.xyz
 -------------
 Charge =  0 Multiplicity = 1

 SCF Done:  E(RB3LYP) =  -788.426590656     A.U. after   11 cycles
 Normal termination of Gaussian 16 at Tue Mar  1 09:06:07 2022.
 Gaussian 16:  ES64L-G16RevA.03 25-Dec-2016

 ----------------------------------------------------------------------
 #p b3lyp/6-31G(d) scrf=(iefpcm,read,solvent=water) geom=allcheck guess
 =read
 ----------------------------------------------------------------------

 Structure from the checkpoint file:  "301.n.pdb.xyz.mst.wat.chk"
 -------------
 301.n.pdb.xyz
 -------------
 Charge =  0 Multiplicity = 1

                         Standard orientation:
 ---------------------------------------------------------------------
 Center     Atomic      Atomic             Coordinates (Angstroms)
 Number     Number       Type             X           Y           Z
 ---------------------------------------------------------------------
      1          6           0        4.211510    0.618819    1.664475
      2          6           0        4.030138   -0.250606    0.406856
      3          6           0        3.672887   -1.689197    0.805746
      4          6           0        5.333269   -0.263244   -0.403758
      5          7           0        2.979765    0.287646   -0.495738
      6          6           0        1.652617    0.518810    0.080380
      7          6           0        0.644684    0.672108   -1.077742
      8          8           0        0.842136   -0.403634   -1.989054
      9          6           0       -0.783377    0.690069   -0.585158
     10          6           0       -1.478744   -0.502878   -0.351390
     11          6           0       -2.777157   -0.512701    0.153105
     12          6           0       -3.525948   -1.801244    0.407671
     13          8           0       -4.766377   -1.883972   -0.297907
     14          6           0       -3.398154    0.718684    0.431115
     15          8           0       -4.673306    0.658373    0.929711
     16          6           0       -2.729852    1.920531    0.195947
     17          6           0       -1.429676    1.897962   -0.312383
     18          1           0        5.011194    0.225116    2.300699
     19          1           0        4.472723    1.646657    1.389425
     20          1           0        3.294008    0.650289    2.259990
     21          1           0        3.517110   -2.307043   -0.083909
     22          1           0        4.485241   -2.128328    1.392123
     23          1           0        2.766017   -1.734004    1.416184
     24          1           0        6.154322   -0.679327    0.189293
     25          1           0        5.618312    0.750884   -0.705943
     26          1           0        5.218522   -0.869030   -1.307673
     27          1           0        3.317122    1.172260   -0.877874
     28          1           0        1.368343   -0.358928    0.666929
     29          1           0        1.593081    1.394797    0.741077
     30          1           0        0.851636    1.631520   -1.579825
     31          1           0        1.808216   -0.572877   -1.913663
     32          1           0       -0.994900   -1.445925   -0.583627
     33          1           0       -3.693367   -1.929839    1.487178
     34          1           0       -2.919967   -2.644141    0.067528
     35          1           0       -5.308333   -1.144928    0.032913
     36          1           0       -5.029393    1.556868    1.051775
     37          1           0       -3.223554    2.866168    0.399313
     38          1           0       -0.917498    2.837470   -0.502920
 ---------------------------------------------------------------------

 SCF Done:  E(RB3LYP) =  -788.450190747     A.U. after   11 cycles

 The electronic state is 1-A.
 Alpha  occ. eigenvalues --  -19.18199 -19.13699 -19.13149 -14.32167 -10.25056
 Alpha  occ. eigenvalues --  -10.23299 -10.23071 -10.22069 -10.20388 -10.19189
 Alpha  occ. eigenvalues --  -10.19119 -10.18975 -10.18840 -10.18787 -10.17005
 Alpha  occ. eigenvalues --  -10.16885 -10.16837  -1.06033  -1.01053  -1.00737
 Alpha  occ. eigenvalues --   -0.90514  -0.85507  -0.78617  -0.76875  -0.75372
 Alpha  occ. eigenvalues --   -0.69799  -0.68336  -0.68224  -0.67191  -0.63272
 Alpha  occ. eigenvalues --   -0.60868  -0.57067  -0.54949  -0.54218  -0.50426
 Alpha  occ. eigenvalues --   -0.49192  -0.48380  -0.47331  -0.46497  -0.45615
 Alpha  occ. eigenvalues --   -0.44784  -0.43771  -0.43362  -0.42538  -0.41862
 Alpha  occ. eigenvalues --   -0.40843  -0.40603  -0.39533  -0.38572  -0.37611
 Alpha  occ. eigenvalues --   -0.37160  -0.36588  -0.36183  -0.35564  -0.34684
 Alpha  occ. eigenvalues --   -0.33534  -0.33420  -0.32619  -0.32287  -0.31591
 Alpha  occ. eigenvalues --   -0.26827  -0.26340  -0.25138  -0.23345  -0.21744
 Alpha virt. eigenvalues --   -0.00583   0.00590   0.07592   0.08542   0.10384
 Alpha virt. eigenvalues --    0.11419   0.12182   0.12799   0.13019   0.13432
 Alpha virt. eigenvalues --    0.14140   0.14354   0.15408   0.15761   0.16165

 Mulliken charges:
               1
     1  C   -0.455114
     2  C    0.216314
     3  C   -0.451074
     4  C   -0.458621
     5  N   -0.610593
     6  C   -0.147518
     7  C    0.071037
     8  O   -0.695871
     9  C    0.141676
    10  C   -0.264979
    11  C    0.110189
    12  C   -0.116140
    13  O   -0.678529
    14  C    0.294479
    15  O   -0.685963
    16  C   -0.202159
    17  C   -0.214447
    18  H    0.146780
    19  H    0.143613
    20  H    0.150946
    21  H    0.148259
    22  H    0.148566
    23  H    0.150481
    24  H    0.150044
    25  H    0.145307
    26  H    0.148914
    27  H    0.332664
    28  H    0.154758
    29  H    0.139279
    30  H    0.123128
    31  H    0.415442
    32  H    0.142479
    33  H    0.144548
    34  H    0.157829
    35  H    0.434107
    36  H    0.467031
    37  H    0.155787
    38  H    0.147350
 Sum of Mulliken charges =  -0.00000

 Dipole moment (field-independent basis, Debye):
    X=              2.7342    Y=              5.4047    Z=              3.9056  Tot=              7.2070
 Quadrupole moment (field-independent basis, Debye-Ang):
   XX=            -87.3589   YY=            -96.3989   ZZ=           -109.8925
   XY=            -17.3722   XZ=             -8.7523   YZ=             -2.8027

 Normal termination of Gaussian 16 at Tue Mar  1 09:09:06 2022.
