 Gaussian 16, Revision A.03,

 ----------------------------------------------------------------------
 #p b3lyp/6-31G(d) opt=(MaxStep=10,MaxCycles=1000) freq scf=(MaxCycle=2
 000,NoVarAcc,NoIncFock) scrf=(iefpcm,read,solvent=water)
 ----------------------------------------------------------------------

 -------------
 302.n.pdb.xyz
 -------------
 Symbolic Z-matrix:
 Charge =  0 Multiplicity = 1

 SCF Done:  E(RB3LYP) =  -1059.67398704     A.U. after   13 cycles
 SCF Done:  E(RB3LYP) =  -1059.67917270     A.U. after   11 cycles
 SCF Done:  E(RB3LYP) =  -1059.68027381     A.U. after   11 cycles
 SCF Done:  E(RB3LYP) =  -1059.68195695     A.U. after   11 cycles
 SCF Done:  E(RB3LYP) =  -1059.68289816     A.U. after   10 cycles
 SCF Done:  E(RB3LYP) =  -1059.68385914     A.U. after   11 cycles
 SCF Done:  E(RB3LYP) =  -1059.68418889     A.U. after   10 cycles
 SCF Done:  E(RB3LYP) =  -1059.68449548     A.U. after   10 cycles
 SCF Done:  E(RB3LYP) =  -1059.68454117     A.U. after    9 cycles
 SCF Done:  E(RB3LYP) =  -1059.68456568     A.U. after    9 cycles
 SCF Done:  E(RB3LYP) =  -1059.68458987     A.U. after    8 cycles
 SCF Done:  E(RB3LYP) =  -1059.68459599     A.U. after    7 cycles
 SCF Done:  E(RB3LYP) =  -1059.68460791     A.U. after    8 cycles
 SCF Done:  E(RB3LYP) =  -1059.68461227     A.U. after    8 cycles
 SCF Done:  E(RB3LYP) =  -1059.68461372     A.U. after    7 cycles
 SCF Done:  E(RB3LYP) =  -1059.68461336     A.U. after    7 cycles
 SCF Done:  E(RB3LYP) =  -1059.68461378     A.U. after    7 cycles
 Optimization completed.
    -- Stationary point found.
 Normal termination of Gaussian 16 at Tue Mar  1 16:09:05 2022.

 --------------------------------------------------------------------
 #P Geom=AllCheck Guess=TCheck SCRF=Check GenChk RB3LYP/6-31G(d) Freq
 --------------------------------------------------------------------

 Structure from the checkpoint file:  "302.n.pdb.xyz.mst.wat.chk"
 -------------
 302.n.pdb.xyz
 -------------
 Charge =  0 Multiplicity = 1

 SCF Done:  E(RB3LYP) =  -1059.68461378     A.U. after    1 cycles

  Exact polarizability: 342.628   7.628 280.633   5.084   6.675  79.105
 Approx polarizability: 355.458   5.123 332.918   4.481   7.829  95.212

                      1                      2                      3
                      A                      A                      A
 Frequencies --     23.7543                58.8763                72.2864
 Red. masses --      4.2853                 4.4628                 5.2746
 Frc consts  --      0.0014                 0.0091                 0.0162
 IR Inten    --     11.7389                 1.3463                 5.3609

                      4                      5                      6
                      A                      A                      A
 Frequencies --     86.3504               103.1467               167.7754
 Red. masses --      4.5914                 4.5439                 4.5918
 Frc consts  --      0.0202                 0.0285                 0.0762
 IR Inten    --     79.7105                51.5377                26.4321

                      7                      8                      9
                      A                      A                      A
 Frequencies --    196.5260               228.7698               261.4681
 Red. masses --      1.5963                 3.7064                 4.9282
 Frc consts  --      0.0363                 0.1143                 0.1985
 IR Inten    --    262.3951                 8.1288                 8.3410

                     10                     11                     12
                      A                      A                      A
 Frequencies --    277.3755               299.0913               331.5073
 Red. masses --      5.3265                 5.8086                 1.0774
 Frc consts  --      0.2415                 0.3061                 0.0698
 IR Inten    --     13.0332                 8.9561                38.8427

                     13                     14                     15
                      A                      A                      A
 Frequencies --    335.9073               349.9246               379.6747
 Red. masses --      6.6943                 5.7384                 1.1378
 Frc consts  --      0.4450                 0.4140                 0.0966
 IR Inten    --     27.8290                 1.4058               506.4445

                     16                     17                     18
                      A                      A                      A
 Frequencies --    411.8165               453.9397               461.6941
 Red. masses --      3.6288                 3.1113                 1.2161
 Frc consts  --      0.3626                 0.3777                 0.1527
 IR Inten    --      0.8822                 6.3959               278.4631

                     19                     20                     21
                      A                      A                      A
 Frequencies --    494.5831               540.8571               542.6553
 Red. masses --      3.9462                 6.1981                 2.7890
 Frc consts  --      0.5687                 1.0682                 0.4839
 IR Inten    --      1.5468                 6.0060                 4.4724

                     22                     23                     24
                      A                      A                      A
 Frequencies --    566.9686               606.4581               611.4148
 Red. masses --      3.5128                 6.2554                 2.3008
 Frc consts  --      0.6653                 1.3555                 0.5068
 IR Inten    --     98.8973                16.5877                30.0156

                     25                     26                     27
                      A                      A                      A
 Frequencies --    637.7635               653.2410               679.7074
 Red. masses --      1.3500                 1.9808                 6.9702
 Frc consts  --      0.3235                 0.4980                 1.8973
 IR Inten    --    299.6155               244.8755                43.5558

                     28                     29                     30
                      A                      A                      A
 Frequencies --    702.4660               710.9835               733.6543
 Red. masses --      2.7536                 1.8079                 8.8868
 Frc consts  --      0.8006                 0.5384                 2.8183
 IR Inten    --     62.8407                 9.5884                48.5195

                     31                     32                     33
                      A                      A                      A
 Frequencies --    740.9461               803.2091               812.0158
 Red. masses --      1.8400                 1.6347                 6.8687
 Frc consts  --      0.5952                 0.6214                 2.6684
 IR Inten    --     95.5519                44.8970                36.0024

                     34                     35                     36
                      A                      A                      A
 Frequencies --    840.7846               871.4813               887.3180
 Red. masses --      6.5711                 1.7828                 1.9323
 Frc consts  --      2.7369                 0.7978                 0.8964
 IR Inten    --     85.2189                52.9708                12.9271

                     37                     38                     39
                      A                      A                      A
 Frequencies --    892.8055               971.6913               975.1459
 Red. masses --      2.0366                 1.2574                 4.6835
 Frc consts  --      0.9564                 0.6995                 2.6240
 IR Inten    --     15.8723                 1.0142                26.2938

                     40                     41                     42
                      A                      A                      A
 Frequencies --    994.4762              1010.1431              1086.9998
 Red. masses --      4.6246                 5.9548                 1.8591
 Frc consts  --      2.6947                 3.5800                 1.2943
 IR Inten    --     87.4915                 6.1391                46.3206

                     43                     44                     45
                      A                      A                      A
 Frequencies --   1098.4257              1104.6183              1124.8193
 Red. masses --      1.5910                 1.3849                 1.8392
 Frc consts  --      1.1310                 0.9957                 1.3710
 IR Inten    --      5.6746                 9.6465                 9.7976

                     46                     47                     48
                      A                      A                      A
 Frequencies --   1150.7770              1193.0712              1223.0588
 Red. masses --      1.2592                 1.1292                 1.5991
 Frc consts  --      0.9825                 0.9470                 1.4093
 IR Inten    --      5.9953                 5.5778                 6.0520

                     49                     50                     51
                      A                      A                      A
 Frequencies --   1282.7228              1310.1567              1323.3656
 Red. masses --      4.3943                 2.9255                 2.3675
 Frc consts  --      4.2600                 2.9586                 2.4428
 IR Inten    --    254.0858                40.6648                40.9443

                     52                     53                     54
                      A                      A                      A
 Frequencies --   1368.9531              1371.8892              1501.1062
 Red. masses --      2.3408                 5.4858                 3.6045
 Frc consts  --      2.5846                 6.0832                 4.7853
 IR Inten    --    111.1068               119.9596               535.1149

                     55                     56                     57
                      A                      A                      A
 Frequencies --   1507.7693              1520.0188              1532.1130
 Red. masses --      2.7219                 3.0957                 5.8763
 Frc consts  --      3.6458                 4.2142                 8.1271
 IR Inten    --     66.9785                29.5123              1074.7484

                     58                     59                     60
                      A                      A                      A
 Frequencies --   1545.8047              1570.2723              1631.7086
 Red. masses --      2.6018                 4.7424                 1.7722
 Frc consts  --      3.6630                 6.8896                 2.7800
 IR Inten    --    834.9910               135.3586               799.1848

                     61                     62                     63
                      A                      A                      A
 Frequencies --   1634.9931              1652.4388              1658.4381
 Red. masses --      5.4727                 1.3333                 4.4014
 Frc consts  --      8.6195                 2.1451                 7.1325
 IR Inten    --    110.5253               631.5967               122.7923

                     64                     65                     66
                      A                      A                      A
 Frequencies --   1673.4858              3194.0012              3198.8850
 Red. masses --      1.1880                 1.0878                 1.0893
 Frc consts  --      1.9603                 6.5386                 6.5674
 IR Inten    --    176.9353                19.3177                30.0745

                     67                     68                     69
                      A                      A                      A
 Frequencies --   3214.2878              3240.4339              3292.6634
 Red. masses --      1.0919                 1.0925                 1.0939
 Frc consts  --      6.6465                 6.7589                 6.9877
 IR Inten    --     46.3683                14.0782                 4.3066

                     70                     71                     72
                      A                      A                      A
 Frequencies --   3489.8181              3534.5972              3569.0607
 Red. masses --      1.0543                 1.0494                 1.0478
 Frc consts  --      7.5651                 7.7242                 7.8638
 IR Inten    --    245.4972                60.5532               158.0511

                     73                     74                     75
                      A                      A                      A
 Frequencies --   3627.5233              3656.5562              3677.9612
 Red. masses --      1.0984                 1.0996                 1.1034
 Frc consts  --      8.5156                 8.6620                 8.7940
 IR Inten    --     41.0202               264.0149               107.7228

 - Thermochemistry -
 -------------------
 Temperature   298.150 Kelvin.  Pressure   1.00000 Atm.
 Atom     1 has atomic number  7 and mass  14.00307

 Molecular mass:   233.07352 amu.
 Principal axes and moments of inertia in atomic units:
                           1         2         3
     Eigenvalues --  1777.801937583.182829298.84651
           X            0.99991   0.01314   0.00246
           Y           -0.01316   0.99990   0.00534
           Z           -0.00239  -0.00537   0.99998
 This molecule is an asymmetric top.
 Rotational symmetry number  1.
 Warning -- assumption of classical behavior for rotation
           may cause significant error
 Rotational temperatures (Kelvin)      0.04872     0.01142     0.00931
 Rotational constants (GHZ):           1.01515     0.23799     0.19408
 Zero-point vibrational energy     547551.4 (Joules/Mol)
                                  130.86793 (Kcal/Mol)
 Warning -- explicit consideration of  24 degrees of freedom as
           vibrations may cause significant error
 Vibrational temperatures:     34.18    84.71   104.00   124.24   148.41
          (Kelvin)            241.39   282.76   329.15   376.19   399.08
                              430.33   476.97   483.30   503.46   546.27
                              592.51   653.12   664.27   711.59   778.17
                              780.76   815.74   872.56   879.69   917.60
                              939.87   977.95  1010.69  1022.95  1055.56
                             1066.06  1155.64  1168.31  1209.70  1253.87
                             1276.65  1284.55  1398.05  1403.02  1430.83
                             1453.37  1563.95  1580.39  1589.30  1618.36
                             1655.71  1716.56  1759.71  1845.55  1885.02
                             1904.03  1969.62  1973.84  2159.76  2169.34
                             2186.97  2204.37  2224.07  2259.27  2347.66
                             2352.39  2377.49  2386.12  2407.77  4595.46
                             4602.48  4624.64  4662.26  4737.41  5021.07
                             5085.50  5135.08  5219.20  5260.97  5291.77

 Zero-point correction=                           0.208551 (Hartree/Particle)
 Thermal correction to Energy=                    0.223376
 Thermal correction to Enthalpy=                  0.224321
 Thermal correction to Gibbs Free Energy=         0.165813
 Sum of electronic and zero-point Energies=          -1059.476062
 Sum of electronic and thermal Energies=             -1059.461237
 Sum of electronic and thermal Enthalpies=           -1059.460293
 Sum of electronic and thermal Free Energies=        -1059.518801

                     E (Thermal)             CV                S
                      KCal/Mol        Cal/Mol-Kelvin    Cal/Mol-Kelvin
 Total                  140.171             57.528            123.139
 Electronic               0.000              0.000              0.000
 Translational            0.889              2.981             42.240
 Rotational               0.889              2.981             33.194
 Vibrational            138.393             51.566             47.705
 Vibration     1          0.593              1.985              6.293
 Vibration     2          0.596              1.974              4.495
 Vibration     3          0.598              1.967              4.090
 Vibration     4          0.601              1.959              3.741
 Vibration     5          0.605              1.947              3.394
 Vibration     6          0.625              1.882              2.460
 Vibration     7          0.636              1.845              2.165
 Vibration     8          0.651              1.797              1.889
 Vibration     9          0.669              1.743              1.652
 Vibration    10          0.678              1.715              1.550
 Vibration    11          0.692              1.675              1.422
 Vibration    12          0.714              1.613              1.253
 Vibration    13          0.717              1.604              1.232
 Vibration    14          0.727              1.575              1.167
 Vibration    15          0.750              1.513              1.040
 Vibration    16          0.776              1.445              0.920
 Vibration    17          0.812              1.352              0.784
 Vibration    18          0.819              1.335              0.761
 Vibration    19          0.850              1.262              0.672
 Vibration    20          0.896              1.160              0.563
 Vibration    21          0.898              1.156              0.560
 Vibration    22          0.923              1.103              0.510
 Vibration    23          0.965              1.018              0.439
 Vibration    24          0.971              1.008              0.430

 Optimization completed.
    -- Stationary point found.
 Normal termination of Gaussian 16 at Tue Mar  1 16:28:56 2022.

 ------------------------------------------
 #p b3lyp/6-31G(d) geom=allcheck guess=read
 ------------------------------------------

 Structure from the checkpoint file:  "302.n.pdb.xyz.mst.wat.chk"
 -------------
 302.n.pdb.xyz
 -------------
 Charge =  0 Multiplicity = 1

 SCF Done:  E(RB3LYP) =  -1059.64840919     A.U. after   12 cycles
 Normal termination of Gaussian 16 at Tue Mar  1 16:30:40 2022.
 Gaussian 16:  ES64L-G16RevA.03 25-Dec-2016

 ----------------------------------------------------------------------
 #p b3lyp/6-31G(d) scrf=(iefpcm,read,solvent=water) geom=allcheck guess
 =read
 ----------------------------------------------------------------------

 Structure from the checkpoint file:  "302.n.pdb.xyz.mst.wat.chk"
 -------------
 302.n.pdb.xyz
 -------------
 Charge =  0 Multiplicity = 1

                         Standard orientation:
 ---------------------------------------------------------------------
 Center     Atomic      Atomic             Coordinates (Angstroms)
 Number     Number       Type             X           Y           Z
 ---------------------------------------------------------------------
      1          7           0       -2.878282   -2.014234    0.161093
      2          6           0       -3.702071   -0.950858    0.123428
      3          7           0       -5.039098   -1.183978    0.242189
      4          7           0       -3.316331    0.319287    0.004580
      5          6           0       -2.004862    0.641722   -0.039681
      6          7           0       -0.927657   -0.120945   -0.019802
      7          6           0        0.245871    0.618066   -0.074761
      8          6           0        0.076851    1.974682   -0.143403
      9         16           0       -1.613084    2.380503   -0.135707
     10          6           0        1.543582   -0.087272   -0.074156
     11          6           0        2.737402    0.611505    0.156602
     12          6           0        3.981250   -0.038354    0.143000
     13          7           0        5.164924    0.681699    0.305545
     14          6           0        4.012229   -1.426367   -0.096947
     15          6           0        2.827704   -2.122786   -0.319101
     16          6           0        1.594437   -1.470833   -0.310548
     17          1           0       -1.881135   -1.826561    0.215431
     18          1           0       -3.237877   -2.932248    0.388482
     19          1           0       -5.643347   -0.424653   -0.046060
     20          1           0       -5.380538   -2.114476    0.033556
     21          1           0        0.833793    2.739737   -0.221843
     22          1           0        2.705357    1.677303    0.362142
     23          1           0        5.064150    1.543925    0.831138
     24          1           0        5.940153    0.133613    0.663830
     25          1           0        4.965520   -1.947092   -0.104738
     26          1           0        2.867307   -3.191591   -0.500513
     27          1           0        0.676702   -2.015850   -0.491945
 ---------------------------------------------------------------------

 SCF Done:  E(RB3LYP) =  -1059.68279623     A.U. after   12 cycles

 The electronic state is 1-A.
 Alpha  occ. eigenvalues --  -88.90112 -14.34851 -14.34723 -14.32917 -14.32339
 Alpha  occ. eigenvalues --  -14.31087 -10.30569 -10.27640 -10.22682 -10.22286
 Alpha  occ. eigenvalues --  -10.20560 -10.19952 -10.18745 -10.18107 -10.18104
 Alpha  occ. eigenvalues --  -10.17682  -7.96300  -5.92689  -5.92357  -5.91979
 Alpha  occ. eigenvalues --   -0.99653  -0.95347  -0.90990  -0.87707  -0.87429
 Alpha  occ. eigenvalues --   -0.83539  -0.78746  -0.76428  -0.72431  -0.70526
 Alpha  occ. eigenvalues --   -0.63725  -0.61773  -0.59379  -0.57599  -0.57060
 Alpha  occ. eigenvalues --   -0.54043  -0.51635  -0.51042  -0.49216  -0.47495
 Alpha  occ. eigenvalues --   -0.47367  -0.46801  -0.43658  -0.43433  -0.42451
 Alpha  occ. eigenvalues --   -0.41363  -0.40368  -0.39873  -0.37890  -0.36870
 Alpha  occ. eigenvalues --   -0.35606  -0.33529  -0.31880  -0.29346  -0.28150
 Alpha  occ. eigenvalues --   -0.27972  -0.27317  -0.26830  -0.24491  -0.20434
 Alpha  occ. eigenvalues --   -0.19306
 Alpha virt. eigenvalues --   -0.03032  -0.00577   0.01328   0.02528   0.06951
 Alpha virt. eigenvalues --    0.09421   0.09756   0.09994   0.11149   0.11932
 Alpha virt. eigenvalues --    0.13170   0.14173   0.14638   0.15821   0.17599

 Mulliken charges:
               1
     1  N   -0.779941
     2  C    0.656114
     3  N   -0.771501
     4  N   -0.617768
     5  C    0.303704
     6  N   -0.581603
     7  C    0.269417
     8  C   -0.430768
     9  S    0.175821
    10  C    0.101841
    11  C   -0.261302
    12  C    0.289531
    13  N   -0.833623
    14  C   -0.196467
    15  C   -0.162119
    16  C   -0.216142
    17  H    0.399593
    18  H    0.391562
    19  H    0.383282
    20  H    0.387836
    21  H    0.194865
    22  H    0.139626
    23  H    0.364287
    24  H    0.364134
    25  H    0.140456
    26  H    0.144233
    27  H    0.144933
 Sum of Mulliken charges =  -0.00000

 Dipole moment (field-independent basis, Debye):
    X=             -1.3410    Y=             -4.7250    Z=              1.6903  Tot=              5.1944
 Quadrupole moment (field-independent basis, Debye-Ang):
   XX=            -51.6968   YY=            -81.5981   ZZ=           -104.4551
   XY=             25.5936   XZ=             12.1548   YZ=              1.5527

 Normal termination of Gaussian 16 at Tue Mar  1 16:32:44 2022.
