 Gaussian 16, Revision A.03,

 ----------------------------------------------------------------------
 #p b3lyp/6-31G(d) opt=(MaxStep=10,MaxCycles=1000) freq scf=(MaxCycle=2
 000,NoVarAcc,NoIncFock) scrf=(iefpcm,read,solvent=water)
 ----------------------------------------------------------------------

 -------------
 304.n.pdb.xyz
 -------------
 Symbolic Z-matrix:
 Charge =  0 Multiplicity = 1

 SCF Done:  E(RB3LYP) =  -740.733401519     A.U. after   13 cycles
 SCF Done:  E(RB3LYP) =  -740.738405935     A.U. after   10 cycles
 SCF Done:  E(RB3LYP) =  -740.740226261     A.U. after   11 cycles
 SCF Done:  E(RB3LYP) =  -740.741760828     A.U. after   10 cycles
 SCF Done:  E(RB3LYP) =  -740.741761582     A.U. after   10 cycles
 SCF Done:  E(RB3LYP) =  -740.741896620     A.U. after   10 cycles
 SCF Done:  E(RB3LYP) =  -740.742041903     A.U. after   10 cycles
 SCF Done:  E(RB3LYP) =  -740.742063944     A.U. after    9 cycles
 SCF Done:  E(RB3LYP) =  -740.742078237     A.U. after    9 cycles
 SCF Done:  E(RB3LYP) =  -740.742089048     A.U. after    9 cycles
 SCF Done:  E(RB3LYP) =  -740.742140171     A.U. after   10 cycles
 SCF Done:  E(RB3LYP) =  -740.742139188     A.U. after    8 cycles
 SCF Done:  E(RB3LYP) =  -740.742133622     A.U. after   10 cycles
 SCF Done:  E(RB3LYP) =  -740.742139518     A.U. after   10 cycles
 SCF Done:  E(RB3LYP) =  -740.742139585     A.U. after    8 cycles
 SCF Done:  E(RB3LYP) =  -740.742139581     A.U. after    7 cycles
 SCF Done:  E(RB3LYP) =  -740.742139585     A.U. after    7 cycles
 Optimization completed.
    -- Stationary point found.
 Normal termination of Gaussian 16 at Tue Mar  1 21:15:20 2022.

 --------------------------------------------------------------------
 #P Geom=AllCheck Guess=TCheck SCRF=Check GenChk RB3LYP/6-31G(d) Freq
 --------------------------------------------------------------------

 Structure from the checkpoint file:  "304.n.pdb.xyz.mst.wat.chk"
 -------------
 304.n.pdb.xyz
 -------------
 Charge =  0 Multiplicity = 1

 SCF Done:  E(RB3LYP) =  -740.742139585     A.U. after    1 cycles

  Exact polarizability: 213.329 -19.177 171.242   7.209 -12.644 100.140
 Approx polarizability: 217.407 -22.725 198.690   9.123 -17.329 114.069

                      1                      2                      3
                      A                      A                      A
 Frequencies --      8.5637                39.1577                60.2658
 Red. masses --      4.9077                 5.7568                 3.7064
 Frc consts  --      0.0002                 0.0052                 0.0079
 IR Inten    --      2.3989                 3.7071                15.1437

                      4                      5                      6
                      A                      A                      A
 Frequencies --    104.2567               134.8582               156.0324
 Red. masses --      4.0133                 3.3277                 2.5190
 Frc consts  --      0.0257                 0.0357                 0.0361
 IR Inten    --     13.7807                14.9651                 6.5303

                      7                      8                      9
                      A                      A                      A
 Frequencies --    183.7122               197.9804               220.2738
 Red. masses --      1.4124                 3.5235                 4.6556
 Frc consts  --      0.0281                 0.0814                 0.1331
 IR Inten    --    395.3779                35.8896                11.4897

                     10                     11                     12
                      A                      A                      A
 Frequencies --    230.9572               247.9500               266.3622
 Red. masses --      3.2936                 1.8660                 2.5237
 Frc consts  --      0.1035                 0.0676                 0.1055
 IR Inten    --     63.4003                92.8308                54.5253

                     13                     14                     15
                      A                      A                      A
 Frequencies --    363.8247               378.0669               424.7790
 Red. masses --      4.4169                 3.6275                 2.7632
 Frc consts  --      0.3445                 0.3055                 0.2938
 IR Inten    --      9.5778                 5.1954                 6.0197

                     16                     17                     18
                      A                      A                      A
 Frequencies --    437.6393               470.0064               539.5988
 Red. masses --      2.4343                 4.2294                 3.7943
 Frc consts  --      0.2747                 0.5505                 0.6509
 IR Inten    --     10.8966                 3.1520                12.4123

                     19                     20                     21
                      A                      A                      A
 Frequencies --    545.4456               593.7524               603.2441
 Red. masses --      1.1876                 6.9926                 3.1426
 Frc consts  --      0.2082                 1.4524                 0.6738
 IR Inten    --     16.4475                 7.4368                 8.4960

                     22                     23                     24
                      A                      A                      A
 Frequencies --    640.4783               671.0830               726.0477
 Red. masses --      5.3492                 3.6738                 2.4456
 Frc consts  --      1.2929                 0.9748                 0.7596
 IR Inten    --      0.8326                20.2146                 4.5444

                     25                     26                     27
                      A                      A                      A
 Frequencies --    776.6474               784.3699               787.9712
 Red. masses --      3.7186                 3.0035                 6.8082
 Frc consts  --      1.3215                 1.0887                 2.4906
 IR Inten    --     96.3612                 0.6181                 8.9095

                     28                     29                     30
                      A                      A                      A
 Frequencies --    810.3969               848.2959               891.7965
 Red. masses --      4.3272                 2.0114                 2.3864
 Frc consts  --      1.6744                 0.8528                 1.1182
 IR Inten    --     12.0381                10.3539                23.2639

                     31                     32                     33
                      A                      A                      A
 Frequencies --    944.3969               963.8808               977.3753
 Red. masses --      2.6284                 2.0133                 1.4498
 Frc consts  --      1.3812                 1.1021                 0.8160
 IR Inten    --     22.6221                48.0070                 3.9136

                     34                     35                     36
                      A                      A                      A
 Frequencies --    990.6999               999.8287              1028.0669
 Red. masses --      1.8647                 1.4811                 3.0577
 Frc consts  --      1.0783                 0.8724                 1.9041
 IR Inten    --      2.8926                 7.2385                32.9595

                     37                     38                     39
                      A                      A                      A
 Frequencies --   1079.5578              1093.1084              1105.1851
 Red. masses --      3.2272                 5.3348                 2.5559
 Frc consts  --      2.2160                 3.7557                 1.8393
 IR Inten    --    230.6365               101.7708               149.2899

                     40                     41                     42
                      A                      A                      A
 Frequencies --   1122.9056              1127.2243              1153.8805
 Red. masses --      1.9243                 2.5343                 2.1474
 Frc consts  --      1.4296                 1.8972                 1.6846
 IR Inten    --    193.2807                52.8787                37.1015

                     43                     44                     45
                      A                      A                      A
 Frequencies --   1195.7891              1214.2568              1219.6488
 Red. masses --      1.4918                 1.7232                 1.5213
 Frc consts  --      1.2568                 1.4970                 1.3333
 IR Inten    --     30.4442                27.7107                47.4899

                     46                     47                     48
                      A                      A                      A
 Frequencies --   1256.2824              1262.0950              1276.5304
 Red. masses --      1.1574                 1.2257                 4.4961
 Frc consts  --      1.0763                 1.1503                 4.3166
 IR Inten    --     60.0679                 9.8246                72.5540

                     49                     50                     51
                      A                      A                      A
 Frequencies --   1309.9840              1317.3401              1334.5796
 Red. masses --      1.9937                 1.3450                 1.3014
 Frc consts  --      2.0158                 1.3752                 1.3657
 IR Inten    --    150.7388                 6.9193                20.7488

                     52                     53                     54
                      A                      A                      A
 Frequencies --   1351.2265              1373.8729              1383.5410
 Red. masses --      1.3236                 1.3447                 1.6774
 Frc consts  --      1.4238                 1.4955                 1.8918
 IR Inten    --     18.1069                 1.4050               213.0426

                     55                     56                     57
                      A                      A                      A
 Frequencies --   1418.3373              1441.8108              1484.9624
 Red. masses --      1.4753                 1.8585                 1.6118
 Frc consts  --      1.7485                 2.2763                 2.0941
 IR Inten    --     18.2586               126.9147                 4.7567

                     58                     59                     60
                      A                      A                      A
 Frequencies --   1506.8940              1511.4842              1520.0303
 Red. masses --      1.0930                 3.6780                 1.1300
 Frc consts  --      1.4622                 4.9507                 1.5383
 IR Inten    --     15.8293               544.0609                16.2195

                     61                     62                     63
                      A                      A                      A
 Frequencies --   1544.2673              1563.1892              1632.6930
 Red. masses --      1.0848                 4.6824                 1.4006
 Frc consts  --      1.5242                 6.7412                 2.1997
 IR Inten    --      4.6735               272.4209               522.6904

                     64                     65                     66
                      A                      A                      A
 Frequencies --   1679.8861              1703.8306              3016.7652
 Red. masses --      5.5978                 9.1502                 1.0556
 Frc consts  --      9.3074                15.6507                 5.6604
 IR Inten    --    786.6422               930.0013                79.1992

                     67                     68                     69
                      A                      A                      A
 Frequencies --   3034.4871              3056.1560              3078.6000
 Red. masses --      1.0859                 1.1061                 1.0682
 Frc consts  --      5.8912                 6.0867                 5.9648
 IR Inten    --     42.0057               138.6819                49.4269

                     70                     71                     72
                      A                      A                      A
 Frequencies --   3092.1021              3125.4360              3150.4924
 Red. masses --      1.0666                 1.0863                 1.0986
 Frc consts  --      6.0085                 6.2522                 6.4244
 IR Inten    --     26.9567                33.8282                29.6799

                     73                     74                     75
                      A                      A                      A
 Frequencies --   3162.8495              3253.1209              3276.4104
 Red. masses --      1.1009                 1.0918                 1.0956
 Frc consts  --      6.4886                 6.8079                 6.9296
 IR Inten    --     36.9927                 1.2795                 5.2773

                     76                     77                     78
                      A                      A                      A
 Frequencies --   3584.4516              3703.6097              3742.2330
 Red. masses --      1.0466                 1.1063                 1.0665
 Frc consts  --      7.9228                 8.9405                 8.8001
 IR Inten    --    243.3307               127.0511               100.0298

 - Thermochemistry -
 -------------------
 Temperature   298.150 Kelvin.  Pressure   1.00000 Atm.
 Atom     1 has atomic number  7 and mass  14.00307

 Molecular mass:   211.09569 amu.
 Principal axes and moments of inertia in atomic units:
                           1         2         3
     Eigenvalues --  1169.410456092.224236864.25628
           X            0.99993  -0.01106   0.00281
           Y            0.01101   0.99982   0.01536
           Z           -0.00298  -0.01533   0.99988
 This molecule is an asymmetric top.
 Rotational symmetry number  1.
 Warning -- assumption of classical behavior for rotation
           may cause significant error
 Rotational temperatures (Kelvin)      0.07407     0.01422     0.01262
 Rotational constants (GHZ):           1.54329     0.29624     0.26292
 Zero-point vibrational energy     601178.3 (Joules/Mol)
                                  143.68507 (Kcal/Mol)
 Warning -- explicit consideration of  21 degrees of freedom as
           vibrations may cause significant error
 Vibrational temperatures:     12.32    56.34    86.71   150.00   194.03
          (Kelvin)            224.50   264.32   284.85   316.92   332.30
                              356.74   383.24   523.46   543.95   611.16
                              629.67   676.23   776.36   784.77   854.28
                              867.93   921.51   965.54  1044.62  1117.42
                             1128.53  1133.71  1165.98  1220.51  1283.10
                             1358.78  1386.81  1406.23  1425.40  1438.53
                             1479.16  1553.24  1572.74  1590.11  1615.61
                             1621.82  1660.18  1720.47  1747.04  1754.80
                             1807.51  1815.87  1836.64  1884.77  1895.36
                             1920.16  1944.11  1976.70  1990.61  2040.67
                             2074.44  2136.53  2168.08  2174.69  2186.98
                             2221.86  2249.08  2349.08  2416.98  2451.43
                             4340.45  4365.95  4397.13  4429.42  4448.85
                             4496.81  4532.86  4550.64  4680.52  4714.02
                             5157.23  5328.67  5384.24

 Zero-point correction=                           0.228977 (Hartree/Particle)
 Thermal correction to Energy=                    0.243161
 Thermal correction to Enthalpy=                  0.244105
 Thermal correction to Gibbs Free Energy=         0.185672
 Sum of electronic and zero-point Energies=           -740.513163
 Sum of electronic and thermal Energies=              -740.498978
 Sum of electronic and thermal Enthalpies=            -740.498034
 Sum of electronic and thermal Free Energies=         -740.556468

                     E (Thermal)             CV                S
                      KCal/Mol        Cal/Mol-Kelvin    Cal/Mol-Kelvin
 Total                  152.586             52.995            122.983
 Electronic               0.000              0.000              0.000
 Translational            0.889              2.981             41.945
 Rotational               0.889              2.981             32.259
 Vibrational            150.808             47.033             48.780
 Vibration     1          0.593              1.987              8.319
 Vibration     2          0.594              1.981              5.301
 Vibration     3          0.597              1.973              4.448
 Vibration     4          0.605              1.946              3.373
 Vibration     5          0.613              1.919              2.876
 Vibration     6          0.620              1.896              2.597
 Vibration     7          0.631              1.862              2.290
 Vibration     8          0.637              1.843              2.152
 Vibration     9          0.647              1.810              1.957
 Vibration    10          0.653              1.794              1.871
 Vibration    11          0.662              1.766              1.745
 Vibration    12          0.672              1.735              1.620
 Vibration    13          0.737              1.547              1.106
 Vibration    14          0.748              1.517              1.047
 Vibration    15          0.787              1.416              0.876
 Vibration    16          0.798              1.388              0.834
 Vibration    17          0.827              1.317              0.738
 Vibration    18          0.895              1.162              0.566
 Vibration    19          0.901              1.150              0.554
 Vibration    20          0.951              1.045              0.461
 Vibration    21          0.962              1.025              0.444

                           ! Non-Optimized Parameters !
 Normal termination of Gaussian 16 at Tue Mar  1 21:35:27 2022.

 ------------------------------------------
 #p b3lyp/6-31G(d) geom=allcheck guess=read
 ------------------------------------------

 Structure from the checkpoint file:  "304.n.pdb.xyz.mst.wat.chk"
 -------------
 304.n.pdb.xyz
 -------------
 Charge =  0 Multiplicity = 1

 SCF Done:  E(RB3LYP) =  -740.706609286     A.U. after   12 cycles
 Normal termination of Gaussian 16 at Tue Mar  1 21:37:15 2022.
 Gaussian 16:  ES64L-G16RevA.03 25-Dec-2016

 ----------------------------------------------------------------------
 #p b3lyp/6-31G(d) scrf=(iefpcm,read,solvent=water) geom=allcheck guess
 =read
 ----------------------------------------------------------------------

 Structure from the checkpoint file:  "304.n.pdb.xyz.mst.wat.chk"
 -------------
 304.n.pdb.xyz
 -------------
 Charge =  0 Multiplicity = 1

                         Standard orientation:
 ---------------------------------------------------------------------
 Center     Atomic      Atomic             Coordinates (Angstroms)
 Number     Number       Type             X           Y           Z
 ---------------------------------------------------------------------
      1          7           0        4.632867   -1.093311    0.287092
      2          6           0        3.362438   -0.679055    0.118030
      3          7           0        3.158913    0.618352   -0.128374
      4          6           0        1.894436    1.096396   -0.278091
      5          8           0        1.638070    2.292832   -0.481918
      6          7           0        0.815890    0.183726   -0.198002
      7          6           0        1.030027   -1.134549    0.048904
      8          6           0        2.287186   -1.619325    0.222572
      9          6           0       -0.548840    0.728685   -0.382010
     10          6           0       -1.129288    1.366294    0.892714
     11          6           0       -2.609482    0.978832    0.819329
     12          6           0       -2.546625   -0.396732    0.157706
     13          6           0       -3.767563   -0.789615   -0.655401
     14          8           0       -4.848430   -0.931336    0.255304
     15          8           0       -1.426567   -0.318729   -0.755572
     16          1           0        4.852852   -2.077347    0.353029
     17          1           0        5.390497   -0.446399    0.109155
     18          1           0        0.144170   -1.753706    0.075217
     19          1           0        2.463045   -2.668355    0.415352
     20          1           0       -0.467301    1.448205   -1.197560
     21          1           0       -0.953986    2.441720    0.920820
     22          1           0       -0.653785    0.919072    1.770485
     23          1           0       -3.163748    1.671448    0.177004
     24          1           0       -3.095225    0.952762    1.795990
     25          1           0       -2.346524   -1.176102    0.904954
     26          1           0       -3.964011   -0.008843   -1.403769
     27          1           0       -3.565594   -1.727052   -1.191242
     28          1           0       -5.632412   -1.184500   -0.259485
 ---------------------------------------------------------------------

 SCF Done:  E(RB3LYP) =  -740.740708361     A.U. after   12 cycles

 The electronic state is 1-A.
 Alpha  occ. eigenvalues --  -19.16543 -19.14354 -19.10477 -14.38945 -14.35188
 Alpha  occ. eigenvalues --  -14.31352 -10.30579 -10.27937 -10.27890 -10.24713
 Alpha  occ. eigenvalues --  -10.23966 -10.22898 -10.19109 -10.18989 -10.18716
 Alpha  occ. eigenvalues --   -1.06393  -1.03731  -1.01447  -0.96618  -0.94348
 Alpha  occ. eigenvalues --   -0.87032  -0.79416  -0.78731  -0.75473  -0.68089
 Alpha  occ. eigenvalues --   -0.65651  -0.63752  -0.60833  -0.58265  -0.56249
 Alpha  occ. eigenvalues --   -0.53176  -0.51806  -0.51405  -0.49967  -0.48260
 Alpha  occ. eigenvalues --   -0.47976  -0.45267  -0.44711  -0.43858  -0.42424
 Alpha  occ. eigenvalues --   -0.41594  -0.40585  -0.40437  -0.38726  -0.36833
 Alpha  occ. eigenvalues --   -0.36131  -0.35078  -0.33870  -0.33069  -0.32609
 Alpha  occ. eigenvalues --   -0.28099  -0.27435  -0.26966  -0.25839  -0.24556
 Alpha  occ. eigenvalues --   -0.22707
 Alpha virt. eigenvalues --   -0.02541   0.01939   0.07867   0.09190   0.10190
 Alpha virt. eigenvalues --    0.10694   0.11626   0.13281   0.14276   0.14508
 Alpha virt. eigenvalues --    0.15514   0.15901   0.16622   0.17553   0.17662

 Mulliken charges:
               1
     1  N   -0.782809
     2  C    0.532897
     3  N   -0.645641
     4  C    0.709830
     5  O   -0.624455
     6  N   -0.493182
     7  C    0.114255
     8  C   -0.241939
     9  C    0.308212
    10  C   -0.317782
    11  C   -0.297882
    12  C    0.144465
    13  C   -0.039295
    14  O   -0.670958
    15  O   -0.551107
    16  H    0.394530
    17  H    0.385586
    18  H    0.205619
    19  H    0.170421
    20  H    0.170212
    21  H    0.175047
    22  H    0.164888
    23  H    0.158282
    24  H    0.167695
    25  H    0.143344
    26  H    0.133746
    27  H    0.139263
    28  H    0.446757
 Sum of Mulliken charges =  -0.00000

 Dipole moment (field-independent basis, Debye):
    X=             -1.6128    Y=             -7.9062    Z=              0.8311  Tot=              8.1117
 Quadrupole moment (field-independent basis, Debye-Ang):
   XX=            -55.2028   YY=            -89.1249   ZZ=            -88.4073
   XY=            -21.8514   XZ=              9.6165   YZ=              2.6873

 Normal termination of Gaussian 16 at Tue Mar  1 21:39:21 2022.
