 Gaussian 16, Revision A.03,

 ----------------------------------------------------------------------
 #p b3lyp/6-31G(d) opt=(MaxStep=10,MaxCycles=1000) freq scf=(MaxCycle=2
 000,NoVarAcc,NoIncFock) scrf=(iefpcm,read,solvent=water)
 ----------------------------------------------------------------------

 -------------
 305.n.pdb.xyz
 -------------
 Symbolic Z-matrix:
 Charge =  0 Multiplicity = 1

 SCF Done:  E(RB3LYP) =  -1410.03853627     A.U. after   13 cycles
 SCF Done:  E(RB3LYP) =  -1410.04340405     A.U. after   10 cycles
 SCF Done:  E(RB3LYP) =  -1410.04206536     A.U. after   11 cycles
 SCF Done:  E(RB3LYP) =  -1410.04613913     A.U. after   11 cycles
 SCF Done:  E(RB3LYP) =  -1410.04701380     A.U. after   10 cycles
 SCF Done:  E(RB3LYP) =  -1410.04461027     A.U. after   11 cycles
 SCF Done:  E(RB3LYP) =  -1410.04718494     A.U. after    9 cycles
 SCF Done:  E(RB3LYP) =  -1410.04711539     A.U. after   10 cycles
 SCF Done:  E(RB3LYP) =  -1410.04720109     A.U. after    9 cycles
 SCF Done:  E(RB3LYP) =  -1410.04721375     A.U. after    8 cycles
 SCF Done:  E(RB3LYP) =  -1410.04721345     A.U. after    8 cycles
 SCF Done:  E(RB3LYP) =  -1410.04722018     A.U. after    8 cycles
 SCF Done:  E(RB3LYP) =  -1410.04721574     A.U. after    7 cycles
 Optimization completed.
    -- Stationary point found.
 Normal termination of Gaussian 16 at Tue Mar  1 22:06:40 2022.

 --------------------------------------------------------------------
 #P Geom=AllCheck Guess=TCheck SCRF=Check GenChk RB3LYP/6-31G(d) Freq
 --------------------------------------------------------------------

 Structure from the checkpoint file:  "305.n.pdb.xyz.mst.wat.chk"
 -------------
 305.n.pdb.xyz
 -------------
 Charge =  0 Multiplicity = 1

 SCF Done:  E(RB3LYP) =  -1410.04721574     A.U. after    1 cycles

  Exact polarizability: 352.237  10.785 320.917   3.127  46.057 213.383
 Approx polarizability: 382.419  14.057 371.460  -0.292  61.223 252.673

                      1                      2                      3
                      A                      A                      A
 Frequencies --     36.5311                52.5509                65.5787
 Red. masses --      6.2957                 3.9119                 8.2186
 Frc consts  --      0.0050                 0.0064                 0.0208
 IR Inten    --      0.4962                 0.1832                 3.2379

                      4                      5                      6
                      A                      A                      A
 Frequencies --     67.7471                95.9214               110.6847
 Red. masses --      6.6687                 6.4345                 5.0190
 Frc consts  --      0.0180                 0.0349                 0.0362
 IR Inten    --      0.3375                 0.6499                 2.5292

                      7                      8                      9
                      A                      A                      A
 Frequencies --    130.8860               158.5083               173.6110
 Red. masses --      4.1607                 5.5643                 5.1088
 Frc consts  --      0.0420                 0.0824                 0.0907
 IR Inten    --     16.2223                 4.0960                 2.1926

                     10                     11                     12
                      A                      A                      A
 Frequencies --    197.2046               208.4516               245.5066
 Red. masses --      5.7654                 5.7605                 4.4897
 Frc consts  --      0.1321                 0.1475                 0.1594
 IR Inten    --      0.5593                 6.5989                 2.6091

                     13                     14                     15
                      A                      A                      A
 Frequencies --    266.0446               293.1328               311.0563
 Red. masses --      6.6943                 4.1298                 4.5105
 Frc consts  --      0.2792                 0.2091                 0.2571
 IR Inten    --      4.5244                 7.0250                11.7975

                     16                     17                     18
                      A                      A                      A
 Frequencies --    337.7070               340.7295               381.9589
 Red. masses --      4.0778                 3.8880                 1.4892
 Frc consts  --      0.2740                 0.2659                 0.1280
 IR Inten    --     15.5632                22.6917               173.3163

                     19                     20                     21
                      A                      A                      A
 Frequencies --    401.3922               419.3075               436.1194
 Red. masses --      4.4091                 2.9751                 5.3049
 Frc consts  --      0.4185                 0.3082                 0.5945
 IR Inten    --      5.9162                 0.5564                 9.2232

                     22                     23                     24
                      A                      A                      A
 Frequencies --    453.3455               466.1224               479.1403
 Red. masses --      4.4713                 5.2218                 6.5476
 Frc consts  --      0.5414                 0.6685                 0.8856
 IR Inten    --      9.1135                 4.6406                22.8392

                     25                     26                     27
                      A                      A                      A
 Frequencies --    520.4807               535.3321               561.0284
 Red. masses --      4.4897                 4.1592                 4.7522
 Frc consts  --      0.7166                 0.7023                 0.8813
 IR Inten    --      1.9164                18.5347                41.3805

                     28                     29                     30
                      A                      A                      A
 Frequencies --    591.2797               631.1820               656.0445
 Red. masses --      4.9178                 6.4104                 5.6422
 Frc consts  --      1.0130                 1.5047                 1.4308
 IR Inten    --     11.7033                 0.0193                 4.1012

                     31                     32                     33
                      A                      A                      A
 Frequencies --    671.6620               696.5890               700.3793
 Red. masses --      5.9055                 6.4124                 6.0684
 Frc consts  --      1.5697                 1.8333                 1.7539
 IR Inten    --     15.0426                 7.4351                 2.2805

                     34                     35                     36
                      A                      A                      A
 Frequencies --    712.4259               724.7112               754.2478
 Red. masses --      1.8608                 4.9879                 5.5734
 Frc consts  --      0.5565                 1.5435                 1.8681
 IR Inten    --     55.6544                 2.5627                17.6796

                     37                     38                     39
                      A                      A                      A
 Frequencies --    767.9802               803.3156               817.6458
 Red. masses --      4.2302                 2.6277                 7.2177
 Frc consts  --      1.4700                 0.9991                 2.8430
 IR Inten    --      9.6963                13.6727                61.1673

                     40                     41                     42
                      A                      A                      A
 Frequencies --    835.8617               867.2975               868.9524
 Red. masses --      6.7357                 1.2473                 1.3806
 Frc consts  --      2.7727                 0.5528                 0.6142
 IR Inten    --     39.1615                 2.5402                51.0029

                     43                     44                     45
                      A                      A                      A
 Frequencies --    909.0845               942.1479               952.0505
 Red. masses --      1.4726                 2.1836                 1.5402
 Frc consts  --      0.7171                 1.1420                 0.8225
 IR Inten    --     13.3856                44.5406                21.3562

                     46                     47                     48
                      A                      A                      A
 Frequencies --    965.6556               986.8624              1009.2319
 Red. masses --      2.2641                 1.3568                 2.6529
 Frc consts  --      1.2439                 0.7785                 1.5921
 IR Inten    --     14.3058                 2.1687                42.6612

                     49                     50                     51
                      A                      A                      A
 Frequencies --   1012.7055              1015.7565              1018.6044
 Red. masses --      1.3070                 5.8587                 1.2941
 Frc consts  --      0.7898                 3.5615                 0.7911
 IR Inten    --      0.2962                 5.3896                 9.7438

                     52                     53                     54
                      A                      A                      A
 Frequencies --   1024.8193              1037.7613              1045.6794
 Red. masses --      6.1358                 5.5629                 7.1453
 Frc consts  --      3.7968                 3.5298                 4.6033
 IR Inten    --     63.8257                 0.2416                96.6171

                     55                     56                     57
                      A                      A                      A
 Frequencies --   1054.3987              1072.5877              1097.8197
 Red. masses --      2.0909                 6.6962                 7.0549
 Frc consts  --      1.3696                 4.5389                 5.0096
 IR Inten    --     11.6490                34.5968                 8.8622

                     58                     59                     60
                      A                      A                      A
 Frequencies --   1108.8295              1125.9351              1158.4778
 Red. masses --      1.5573                 2.0541                 2.4891
 Frc consts  --      1.1281                 1.5343                 1.9682
 IR Inten    --      9.0509                47.5811                13.3298

                     61                     62                     63
                      A                      A                      A
 Frequencies --   1187.3058              1194.1549              1202.3776
 Red. masses --      1.0933                 1.3757                 1.3082
 Frc consts  --      0.9080                 1.1559                 1.1143
 IR Inten    --      0.2866                11.7041                 9.5223

                     64                     65                     66
                      A                      A                      A
 Frequencies --   1212.8301              1239.9580              1289.6497
 Red. masses --      1.2055                 1.3328                 1.9298
 Frc consts  --      1.0447                 1.2074                 1.8911
 IR Inten    --     65.1597                22.6522                52.7570

                     67                     68                     69
                      A                      A                      A
 Frequencies --   1309.0376              1335.1719              1340.8327
 Red. masses --      3.0554                 2.6426                 1.9811
 Frc consts  --      3.0848                 2.7756                 2.0985
 IR Inten    --     48.8782                22.5557                10.7878

                     70                     71                     72
                      A                      A                      A
 Frequencies --   1349.1244              1356.8994              1361.0811
 Red. masses --      4.7147                 1.5471                 2.8051
 Frc consts  --      5.0560                 1.6782                 3.0617
 IR Inten    --     48.5425                44.6006                 3.3706

                     73                     74                     75
                      A                      A                      A
 Frequencies --   1373.7249              1385.1939              1421.5514
 Red. masses --      4.6657                 1.2722                 1.7677
 Frc consts  --      5.1875                 1.4383                 2.1047
 IR Inten    --     29.0724                 2.4363                35.0218

                     76                     77                     78
                      A                      A                      A
 Frequencies --   1435.7364              1473.5318              1489.1437
 Red. masses --      2.3286                 4.9641                 2.2185
 Frc consts  --      2.8281                 6.3505                 2.8985
 IR Inten    --     28.6367               203.7100                17.2083

                     79                     80                     81
                      A                      A                      A
 Frequencies --   1500.3091              1510.3909              1527.3113
 Red. masses --      1.1058                 1.0925                 2.6942
 Frc consts  --      1.4665                 1.4684                 3.7029
 IR Inten    --      3.8788                 7.4148               216.0130

                     82                     83                     84
                      A                      A                      A
 Frequencies --   1536.2283              1556.1163              1579.8196
 Red. masses --      2.3000                 7.6944                 9.1051
 Frc consts  --      3.1981                10.9777                13.3890
 IR Inten    --      8.0368                30.7276                93.4588

                     85                     86                     87
                      A                      A                      A
 Frequencies --   1615.4020              1632.1334              1649.2602
 Red. masses --      7.3204                 5.5286                 6.4089
 Frc consts  --     11.2550                 8.6772                10.2710
 IR Inten    --     46.7674                17.7324                 8.6284

                     88                     89                     90
                      A                      A                      A
 Frequencies --   1653.8952              1676.5505              3042.0056
 Red. masses --      5.8626                 9.4308                 1.0705
 Frc consts  --      9.4484                15.6183                 5.8365
 IR Inten    --     41.4542               230.1687                36.3469

                     91                     92                     93
                      A                      A                      A
 Frequencies --   3082.6430              3149.7602              3155.9142
 Red. masses --      1.0639                 1.1018                 1.0939
 Frc consts  --      5.9565                 6.4402                 6.4192
 IR Inten    --     52.9116                23.2372                35.5358

                     94                     95                     96
                      A                      A                      A
 Frequencies --   3204.6008              3212.8429              3221.6409
 Red. masses --      1.0858                 1.0890                 1.0932
 Frc consts  --      6.5697                 6.6232                 6.6850
 IR Inten    --      0.3223                14.3636                44.4901

                     97                     98                     99
                      A                      A                      A
 Frequencies --   3222.5785              3229.7750              3236.2556
 Red. masses --      1.0924                 1.0946                 1.0945
 Frc consts  --      6.6839                 6.7275                 6.7540
 IR Inten    --     41.0256                31.7165                14.8207

                    100                    101                    102
                      A                      A                      A
 Frequencies --   3248.8733              3254.7690              3720.7673
 Red. masses --      1.0937                 1.0916                 1.0665
 Frc consts  --      6.8015                 6.8132                 8.6992
 IR Inten    --      3.5025                 1.1797               111.9160

 - Thermochemistry -
 -------------------
 Temperature   298.150 Kelvin.  Pressure   1.00000 Atm.
 Atom     1 has atomic number  8 and mass  15.99491

 Molecular mass:   324.07779 amu.
 Principal axes and moments of inertia in atomic units:
                           1         2         3
     Eigenvalues --  6223.932809091.41816**********
           X            0.99896  -0.04562  -0.00007
           Y            0.04562   0.99891   0.01014
           Z           -0.00039  -0.01013   0.99995
 This molecule is an asymmetric top.
 Rotational symmetry number  1.
 Warning -- assumption of classical behavior for rotation
           may cause significant error
 Rotational temperatures (Kelvin)      0.01392     0.00953     0.00665
 Rotational constants (GHZ):           0.28997     0.19851     0.13847
 Zero-point vibrational energy     722312.4 (Joules/Mol)
                                  172.63682 (Kcal/Mol)
 Warning -- explicit consideration of  28 degrees of freedom as
           vibrations may cause significant error
 Vibrational temperatures:     52.56    75.61    94.35    97.47   138.01
          (Kelvin)            159.25   188.32   228.06   249.79   283.73
                              299.92   353.23   382.78   421.75   447.54
                              485.89   490.23   549.55   577.51   603.29
                              627.48   652.26   670.65   689.38   748.86
                              770.22   807.19   850.72   908.13   943.90
                              966.37  1002.24  1007.69  1025.02  1042.70
                             1085.19  1104.95  1155.79  1176.41  1202.62
                             1247.85  1250.23  1307.97  1355.54  1369.79
                             1389.36  1419.87  1452.06  1457.06  1461.45
                             1465.54  1474.49  1493.11  1504.50  1517.04
                             1543.21  1579.52  1595.36  1619.97  1666.79
                             1708.27  1718.12  1729.95  1744.99  1784.02
                             1855.52  1883.41  1921.01  1929.16  1941.09
                             1952.28  1958.29  1976.48  1992.99  2045.30
                             2065.70  2120.08  2142.55  2158.61  2173.12
                             2197.46  2210.29  2238.90  2273.01  2324.20
                             2348.28  2372.92  2379.59  2412.18  4376.77
                             4435.24  4531.80  4540.66  4610.71  4622.56
                             4635.22  4636.57  4646.93  4656.25  4674.40
                             4682.89  5353.35

 Zero-point correction=                           0.275114 (Hartree/Particle)
 Thermal correction to Energy=                    0.293165
 Thermal correction to Enthalpy=                  0.294109
 Thermal correction to Gibbs Free Energy=         0.228411
 Sum of electronic and zero-point Energies=          -1409.772101
 Sum of electronic and thermal Energies=             -1409.754051
 Sum of electronic and thermal Enthalpies=           -1409.753107
 Sum of electronic and thermal Free Energies=        -1409.818805

                     E (Thermal)             CV                S
                      KCal/Mol        Cal/Mol-Kelvin    Cal/Mol-Kelvin
 Total                  183.964             71.315            138.273
 Electronic               0.000              0.000              0.000
 Translational            0.889              2.981             43.223
 Rotational               0.889              2.981             34.955
 Vibrational            182.186             65.354             60.096
 Vibration     1          0.594              1.982              5.439
 Vibration     2          0.596              1.977              4.719
 Vibration     3          0.597              1.971              4.282
 Vibration     4          0.598              1.970              4.218
 Vibration     5          0.603              1.952              3.536
 Vibration     6          0.607              1.941              3.257
 Vibration     7          0.612              1.922              2.933
 Vibration     8          0.621              1.893              2.568
 Vibration     9          0.627              1.875              2.396
 Vibration    10          0.637              1.844              2.159
 Vibration    11          0.642              1.828              2.057
 Vibration    12          0.660              1.770              1.763
 Vibration    13          0.672              1.735              1.622
 Vibration    14          0.688              1.687              1.456
 Vibration    15          0.700              1.653              1.357
 Vibration    16          0.718              1.600              1.223
 Vibration    17          0.720              1.594              1.209
 Vibration    18          0.751              1.509              1.031
 Vibration    19          0.767              1.467              0.958
 Vibration    20          0.782              1.428              0.894
 Vibration    21          0.797              1.391              0.839
 Vibration    22          0.812              1.353              0.786
 Vibration    23          0.823              1.325              0.748
 Vibration    24          0.836              1.296              0.712
 Vibration    25          0.875              1.205              0.609
 Vibration    26          0.890              1.172              0.575
 Vibration    27          0.917              1.116              0.522
 Vibration    28          0.949              1.050              0.465

 Optimization completed.
    -- Stationary point found.
 Normal termination of Gaussian 16 at Tue Mar  1 22:59:24 2022.

 ------------------------------------------
 #p b3lyp/6-31G(d) geom=allcheck guess=read
 ------------------------------------------

 Structure from the checkpoint file:  "305.n.pdb.xyz.mst.wat.chk"
 -------------
 305.n.pdb.xyz
 -------------
 Charge =  0 Multiplicity = 1

 SCF Done:  E(RB3LYP) =  -1410.02534220     A.U. after   12 cycles
 Normal termination of Gaussian 16 at Tue Mar  1 23:03:08 2022.
 Gaussian 16:  ES64L-G16RevA.03 25-Dec-2016

 ----------------------------------------------------------------------
 #p b3lyp/6-31G(d) scrf=(iefpcm,read,solvent=water) geom=allcheck guess
 =read
 ----------------------------------------------------------------------

 Structure from the checkpoint file:  "305.n.pdb.xyz.mst.wat.chk"
 -------------
 305.n.pdb.xyz
 -------------
 Charge =  0 Multiplicity = 1

                         Standard orientation:
 ---------------------------------------------------------------------
 Center     Atomic      Atomic             Coordinates (Angstroms)
 Number     Number       Type             X           Y           Z
 ---------------------------------------------------------------------
      1          8           0       -4.481271    0.709020    1.303373
      2          6           0       -3.582674   -0.289939    1.781329
      3          6           0       -2.988492   -1.119652    0.686959
      4          7           0       -3.425887   -2.313152    0.352387
      5          7           0       -2.663645   -2.773659   -0.706758
      6          6           0       -1.786757   -1.840239   -0.985143
      7          6           0       -0.693670   -1.860495   -1.996465
      8          7           0        0.600997   -1.930501   -1.312402
      9          6           0        0.987872   -0.915015   -0.623874
     10          6           0        2.317599   -1.018160    0.047371
     11          6           0        3.324002   -1.810218   -0.530368
     12          6           0        4.555388   -1.960670    0.101054
     13          6           0        4.798598   -1.331784    1.325541
     14          6           0        3.803506   -0.547874    1.912209
     15          6           0        2.572446   -0.386270    1.275035
     16          6           0        0.221252    0.362936   -0.460670
     17          6           0       -1.166470    0.424236   -0.205668
     18          6           0       -1.810684    1.653358   -0.034717
     19          6           0       -1.096135    2.841753   -0.127165
     20          6           0        0.268342    2.787667   -0.403825
     21         17           0        1.181019    4.281865   -0.552571
     22          6           0        0.924546    1.574221   -0.559466
     23          7           0       -1.935548   -0.769256   -0.135902
     24          1           0       -5.204929    0.250382    0.840653
     25          1           0       -2.802494    0.237726    2.332183
     26          1           0       -4.084119   -0.977249    2.469713
     27          1           0       -0.760322   -0.971240   -2.637587
     28          1           0       -0.812755   -2.743630   -2.623720
     29          1           0        3.126688   -2.296015   -1.479057
     30          1           0        5.327675   -2.565229   -0.362450
     31          1           0        5.758531   -1.450983    1.816771
     32          1           0        3.982280   -0.062518    2.865881
     33          1           0        1.802624    0.218385    1.740479
     34          1           0       -2.875305    1.667282    0.170473
     35          1           0       -1.596032    3.793841   -0.000522
     36          1           0        1.987566    1.558240   -0.760178
 ---------------------------------------------------------------------

 SCF Done:  E(RB3LYP) =  -1410.04574754     A.U. after   11 cycles

 The electronic state is 1-A.
 Alpha  occ. eigenvalues -- -101.56161 -19.15989 -14.42223 -14.35810 -14.35629
 Alpha  occ. eigenvalues --  -14.34328 -10.26857 -10.26730 -10.26655 -10.26417
 Alpha  occ. eigenvalues --  -10.25893 -10.25289 -10.23402 -10.23303 -10.22219
 Alpha  occ. eigenvalues --  -10.22041 -10.21516 -10.20856 -10.20042 -10.19830
 Alpha  occ. eigenvalues --  -10.19730 -10.19663 -10.19595  -9.47786  -7.24182
 Alpha  occ. eigenvalues --   -7.23218  -7.23179  -1.07810  -1.02908  -0.96087
 Alpha  occ. eigenvalues --   -0.93672  -0.90404  -0.86348  -0.85046  -0.83801
 Alpha  occ. eigenvalues --   -0.79377  -0.76673  -0.75852  -0.75186  -0.72830
 Alpha  occ. eigenvalues --   -0.70812  -0.67142  -0.65171  -0.62289  -0.61587
 Alpha  occ. eigenvalues --   -0.60653  -0.59224  -0.57196  -0.54516  -0.52471
 Alpha  occ. eigenvalues --   -0.51088  -0.50684  -0.49828  -0.48968  -0.48343
 Alpha  occ. eigenvalues --   -0.47172  -0.46411  -0.45663  -0.44854  -0.44683
 Alpha  occ. eigenvalues --   -0.43799  -0.42988  -0.42681  -0.41312  -0.40960
 Alpha  occ. eigenvalues --   -0.40313  -0.38733  -0.37947  -0.36607  -0.35914
 Alpha  occ. eigenvalues --   -0.35231  -0.34913  -0.33551  -0.32694  -0.32246
 Alpha  occ. eigenvalues --   -0.31616  -0.29342  -0.28557  -0.27972  -0.27661
 Alpha  occ. eigenvalues --   -0.26121  -0.25781  -0.25152  -0.24856
 Alpha virt. eigenvalues --   -0.06662  -0.04019  -0.02893  -0.00700   0.00565
 Alpha virt. eigenvalues --    0.01911   0.02306   0.04220   0.09849   0.10204
 Alpha virt. eigenvalues --    0.12025   0.12626   0.12971   0.13737   0.13957

 Mulliken charges:
               1
     1  O   -0.632228
     2  C   -0.105534
     3  C    0.478022
     4  N   -0.408084
     5  N   -0.424551
     6  C    0.502186
     7  C   -0.239517
     8  N   -0.455367
     9  C    0.225031
    10  C    0.092108
    11  C   -0.168898
    12  C   -0.150489
    13  C   -0.136149
    14  C   -0.150227
    15  C   -0.181691
    16  C    0.083997
    17  C    0.254372
    18  C   -0.154427
    19  C   -0.146577
    20  C   -0.057666
    21  Cl  -0.020549
    22  C   -0.195568
    23  N   -0.582739
    24  H    0.447279
    25  H    0.185188
    26  H    0.179156
    27  H    0.194529
    28  H    0.190813
    29  H    0.155475
    30  H    0.157065
    31  H    0.157720
    32  H    0.157937
    33  H    0.159004
    34  H    0.209340
    35  H    0.189960
    36  H    0.191080
 Sum of Mulliken charges =  -0.00000

 Dipole moment (field-independent basis, Debye):
    X=              2.0076    Y=              5.1971    Z=              0.9627  Tot=              5.6540
 Quadrupole moment (field-independent basis, Debye-Ang):
   XX=           -127.1550   YY=           -162.8924   ZZ=           -129.5921
   XY=            -19.5763   XZ=              2.2028   YZ=             -0.5692

 Normal termination of Gaussian 16 at Tue Mar  1 23:07:13 2022.
