 Gaussian 16, Revision A.03,

 ----------------------------------------------------------------------
 #p b3lyp/6-31G(d) opt=(MaxStep=10,MaxCycles=1000) freq scf=(MaxCycle=2
 000,NoVarAcc,NoIncFock) scrf=(iefpcm,read,solvent=water)
 ----------------------------------------------------------------------

 -------------
 306.n.pdb.xyz
 -------------
 Symbolic Z-matrix:
 Charge =  0 Multiplicity = 1

 SCF Done:  E(RB3LYP) =  -1351.36354747     A.U. after   13 cycles
 SCF Done:  E(RB3LYP) =  -1351.37015907     A.U. after   11 cycles
 SCF Done:  E(RB3LYP) =  -1351.36925818     A.U. after   12 cycles
 SCF Done:  E(RB3LYP) =  -1351.37702672     A.U. after   11 cycles
 SCF Done:  E(RB3LYP) =  -1351.37418714     A.U. after   11 cycles
 SCF Done:  E(RB3LYP) =  -1351.37630063     A.U. after   12 cycles
 SCF Done:  E(RB3LYP) =  -1351.37841151     A.U. after    9 cycles
 SCF Done:  E(RB3LYP) =  -1351.37709101     A.U. after   11 cycles
 SCF Done:  E(RB3LYP) =  -1351.37916040     A.U. after   11 cycles
 SCF Done:  E(RB3LYP) =  -1351.37974889     A.U. after   11 cycles
 SCF Done:  E(RB3LYP) =  -1351.38084439     A.U. after    8 cycles
 SCF Done:  E(RB3LYP) =  -1351.38084439     A.U. after    6 cycles
 SCF Done:  E(RB3LYP) =  -1351.38084480     A.U. after    8 cycles
 SCF Done:  E(RB3LYP) =  -1351.38084519     A.U. after    8 cycles
 SCF Done:  E(RB3LYP) =  -1351.38084430     A.U. after    8 cycles
 SCF Done:  E(RB3LYP) =  -1351.38084441     A.U. after    7 cycles
 SCF Done:  E(RB3LYP) =  -1351.38084441     A.U. after    6 cycles
 Optimization completed.
    -- Stationary point found.
 Normal termination of Gaussian 16 at Wed Mar  2 02:23:47 2022.

 --------------------------------------------------------------------
 #P Geom=AllCheck Guess=TCheck SCRF=Check GenChk RB3LYP/6-31G(d) Freq
 --------------------------------------------------------------------

 Structure from the checkpoint file:  "306.n.pdb.xyz.mst.wat.chk"
 -------------
 306.n.pdb.xyz
 -------------
 Charge =  0 Multiplicity = 1

 SCF Done:  E(RB3LYP) =  -1351.38084441     A.U. after    1 cycles

  Exact polarizability: 377.355 -23.930 236.199   1.490  -0.384 201.794
 Approx polarizability: 385.183 -27.334 271.551   3.176  -3.160 233.837

                      1                      2                      3
                      A                      A                      A
 Frequencies --      8.2077                14.0447                17.7832
 Red. masses --      4.9815                 3.8599                 3.8753
 Frc consts  --      0.0002                 0.0004                 0.0007
 IR Inten    --      1.7111                 0.1249                 1.0911

                      4                      5                      6
                      A                      A                      A
 Frequencies --     26.0262                43.9979                55.6117
 Red. masses --      5.9152                 5.0135                 5.1231
 Frc consts  --      0.0024                 0.0057                 0.0093
 IR Inten    --      4.6826                 7.0962                 7.0670

                      7                      8                      9
                      A                      A                      A
 Frequencies --     67.6877                74.2073                85.5674
 Red. masses --      4.9987                 3.0195                 5.0004
 Frc consts  --      0.0135                 0.0098                 0.0216
 IR Inten    --      5.0345                 1.0512                 3.2805

                     10                     11                     12
                      A                      A                      A
 Frequencies --     91.0973               109.3125               136.3674
 Red. masses --      5.1710                 4.0926                 3.3328
 Frc consts  --      0.0253                 0.0288                 0.0365
 IR Inten    --      3.3906                 0.4727                 8.6064

                     13                     14                     15
                      A                      A                      A
 Frequencies --    156.1018               179.1238               195.0456
 Red. masses --      1.6427                 3.8845                 2.9030
 Frc consts  --      0.0236                 0.0734                 0.0651
 IR Inten    --      1.8762                 7.6625                 7.6182

                     16                     17                     18
                      A                      A                      A
 Frequencies --    212.9177               231.6318               251.7900
 Red. masses --      2.8950                 3.1250                 1.6027
 Frc consts  --      0.0773                 0.0988                 0.0599
 IR Inten    --      2.1089                 6.7446                 1.4068

                     19                     20                     21
                      A                      A                      A
 Frequencies --    261.4887               262.6862               266.5410
 Red. masses --      1.2320                 1.6390                 3.7972
 Frc consts  --      0.0496                 0.0666                 0.1589
 IR Inten    --      6.1838                 1.1209                43.3762

                     22                     23                     24
                      A                      A                      A
 Frequencies --    287.8699               301.6449               330.2063
 Red. masses --      2.6722                 3.7847                 4.0057
 Frc consts  --      0.1305                 0.2029                 0.2573
 IR Inten    --      3.2201                 0.2492                 1.6803

                     25                     26                     27
                      A                      A                      A
 Frequencies --    350.1668               367.4285               369.3888
 Red. masses --      3.1523                 2.1509                 3.6874
 Frc consts  --      0.2277                 0.1711                 0.2964
 IR Inten    --      4.4380                 9.4665                 7.0586

                     28                     29                     30
                      A                      A                      A
 Frequencies --    395.3236               417.0760               452.1822
 Red. masses --      2.3638                 7.5423                 2.7484
 Frc consts  --      0.2177                 0.7730                 0.3311
 IR Inten    --      0.8633                 8.0648                 0.1247

                     31                     32                     33
                      A                      A                      A
 Frequencies --    472.7931               579.4205               621.3783
 Red. masses --      4.0024                 1.3882                 4.2138
 Frc consts  --      0.5271                 0.2746                 0.9586
 IR Inten    --     19.5027                38.1265                 2.6783

                     34                     35                     36
                      A                      A                      A
 Frequencies --    653.7814               667.0539               687.8089
 Red. masses --      5.8495                 1.1563                 4.4391
 Frc consts  --      1.4731                 0.3032                 1.2373
 IR Inten    --      9.2272               248.6048                81.1173

                     37                     38                     39
                      A                      A                      A
 Frequencies --    699.1036               708.8762               727.3801
 Red. masses --      1.7333                 4.9500                 2.6395
 Frc consts  --      0.4991                 1.4655                 0.8228
 IR Inten    --     53.5099                20.8169                19.1999

                     40                     41                     42
                      A                      A                      A
 Frequencies --    735.7546               750.1125               755.3259
 Red. masses --      2.8464                 3.1598                10.9665
 Frc consts  --      0.9078                 1.0475                 3.6863
 IR Inten    --     15.1967                13.4021                22.5027

                     43                     44                     45
                      A                      A                      A
 Frequencies --    768.3674               775.6009               800.2895
 Red. masses --      3.4521                 2.7136                 2.5019
 Frc consts  --      1.2008                 0.9618                 0.9441
 IR Inten    --      5.1046                32.7340                12.7126

                     46                     47                     48
                      A                      A                      A
 Frequencies --    812.2223               854.6281               870.7396
 Red. masses --      1.3363                 2.6506                 1.6365
 Frc consts  --      0.5194                 1.1407                 0.7311
 IR Inten    --     54.1875                32.1432                13.4888

                     49                     50                     51
                      A                      A                      A
 Frequencies --    886.4700               899.3028               966.6432
 Red. masses --      3.0431                 1.6874                 2.2070
 Frc consts  --      1.4089                 0.8041                 1.2150
 IR Inten    --     21.2641                 3.0692                25.5291

                     52                     53                     54
                      A                      A                      A
 Frequencies --    994.2673              1002.9385              1009.2755
 Red. masses --      4.1872                 3.8400                 3.2686
 Frc consts  --      2.4388                 2.2758                 1.9617
 IR Inten    --     14.4352                64.3472                 9.7533

                     55                     56                     57
                      A                      A                      A
 Frequencies --   1042.3459              1045.8307              1048.5095
 Red. masses --      1.3513                 2.3067                 1.9057
 Frc consts  --      0.8650                 1.4865                 1.2344
 IR Inten    --     47.7473                63.6243                 4.1505

                     58                     59                     60
                      A                      A                      A
 Frequencies --   1057.8865              1068.8553              1100.4661
 Red. masses --      3.9903                 1.5751                 2.7840
 Frc consts  --      2.6311                 1.0602                 1.9864
 IR Inten    --      5.6676                14.6869                66.2709

                     61                     62                     63
                      A                      A                      A
 Frequencies --   1129.3991              1152.2967              1152.7968
 Red. masses --      1.2522                 1.3056                 1.3968
 Frc consts  --      0.9410                 1.0214                 1.0937
 IR Inten    --      9.1042                18.3552                 3.3293

                     64                     65                     66
                      A                      A                      A
 Frequencies --   1170.7860              1175.4848              1188.1140
 Red. masses --      1.4841                 2.3174                 1.7095
 Frc consts  --      1.1986                 1.8866                 1.4218
 IR Inten    --     12.9283               405.0996                62.5759

                     67                     68                     69
                      A                      A                      A
 Frequencies --   1208.1411              1234.3926              1238.7975
 Red. masses --      2.0960                 1.6993                 1.2789
 Frc consts  --      1.8025                 1.5256                 1.1563
 IR Inten    --     24.1482                 2.7347                70.0339

                     70                     71                     72
                      A                      A                      A
 Frequencies --   1242.4434              1257.1118              1280.5066
 Red. masses --      2.7373                 1.5191                 1.9781
 Frc consts  --      2.4895                 1.4144                 1.9110
 IR Inten    --      3.1935               777.3581                11.2717

                     73                     74                     75
                      A                      A                      A
 Frequencies --   1297.6237              1300.1107              1301.4317
 Red. masses --      1.3772                 2.0104                 1.6503
 Frc consts  --      1.3663                 2.0022                 1.6469
 IR Inten    --     32.9453                37.5347                26.3421

                     76                     77                     78
                      A                      A                      A
 Frequencies --   1328.8807              1342.8849              1362.1107
 Red. masses --      1.6087                 1.1857                 3.7907
 Frc consts  --      1.6738                 1.2599                 4.1438
 IR Inten    --     18.0857                 5.1957               204.2040

                     79                     80                     81
                      A                      A                      A
 Frequencies --   1400.6043              1402.7023              1410.7336
 Red. masses --      1.6906                 1.8213                 2.3305
 Frc consts  --      1.9539                 2.1113                 2.7327
 IR Inten    --    104.0407                 3.3723               670.8782

                     82                     83                     84
                      A                      A                      A
 Frequencies --   1430.4934              1457.1929              1463.5160
 Red. masses --      1.9563                 1.1630                 1.3351
 Frc consts  --      2.3587                 1.4551                 1.6848
 IR Inten    --     34.7262                 3.6418               178.4032

                     85                     86                     87
                      A                      A                      A
 Frequencies --   1481.1746              1493.9678              1498.6985
 Red. masses --      1.1995                 1.1098                 1.1914
 Frc consts  --      1.5505                 1.4595                 1.5766
 IR Inten    --      2.2807                19.3987               105.9674

                     88                     89                     90
                      A                      A                      A
 Frequencies --   1500.5770              1501.3671              1503.5650
 Red. masses --      2.1940                 1.0483                 1.0782
 Frc consts  --      2.9107                 1.3922                 1.4361
 IR Inten    --    554.7740                10.5156                 3.2241

                     91                     92                     93
                      A                      A                      A
 Frequencies --   1506.0056              1515.0563              1520.3330
 Red. masses --      1.0709                 1.0753                 1.0529
 Frc consts  --      1.4310                 1.4542                 1.4339
 IR Inten    --     23.0631                21.1648                 7.9007

                     94                     95                     96
                      A                      A                      A
 Frequencies --   1522.2225              1529.7957              1534.3044
 Red. masses --      1.1172                 1.0519                 1.2872
 Frc consts  --      1.5253                 1.4504                 1.7854
 IR Inten    --     41.0900                 7.8435                14.0630

                     97                     98                     99
                      A                      A                      A
 Frequencies --   1550.7620              1587.0077              1596.7525
 Red. masses --      1.0853                 8.2477                 3.5922
 Frc consts  --      1.5378                12.2389                 5.3961
 IR Inten    --     14.8046                23.6958               678.4215

                    100                    101                    102
                      A                      A                      A
 Frequencies --   1659.1356              1671.2446              2957.6892
 Red. masses --      6.3763                 2.2157                 1.0712
 Frc consts  --     10.3415                 3.6462                 5.5212
 IR Inten    --      1.2412               616.6623                58.5324

                    103                    104                    105
                      A                      A                      A
 Frequencies --   2961.7849              2968.6189              3075.6159
 Red. masses --      1.0593                 1.0617                 1.0368
 Frc consts  --      5.4751                 5.5126                 5.7784
 IR Inten    --     64.1005               265.5449                73.6818

                    106                    107                    108
                      A                      A                      A
 Frequencies --   3085.2695              3088.1351              3091.7503
 Red. masses --      1.0879                 1.0694                 1.0720
 Frc consts  --      6.1014                 6.0090                 6.0376
 IR Inten    --     37.6301                22.1340                65.6173

                    109                    110                    111
                      A                      A                      A
 Frequencies --   3092.8810              3097.9154              3102.4041
 Red. masses --      1.0615                 1.0617                 1.0713
 Frc consts  --      5.9825                 6.0031                 6.0752
 IR Inten    --     40.8238                26.7107                51.2427

                    112                    113                    114
                      A                      A                      A
 Frequencies --   3137.4464              3142.6143              3147.8156
 Red. masses --      1.1047                 1.1009                 1.1039
 Frc consts  --      6.4071                 6.4062                 6.4446
 IR Inten    --     48.9344                28.9190                15.5578

                    115                    116                    117
                      A                      A                      A
 Frequencies --   3148.4367              3163.9543              3175.5326
 Red. masses --      1.1040                 1.1042                 1.1048
 Frc consts  --      6.4478                 6.5128                 6.5640
 IR Inten    --     49.0705                 9.5452                23.0661

                    118                    119                    120
                      A                      A                      A
 Frequencies --   3191.7688              3271.9032              3284.5015
 Red. masses --      1.0950                 1.0935                 1.1011
 Frc consts  --      6.5723                 6.8973                 6.9986
 IR Inten    --     16.7420                 8.7500                 2.5583

                    121                    122                    123
                      A                      A                      A
 Frequencies --   3302.3034              3438.2055              3594.7830
 Red. masses --      1.0912                 1.0786                 1.0771
 Frc consts  --      7.0112                 7.5121                 8.2005
 IR Inten    --      0.2445               274.6552               109.3616

 - Thermochemistry -
 -------------------
 Temperature   298.150 Kelvin.  Pressure   1.00000 Atm.
 Atom     1 has atomic number  6 and mass  12.00000

 Molecular mass:   314.14126 amu.
 Principal axes and moments of inertia in atomic units:
                           1         2         3
     Eigenvalues --  1757.95220********************
           X            0.99997   0.00654  -0.00326
           Y           -0.00655   0.99997  -0.00509
           Z            0.00322   0.00511   0.99998
 This molecule is an asymmetric top.
 Rotational symmetry number  1.
 Warning -- assumption of classical behavior for rotation
           may cause significant error
 Rotational temperatures (Kelvin)      0.04927     0.00298     0.00293
 Rotational constants (GHZ):           1.02662     0.06217     0.06107
 Zero-point vibrational energy     943278.2 (Joules/Mol)
                                  225.44891 (Kcal/Mol)
 Warning -- explicit consideration of  32 degrees of freedom as
           vibrations may cause significant error
 Vibrational temperatures:     11.81    20.21    25.59    37.45    63.30
          (Kelvin)             80.01    97.39   106.77   123.11   131.07
                              157.28   196.20   224.60   257.72   280.63
                              306.34   333.27   362.27   376.22   377.95
                              383.49   414.18   434.00   475.09   503.81
                              528.65   531.47   568.78   600.08   650.59
                              680.24   833.66   894.02   940.65   959.74
                              989.60  1005.85  1019.91  1046.54  1058.59
                             1079.24  1086.75  1105.51  1115.92  1151.44
                             1168.61  1229.62  1252.80  1275.43  1293.90
                             1390.78  1430.53  1443.00  1452.12  1499.70
                             1504.72  1508.57  1522.06  1537.84  1583.33
                             1624.95  1657.90  1658.62  1684.50  1691.26
                             1709.43  1738.25  1776.02  1782.35  1787.60
                             1808.70  1842.36  1866.99  1870.57  1872.47
                             1911.96  1932.11  1959.77  2015.16  2018.18
                             2029.73  2058.16  2096.58  2105.67  2131.08
                             2149.49  2156.29  2159.00  2160.13  2163.29
                             2166.81  2179.83  2187.42  2190.14  2201.03
                             2207.52  2231.20  2283.35  2297.37  2387.13
                             2404.55  4255.46  4261.35  4271.18  4425.13
                             4439.01  4443.14  4448.34  4449.97  4457.21
                             4463.67  4514.09  4521.52  4529.00  4529.90
                             4552.22  4568.88  4592.24  4707.54  4725.67
                             4751.28  4946.81  5172.09

 Zero-point correction=                           0.359276 (Hartree/Particle)
 Thermal correction to Energy=                    0.382594
 Thermal correction to Enthalpy=                  0.383538
 Thermal correction to Gibbs Free Energy=         0.300720
 Sum of electronic and zero-point Energies=          -1351.021569
 Sum of electronic and thermal Energies=             -1350.998251
 Sum of electronic and thermal Enthalpies=           -1350.997307
 Sum of electronic and thermal Free Energies=        -1351.080125

                     E (Thermal)             CV                S
                      KCal/Mol        Cal/Mol-Kelvin    Cal/Mol-Kelvin
 Total                  240.081             83.597            174.306
 Electronic               0.000              0.000              0.000
 Translational            0.889              2.981             43.130
 Rotational               0.889              2.981             35.665
 Vibrational            238.304             77.635             95.510
 Vibration     1          0.593              1.987              8.403
 Vibration     2          0.593              1.986              7.336
 Vibration     3          0.593              1.986              6.867
 Vibration     4          0.593              1.985              6.111
 Vibration     5          0.595              1.980              5.070
 Vibration     6          0.596              1.975              4.607
 Vibration     7          0.598              1.970              4.219
 Vibration     8          0.599              1.966              4.039
 Vibration     9          0.601              1.959              3.759
 Vibration    10          0.602              1.956              3.636
 Vibration    11          0.606              1.942              3.281
 Vibration    12          0.614              1.917              2.854
 Vibration    13          0.620              1.896              2.596
 Vibration    14          0.629              1.868              2.338
 Vibration    15          0.636              1.847              2.179
 Vibration    16          0.644              1.821              2.019
 Vibration    17          0.653              1.793              1.866
 Vibration    18          0.664              1.760              1.718
 Vibration    19          0.669              1.743              1.652
 Vibration    20          0.670              1.741              1.644
 Vibration    21          0.672              1.734              1.619
 Vibration    22          0.685              1.696              1.486
 Vibration    23          0.694              1.671              1.408
 Vibration    24          0.713              1.615              1.259
 Vibration    25          0.727              1.575              1.165
 Vibration    26          0.740              1.539              1.091
 Vibration    27          0.742              1.535              1.082
 Vibration    28          0.762              1.480              0.980
 Vibration    29          0.780              1.433              0.902
 Vibration    30          0.811              1.356              0.789
 Vibration    31          0.830              1.310              0.730
 Vibration    32          0.936              1.076              0.486

                           ! Non-Optimized Parameters !
 Normal termination of Gaussian 16 at Wed Mar  2 03:07:43 2022.

 ------------------------------------------
 #p b3lyp/6-31G(d) geom=allcheck guess=read
 ------------------------------------------

 Structure from the checkpoint file:  "306.n.pdb.xyz.mst.wat.chk"
 -------------
 306.n.pdb.xyz
 -------------
 Charge =  0 Multiplicity = 1

 SCF Done:  E(RB3LYP) =  -1351.34820531     A.U. after   12 cycles
 Normal termination of Gaussian 16 at Wed Mar  2 03:10:47 2022.
 Gaussian 16:  ES64L-G16RevA.03 25-Dec-2016

 ----------------------------------------------------------------------
 #p b3lyp/6-31G(d) scrf=(iefpcm,read,solvent=water) geom=allcheck guess
 =read
 ----------------------------------------------------------------------

 Structure from the checkpoint file:  "306.n.pdb.xyz.mst.wat.chk"
 -------------
 306.n.pdb.xyz
 -------------
 Charge =  0 Multiplicity = 1

                         Standard orientation:
 ---------------------------------------------------------------------
 Center     Atomic      Atomic             Coordinates (Angstroms)
 Number     Number       Type             X           Y           Z
 ---------------------------------------------------------------------
      1          6           0       -4.222722   -2.314186   -0.295390
      2          7           0       -4.990740   -1.145244    0.114975
      3          6           0       -4.682034    0.136011   -0.131466
      4          7           0       -3.408057    0.509006   -0.432529
      5          6           0       -2.194074   -0.058029    0.166690
      6          6           0       -1.181990   -0.479489   -0.899806
      7         16           0        0.381737   -1.119781   -0.193466
      8          6           0        1.202478    0.468963    0.313775
      9          6           0        2.585153    0.223499    0.783800
     10          6           0        3.163637    0.190578    2.020224
     11          6           0        4.546005   -0.119141    1.818600
     12          6           0        4.724949   -0.259401    0.472539
     13          6           0        5.908037   -0.574219   -0.386881
     14          7           0        6.979517    0.419725   -0.261450
     15          6           0        8.190795   -0.051172   -0.924176
     16          6           0        6.572365    1.718696   -0.785546
     17          8           0        3.531690   -0.050462   -0.170668
     18          6           0       -5.663111    1.157423   -0.111260
     19          7           0       -7.008318    0.952545    0.002982
     20          8           0       -7.491970   -0.212658    0.182368
     21          8           0       -7.777344    1.947641   -0.056806
     22          1           0       -4.926282   -3.094992   -0.586665
     23          1           0       -3.593175   -2.702160    0.510584
     24          1           0       -3.590756   -2.075191   -1.153088
     25          1           0       -5.988222   -1.267012    0.292763
     26          1           0       -3.313036    1.482965   -0.697306
     27          1           0       -2.462664   -0.907263    0.791433
     28          1           0       -1.753288    0.698080    0.823590
     29          1           0       -0.951709    0.354119   -1.569094
     30          1           0       -1.585873   -1.291198   -1.509854
     31          1           0        1.192984    1.134152   -0.553785
     32          1           0        0.627407    0.930967    1.116665
     33          1           0        2.662046    0.367025    2.960595
     34          1           0        5.310194   -0.223241    2.575231
     35          1           0        5.557993   -0.682649   -1.429868
     36          1           0        6.330602   -1.540433   -0.091851
     37          1           0        8.499966   -1.006534   -0.490017
     38          1           0        8.993313    0.676416   -0.773510
     39          1           0        8.060038   -0.194654   -2.011850
     40          1           0        7.376031    2.442646   -0.626621
     41          1           0        6.342169    1.690683   -1.866148
     42          1           0        5.682828    2.067396   -0.256036
     43          1           0       -5.381111    2.191775   -0.213310
 ---------------------------------------------------------------------

 SCF Done:  E(RB3LYP) =  -1351.37871144     A.U. after   12 cycles

 The electronic state is 1-A.
 Alpha  occ. eigenvalues --  -88.87861 -19.21600 -19.14515 -19.13932 -14.53936
 Alpha  occ. eigenvalues --  -14.37248 -14.36957 -14.33050 -10.29984 -10.24474
 Alpha  occ. eigenvalues --  -10.24017 -10.23500 -10.22794 -10.22438 -10.22093
 Alpha  occ. eigenvalues --  -10.21855 -10.21183 -10.19943 -10.19797 -10.18875
 Alpha  occ. eigenvalues --  -10.18491  -7.93988  -5.90508  -5.90137  -5.89440
 Alpha  occ. eigenvalues --   -1.17523  -1.10953  -1.00199  -0.98985  -0.92345
 Alpha  occ. eigenvalues --   -0.91736  -0.82813  -0.81685  -0.79919  -0.78543
 Alpha  occ. eigenvalues --   -0.74802  -0.72481  -0.70356  -0.69605  -0.66318
 Alpha  occ. eigenvalues --   -0.62663  -0.61413  -0.60981  -0.59876  -0.58258
 Alpha  occ. eigenvalues --   -0.55118  -0.53621  -0.52311  -0.50782  -0.49944
 Alpha  occ. eigenvalues --   -0.49902  -0.48319  -0.48128  -0.47531  -0.46989
 Alpha  occ. eigenvalues --   -0.46786  -0.46066  -0.45603  -0.44412  -0.43475
 Alpha  occ. eigenvalues --   -0.42694  -0.42449  -0.41749  -0.40361  -0.40044
 Alpha  occ. eigenvalues --   -0.39311  -0.38634  -0.38309  -0.37651  -0.37323
 Alpha  occ. eigenvalues --   -0.36570  -0.36192  -0.36093  -0.35667  -0.32206
 Alpha  occ. eigenvalues --   -0.29269  -0.28282  -0.28100  -0.26253  -0.26029
 Alpha  occ. eigenvalues --   -0.23326  -0.22349  -0.22076  -0.21839
 Alpha virt. eigenvalues --   -0.05018  -0.00471   0.02955   0.05245   0.06118
 Alpha virt. eigenvalues --    0.07760   0.09420   0.09563   0.10063   0.10665
 Alpha virt. eigenvalues --    0.10903   0.12340   0.13347   0.13820   0.14078

 Mulliken charges:
               1
     1  C   -0.332321
     2  N   -0.613325
     3  C    0.601156
     4  N   -0.634653
     5  C   -0.149151
     6  C   -0.430920
     7  S    0.046794
     8  C   -0.505059
     9  C    0.340290
    10  C   -0.219310
    11  C   -0.221342
    12  C    0.341934
    13  C   -0.212864
    14  N   -0.395198
    15  C   -0.303356
    16  C   -0.312165
    17  O   -0.478357
    18  C   -0.104980
    19  N    0.404889
    20  O   -0.550631
    21  O   -0.536906
    22  H    0.192445
    23  H    0.187051
    24  H    0.187157
    25  H    0.395521
    26  H    0.398997
    27  H    0.191338
    28  H    0.189247
    29  H    0.197481
    30  H    0.200541
    31  H    0.206960
    32  H    0.211832
    33  H    0.163781
    34  H    0.159430
    35  H    0.140269
    36  H    0.173086
    37  H    0.158252
    38  H    0.159149
    39  H    0.128578
    40  H    0.159159
    41  H    0.127244
    42  H    0.162337
    43  H    0.175619
 Sum of Mulliken charges =  -0.00000

 Dipole moment (field-independent basis, Debye):
    X=             10.6718    Y=             -1.1131    Z=             -1.0303  Tot=             10.7790
 Quadrupole moment (field-independent basis, Debye-Ang):
   XX=           -241.5168   YY=           -128.6553   ZZ=           -128.9527
   XY=             25.2690   XZ=              0.6988   YZ=             -0.2876

 Normal termination of Gaussian 16 at Wed Mar  2 03:14:53 2022.
