 Gaussian 16, Revision A.03,

 ----------------------------------------------------------------------
 #p b3lyp/6-31G(d) opt=(MaxStep=10,MaxCycles=1000) freq scf=(MaxCycle=2
 000,NoVarAcc,NoIncFock) scrf=(iefpcm,read,solvent=water)
 ----------------------------------------------------------------------

 -------------
 307.n.pdb.xyz
 -------------
 Symbolic Z-matrix:
 Charge =  0 Multiplicity = 1

 SCF Done:  E(RB3LYP) =  -1549.52914518     A.U. after   13 cycles
 SCF Done:  E(RB3LYP) =  -1549.53481566     A.U. after   10 cycles
 SCF Done:  E(RB3LYP) =  -1549.53550628     A.U. after   11 cycles
 SCF Done:  E(RB3LYP) =  -1549.53588532     A.U. after   13 cycles
 SCF Done:  E(RB3LYP) =  -1549.53861728     A.U. after   11 cycles
 SCF Done:  E(RB3LYP) =  -1549.53764043     A.U. after   11 cycles
 SCF Done:  E(RB3LYP) =  -1549.53867482     A.U. after   10 cycles
 SCF Done:  E(RB3LYP) =  -1549.53848833     A.U. after   10 cycles
 SCF Done:  E(RB3LYP) =  -1549.53879687     A.U. after   11 cycles
 SCF Done:  E(RB3LYP) =  -1549.53800010     A.U. after   11 cycles
 SCF Done:  E(RB3LYP) =  -1549.53888952     A.U. after    5 cycles
 SCF Done:  E(RB3LYP) =  -1549.53882408     A.U. after   10 cycles
 SCF Done:  E(RB3LYP) =  -1549.53884764     A.U. after   10 cycles
 SCF Done:  E(RB3LYP) =  -1549.53884795     A.U. after    9 cycles
 SCF Done:  E(RB3LYP) =  -1549.53884802     A.U. after    7 cycles
 SCF Done:  E(RB3LYP) =  -1549.53884802     A.U. after    7 cycles
 SCF Done:  E(RB3LYP) =  -1549.53884802     A.U. after    6 cycles
 Optimization completed.
    -- Stationary point found.
 Normal termination of Gaussian 16 at Wed Mar  2 07:33:44 2022.

 --------------------------------------------------------------------
 #P Geom=AllCheck Guess=TCheck SCRF=Check GenChk RB3LYP/6-31G(d) Freq
 --------------------------------------------------------------------

 Structure from the checkpoint file:  "307.n.pdb.xyz.mst.wat.chk"
 -------------
 307.n.pdb.xyz
 -------------
 Charge =  0 Multiplicity = 1

 SCF Done:  E(RB3LYP) =  -1549.53884802     A.U. after    1 cycles

  Exact polarizability: 466.716 -35.447 281.387 -26.870 -44.302 224.916
 Approx polarizability: 485.356 -30.456 320.800 -34.558 -65.681 279.878

                      1                      2                      3
                      A                      A                      A
 Frequencies --     22.5060                32.4829                34.7624
 Red. masses --      7.8490                10.8090                 7.9861
 Frc consts  --      0.0023                 0.0067                 0.0057
 IR Inten    --      0.4207                 1.8514                 0.3574

                      4                      5                      6
                      A                      A                      A
 Frequencies --     40.9250                52.6658                68.3557
 Red. masses --      7.0924                 4.1544                 4.3919
 Frc consts  --      0.0070                 0.0068                 0.0121
 IR Inten    --      1.3609                 0.1075                 3.6590

                      7                      8                      9
                      A                      A                      A
 Frequencies --     79.5939                88.8691               111.3582
 Red. masses --      4.8837                 5.6853                 4.9981
 Frc consts  --      0.0182                 0.0265                 0.0365
 IR Inten    --      5.3628                11.2182                 1.2144

                     10                     11                     12
                      A                      A                      A
 Frequencies --    128.7986               146.0782               170.4288
 Red. masses --      3.0010                 5.5545                 2.5070
 Frc consts  --      0.0293                 0.0698                 0.0429
 IR Inten    --      0.6760                 3.6155                 3.2896

                     13                     14                     15
                      A                      A                      A
 Frequencies --    190.1633               210.1363               223.3064
 Red. masses --      6.3822                 2.0739                 5.2505
 Frc consts  --      0.1360                 0.0540                 0.1543
 IR Inten    --      5.6754                 0.6472                 3.7788

                     16                     17                     18
                      A                      A                      A
 Frequencies --    235.1311               266.8250               274.5604
 Red. masses --      1.5589                 2.2678                 3.3964
 Frc consts  --      0.0508                 0.0951                 0.1509
 IR Inten    --      0.6621                 2.8811                 5.3438

                     19                     20                     21
                      A                      A                      A
 Frequencies --    290.7511               311.6408               319.8130
 Red. masses --      3.2063                 4.8405                 4.0901
 Frc consts  --      0.1597                 0.2770                 0.2465
 IR Inten    --      0.5565                 0.7550                 0.8247

                     22                     23                     24
                      A                      A                      A
 Frequencies --    343.2361               367.8457               372.8351
 Red. masses --      6.2844                 5.5078                 4.2897
 Frc consts  --      0.4362                 0.4391                 0.3513
 IR Inten    --      0.8497                 1.8423                 1.5564

                     25                     26                     27
                      A                      A                      A
 Frequencies --    408.2449               423.3613               431.4807
 Red. masses --      7.4877                 3.0720                 4.8638
 Frc consts  --      0.7353                 0.3244                 0.5335
 IR Inten    --      1.1576                 1.1546                 6.7648

                     28                     29                     30
                      A                      A                      A
 Frequencies --    444.5441               462.0461               488.8880
 Red. masses --      3.2047                 5.7213                 4.4024
 Frc consts  --      0.3731                 0.7196                 0.6200
 IR Inten    --      7.7260                32.9031                43.1328

                     31                     32                     33
                      A                      A                      A
 Frequencies --    517.3664               530.0657               562.4064
 Red. masses --      2.2198                 4.0416                 4.0735
 Frc consts  --      0.3501                 0.6691                 0.7591
 IR Inten    --      4.9491                25.6583                13.5866

                     34                     35                     36
                      A                      A                      A
 Frequencies --    596.7493               607.7028               621.1844
 Red. masses --      4.9020                 4.3330                 3.8385
 Frc consts  --      1.0285                 0.9428                 0.8727
 IR Inten    --     10.1290               129.2425                 9.5913

                     37                     38                     39
                      A                      A                      A
 Frequencies --    638.5583               648.7603               664.8239
 Red. masses --      6.9447                 4.7455                 2.5617
 Frc consts  --      1.6684                 1.1768                 0.6671
 IR Inten    --      0.7150                 9.7035                81.6613

                     40                     41                     42
                      A                      A                      A
 Frequencies --    687.4549               695.4492               704.4974
 Red. masses --      1.7940                 4.9207                 5.0514
 Frc consts  --      0.4995                 1.4022                 1.4771
 IR Inten    --    111.2933                25.3978                 7.8207

                     43                     44                     45
                      A                      A                      A
 Frequencies --    739.8445               748.4749               763.0055
 Red. masses --      6.6320                 5.5770                 3.7754
 Frc consts  --      2.1388                 1.8408                 1.2950
 IR Inten    --     12.9504                 4.0825                46.7235

                     46                     47                     48
                      A                      A                      A
 Frequencies --    772.3698               821.0243               846.7679
 Red. masses --      5.1704                 1.5130                 2.4493
 Frc consts  --      1.8173                 0.6009                 1.0347
 IR Inten    --     12.7542                54.3498                42.8341

                     49                     50                     51
                      A                      A                      A
 Frequencies --    848.0739               859.8951               866.6750
 Red. masses --      1.3621                 1.6932                 2.0953
 Frc consts  --      0.5772                 0.7377                 0.9273
 IR Inten    --      3.8836                45.0299                48.6461

                     52                     53                     54
                      A                      A                      A
 Frequencies --    885.1117               904.7674               935.2721
 Red. masses --      3.6345                 3.4995                 2.8696
 Frc consts  --      1.6776                 1.6878                 1.4789
 IR Inten    --     52.2398                18.0826               134.6533

                     55                     56                     57
                      A                      A                      A
 Frequencies --    946.2007               979.2188               984.3607
 Red. masses --      1.2761                 1.3321                 1.3292
 Frc consts  --      0.6731                 0.7526                 0.7588
 IR Inten    --      1.0720                 4.0945                 0.7999

                     58                     59                     60
                      A                      A                      A
 Frequencies --   1016.3036              1030.7896              1046.0588
 Red. masses --      4.0089                 3.2550                 2.7052
 Frc consts  --      2.4396                 2.0377                 1.7441
 IR Inten    --     90.7110                27.4860                37.0148

                     61                     62                     63
                      A                      A                      A
 Frequencies --   1067.6403              1071.6787              1099.0979
 Red. masses --      2.4995                 1.6220                 3.0321
 Frc consts  --      1.6786                 1.0976                 2.1581
 IR Inten    --     75.5232                31.1423                30.2816

                     64                     65                     66
                      A                      A                      A
 Frequencies --   1102.3813              1131.1783              1166.7180
 Red. masses --      2.6749                 1.3067                 2.0893
 Frc consts  --      1.9152                 0.9851                 1.6756
 IR Inten    --    213.5369                 8.6957               153.8974

                     67                     68                     69
                      A                      A                      A
 Frequencies --   1170.0270              1183.8377              1186.0274
 Red. masses --      2.4425                 1.8706                 1.2990
 Frc consts  --      1.9700                 1.5446                 1.0766
 IR Inten    --    495.0695                90.7545                 8.0563

                     70                     71                     72
                      A                      A                      A
 Frequencies --   1198.6564              1219.1764              1228.8214
 Red. masses --      1.1978                 1.6238                 1.6003
 Frc consts  --      1.0140                 1.4220                 1.4237
 IR Inten    --      5.9638                10.6575                51.4985

                     73                     74                     75
                      A                      A                      A
 Frequencies --   1244.3729              1270.5111              1289.4038
 Red. masses --      2.0502                 2.2340                 3.8738
 Frc consts  --      1.8704                 2.1247                 3.7946
 IR Inten    --     76.6054               436.5332                50.2763

                     76                     77                     78
                      A                      A                      A
 Frequencies --   1320.4935              1325.6251              1327.5066
 Red. masses --      1.5204                 1.3784                 1.8232
 Frc consts  --      1.5620                 1.4271                 1.8930
 IR Inten    --     22.7145                18.4570                71.6563

                     79                     80                     81
                      A                      A                      A
 Frequencies --   1346.9557              1364.0827              1396.9100
 Red. masses --      9.9444                 6.0943                 3.5507
 Frc consts  --     10.6300                 6.6812                 4.0823
 IR Inten    --     30.3298              1007.8853               108.9541

                     82                     83                     84
                      A                      A                      A
 Frequencies --   1403.0404              1418.7388              1438.4135
 Red. masses --      5.3834                 2.4462                 3.0184
 Frc consts  --      6.2438                 2.9010                 3.6796
 IR Inten    --    107.7283               143.4996                63.3148

                     85                     86                     87
                      A                      A                      A
 Frequencies --   1446.4510              1475.6350              1495.5467
 Red. masses --      1.4918                 1.1301                 1.9825
 Frc consts  --      1.8390                 1.4499                 2.6126
 IR Inten    --      2.5459                34.0628               292.1234

                     88                     89                     90
                      A                      A                      A
 Frequencies --   1499.8091              1505.5702              1509.0536
 Red. masses --      2.3195                 1.0530                 1.0949
 Frc consts  --      3.0741                 1.4063                 1.4690
 IR Inten    --     16.1587                 4.0997                18.1422

                     91                     92                     93
                      A                      A                      A
 Frequencies --   1516.6782              1522.0940              1529.5570
 Red. masses --      1.0620                 1.4865                 2.3766
 Frc consts  --      1.4393                 2.0290                 3.2759
 IR Inten    --     26.0325               153.7587                34.4544

                     94                     95                     96
                      A                      A                      A
 Frequencies --   1539.3757              1622.7282              1630.4649
 Red. masses --      1.2797                 7.1909                 6.3114
 Frc consts  --      1.7867                11.1565                 9.8855
 IR Inten    --      3.7904                 5.5354                21.6799

                     97                     98                     99
                      A                      A                      A
 Frequencies --   1645.5465              1656.1540              1671.0406
 Red. masses --      5.8309                 7.7034                 7.0265
 Frc consts  --      9.3027                12.4489                11.5601
 IR Inten    --    143.4659               157.9561               111.6277

                    100                    101                    102
                      A                      A                      A
 Frequencies --   1719.1413              1804.6472              3056.9561
 Red. masses --     12.4703                10.0915                 1.0342
 Frc consts  --     21.7145                19.3638                 5.6941
 IR Inten    --    453.5247               456.5219                89.1217

                    103                    104                    105
                      A                      A                      A
 Frequencies --   3077.4014              3081.2790              3117.9012
 Red. masses --      1.0585                 1.0428                 1.0984
 Frc consts  --      5.9060                 5.8332                 6.2915
 IR Inten    --     32.7780                42.3681                 7.4773

                    106                    107                    108
                      A                      A                      A
 Frequencies --   3121.8473              3139.8502              3166.3433
 Red. masses --      1.1056                 1.1006                 1.1000
 Frc consts  --      6.3483                 6.3928                 6.4980
 IR Inten    --     60.0454                14.3991                30.5584

                    109                    110                    111
                      A                      A                      A
 Frequencies --   3182.0025              3224.4919              3224.7577
 Red. masses --      1.1022                 1.0909                 1.0891
 Frc consts  --      6.5750                 6.6828                 6.6728
 IR Inten    --     37.7267                18.1331                 3.7640

                    112                    113                    114
                      A                      A                      A
 Frequencies --   3234.0759              3239.5445              3246.5012
 Red. masses --      1.0886                 1.0951                 1.0955
 Frc consts  --      6.7085                 6.7712                 6.8030
 IR Inten    --      1.9205                 5.3849                 7.1624

                    115                    116                    117
                      A                      A                      A
 Frequencies --   3248.9828              3271.4578              3627.4050
 Red. masses --      1.0884                 1.0928                 1.0647
 Frc consts  --      6.7694                 6.8911                 8.2540
 IR Inten    --      8.7091                 3.9437               164.0772

 - Thermochemistry -
 -------------------
 Temperature   298.150 Kelvin.  Pressure   1.00000 Atm.
 Atom     1 has atomic number  6 and mass  12.00000

 Molecular mass:   357.07679 amu.
 Principal axes and moments of inertia in atomic units:
                           1         2         3
     Eigenvalues --  5499.60296********************
           X            0.99991  -0.01242  -0.00594
           Y            0.01240   0.99992  -0.00265
           Z            0.00597   0.00257   0.99998
 This molecule is an asymmetric top.
 Rotational symmetry number  1.
 Warning -- assumption of classical behavior for rotation
           may cause significant error
 Rotational temperatures (Kelvin)      0.01575     0.00479     0.00396
 Rotational constants (GHZ):           0.32816     0.09974     0.08247
 Zero-point vibrational energy     828608.1 (Joules/Mol)
                                  198.04208 (Kcal/Mol)
 Warning -- explicit consideration of  35 degrees of freedom as
           vibrations may cause significant error
 Vibrational temperatures:     32.38    46.74    50.02    58.88    75.77
          (Kelvin)             98.35   114.52   127.86   160.22   185.31
                              210.17   245.21   273.60   302.34   321.29
                              338.30   383.90   395.03   418.33   448.38
                              460.14   493.84   529.25   536.43   587.37
                              609.12   620.80   639.60   664.78   703.40
                              744.37   762.65   809.18   858.59   874.35
                              893.75   918.74   933.42   956.53   989.09
                             1000.60  1013.61  1064.47  1076.89  1097.79
                             1111.27  1181.27  1218.31  1220.19  1237.20
                             1246.95  1273.48  1301.76  1345.65  1361.37
                             1408.88  1416.28  1462.23  1483.08  1505.05
                             1536.10  1541.91  1581.36  1586.08  1627.51
                             1678.65  1683.41  1703.28  1706.43  1724.60
                             1754.12  1768.00  1790.38  1827.98  1855.16
                             1899.90  1907.28  1909.99  1937.97  1962.61
                             2009.84  2018.66  2041.25  2069.56  2081.12
                             2123.11  2151.76  2157.89  2166.18  2171.19
                             2182.16  2189.95  2200.69  2214.82  2334.74
                             2345.88  2367.57  2382.84  2404.25  2473.46
                             2596.48  4398.28  4427.69  4433.27  4485.96
                             4491.64  4517.54  4555.66  4578.19  4639.32
                             4639.71  4653.11  4660.98  4670.99  4674.56
                             4706.90  5219.03

 Zero-point correction=                           0.315600 (Hartree/Particle)
 Thermal correction to Energy=                    0.338018
 Thermal correction to Enthalpy=                  0.338962
 Thermal correction to Gibbs Free Energy=         0.261606
 Sum of electronic and zero-point Energies=          -1549.223248
 Sum of electronic and thermal Energies=             -1549.200830
 Sum of electronic and thermal Enthalpies=           -1549.199886
 Sum of electronic and thermal Free Energies=        -1549.277242

                     E (Thermal)             CV                S
                      KCal/Mol        Cal/Mol-Kelvin    Cal/Mol-Kelvin
 Total                  212.110             84.853            162.811
 Electronic               0.000              0.000              0.000
 Translational            0.889              2.981             43.512
 Rotational               0.889              2.981             36.030
 Vibrational            210.332             78.892             83.268
 Vibration     1          0.593              1.985              6.400
 Vibration     2          0.594              1.983              5.672
 Vibration     3          0.594              1.983              5.537
 Vibration     4          0.594              1.981              5.214
 Vibration     5          0.596              1.977              4.715
 Vibration     6          0.598              1.969              4.200
 Vibration     7          0.600              1.963              3.901
 Vibration     8          0.602              1.957              3.685
 Vibration     9          0.607              1.940              3.245
 Vibration    10          0.611              1.924              2.964
 Vibration    11          0.617              1.907              2.723
 Vibration    12          0.626              1.879              2.431
 Vibration    13          0.633              1.853              2.226
 Vibration    14          0.642              1.825              2.042
 Vibration    15          0.649              1.806              1.932
 Vibration    16          0.655              1.787              1.839
 Vibration    17          0.672              1.734              1.617
 Vibration    18          0.677              1.720              1.567
 Vibration    19          0.687              1.691              1.470
 Vibration    20          0.700              1.652              1.354
 Vibration    21          0.706              1.636              1.311
 Vibration    22          0.722              1.589              1.197
 Vibration    23          0.740              1.538              1.089
 Vibration    24          0.744              1.528              1.068
 Vibration    25          0.773              1.452              0.933
 Vibration    26          0.786              1.419              0.881
 Vibration    27          0.793              1.402              0.854
 Vibration    28          0.804              1.373              0.812
 Vibration    29          0.820              1.334              0.760
 Vibration    30          0.845              1.275              0.686
 Vibration    31          0.872              1.212              0.616
 Vibration    32          0.885              1.183              0.587
 Vibration    33          0.918              1.113              0.519
 Vibration    34          0.955              1.039              0.455
 Vibration    35          0.966              1.015              0.437

                           ! Non-Optimized Parameters !
 Normal termination of Gaussian 16 at Wed Mar  2 08:38:27 2022.

 ------------------------------------------
 #p b3lyp/6-31G(d) geom=allcheck guess=read
 ------------------------------------------

 Structure from the checkpoint file:  "307.n.pdb.xyz.mst.wat.chk"
 -------------
 307.n.pdb.xyz
 -------------
 Charge =  0 Multiplicity = 1

 SCF Done:  E(RB3LYP) =  -1549.51769890     A.U. after   12 cycles
 Normal termination of Gaussian 16 at Wed Mar  2 08:42:28 2022.
 Gaussian 16:  ES64L-G16RevA.03 25-Dec-2016

 ----------------------------------------------------------------------
 #p b3lyp/6-31G(d) scrf=(iefpcm,read,solvent=water) geom=allcheck guess
 =read
 ----------------------------------------------------------------------

 Structure from the checkpoint file:  "307.n.pdb.xyz.mst.wat.chk"
 -------------
 307.n.pdb.xyz
 -------------
 Charge =  0 Multiplicity = 1

                         Standard orientation:
 ---------------------------------------------------------------------
 Center     Atomic      Atomic             Coordinates (Angstroms)
 Number     Number       Type             X           Y           Z
 ---------------------------------------------------------------------
      1          6           0        5.671335   -3.150398   -0.625710
      2          8           0        5.188004   -1.819653   -0.776373
      3          6           0        3.884016   -1.574151   -0.441478
      4          6           0        3.005023   -2.566636    0.030741
      5          6           0        1.683903   -2.256751    0.357144
      6          6           0        1.259742   -0.940216    0.205997
      7          7           0       -0.010046   -0.348116    0.392465
      8          6           0       -1.109002   -1.063500    0.884777
      9          8           0       -0.937488   -2.041954    1.604713
     10          6           0       -2.479735   -0.677755    0.447206
     11          6           0       -2.757256   -0.295611   -0.871892
     12          6           0       -4.069600   -0.067010   -1.279144
     13          6           0       -5.097918   -0.210410   -0.349419
     14         17           0       -6.754245    0.093006   -0.850428
     15          6           0       -4.847408   -0.596896    0.967415
     16          6           0       -3.534980   -0.845848    1.353741
     17          6           0        0.100947    1.034654    0.089641
     18          6           0       -0.994992    2.023128    0.330247
     19          6           0        1.380839    1.298651   -0.315686
     20          6           0        1.936065    2.628652   -0.714715
     21          6           0        2.839585    3.263860    0.330623
     22          8           0        3.471572    4.338526   -0.173138
     23          8           0        2.977524    2.884357    1.476608
     24          6           0        2.131232    0.063594   -0.269931
     25          6           0        3.452600   -0.253237   -0.594911
     26          1           0        5.641240   -3.470375    0.421835
     27          1           0        5.094074   -3.854853   -1.231635
     28          1           0        6.704600   -3.134993   -0.971213
     29          1           0        3.350744   -3.584888    0.149792
     30          1           0        1.015981   -3.019064    0.731813
     31          1           0       -1.953005   -0.197795   -1.592357
     32          1           0       -4.289745    0.215547   -2.301843
     33          1           0       -5.664002   -0.706779    1.670245
     34          1           0       -3.319191   -1.167249    2.365565
     35          1           0       -0.575754    3.029935    0.304323
     36          1           0       -1.790955    1.969075   -0.415937
     37          1           0       -1.457831    1.877843    1.310487
     38          1           0        1.136020    3.346811   -0.919863
     39          1           0        2.508167    2.553911   -1.645959
     40          1           0        4.021038    4.732204    0.538155
     41          1           0        4.147837    0.491456   -0.965742
 ---------------------------------------------------------------------

 SCF Done:  E(RB3LYP) =  -1549.53707226     A.U. after   11 cycles

 The electronic state is 1-A.
 Alpha  occ. eigenvalues -- -101.56011 -19.19437 -19.17809 -19.14786 -19.14316
 Alpha  occ. eigenvalues --  -14.39960 -10.32651 -10.31847 -10.26739 -10.24902
 Alpha  occ. eigenvalues --  -10.23925 -10.23261 -10.22441 -10.21905 -10.21626
 Alpha  occ. eigenvalues --  -10.21394 -10.21381 -10.21305 -10.20850 -10.19780
 Alpha  occ. eigenvalues --  -10.19654 -10.19634 -10.19238 -10.18950 -10.18887
 Alpha  occ. eigenvalues --   -9.47646  -7.24033  -7.23086  -7.23039  -1.10455
 Alpha  occ. eigenvalues --   -1.06529  -1.06228  -1.01580  -0.98312  -0.90317
 Alpha  occ. eigenvalues --   -0.85816  -0.84833  -0.82329  -0.77524  -0.76992
 Alpha  occ. eigenvalues --   -0.75982  -0.75666  -0.74742  -0.70077  -0.68974
 Alpha  occ. eigenvalues --   -0.65211  -0.63417  -0.62428  -0.60856  -0.59824
 Alpha  occ. eigenvalues --   -0.56788  -0.56319  -0.54009  -0.51870  -0.49898
 Alpha  occ. eigenvalues --   -0.49786  -0.48837  -0.48751  -0.48256  -0.47885
 Alpha  occ. eigenvalues --   -0.46584  -0.46432  -0.45965  -0.45020  -0.44462
 Alpha  occ. eigenvalues --   -0.44102  -0.43567  -0.42790  -0.42346  -0.41712
 Alpha  occ. eigenvalues --   -0.40909  -0.40246  -0.39821  -0.39634  -0.38949
 Alpha  occ. eigenvalues --   -0.38669  -0.38035  -0.37461  -0.37037  -0.35663
 Alpha  occ. eigenvalues --   -0.35377  -0.34046  -0.32798  -0.32358  -0.32159
 Alpha  occ. eigenvalues --   -0.30206  -0.28770  -0.28216  -0.27796  -0.27238
 Alpha  occ. eigenvalues --   -0.25702  -0.21689  -0.21138
 Alpha virt. eigenvalues --   -0.06433  -0.02282  -0.02062   0.00116   0.00833
 Alpha virt. eigenvalues --    0.02128   0.03915   0.06215   0.09291   0.10491
 Alpha virt. eigenvalues --    0.10750   0.11458   0.11939   0.12815   0.13781

 Mulliken charges:
               1
     1  C   -0.226760
     2  O   -0.536037
     3  C    0.380227
     4  C   -0.239252
     5  C   -0.174918
     6  C    0.298790
     7  N   -0.647929
     8  C    0.528420
     9  O   -0.517832
    10  C    0.072588
    11  C   -0.170969
    12  C   -0.135869
    13  C   -0.061538
    14  Cl  -0.025521
    15  C   -0.140679
    16  C   -0.151821
    17  C    0.283651
    18  C   -0.530753
    19  C    0.046548
    20  C   -0.481145
    21  C    0.604642
    22  O   -0.583759
    23  O   -0.510554
    24  C    0.079180
    25  C   -0.298598
    26  H    0.165905
    27  H    0.166317
    28  H    0.178773
    29  H    0.159758
    30  H    0.168157
    31  H    0.183291
    32  H    0.184061
    33  H    0.183197
    34  H    0.175171
    35  H    0.180569
    36  H    0.188586
    37  H    0.184195
    38  H    0.210861
    39  H    0.203116
    40  H    0.461083
    41  H    0.146847
 Sum of Mulliken charges =  -0.00000

 Dipole moment (field-independent basis, Debye):
    X=             -0.2721    Y=              2.5056    Z=             -2.8196  Tot=              3.7818
 Quadrupole moment (field-independent basis, Debye-Ang):
   XX=           -143.1174   YY=           -130.1398   ZZ=           -151.5789
   XY=             -5.7852   XZ=             -6.7289   YZ=              1.1679

 Normal termination of Gaussian 16 at Wed Mar  2 08:47:04 2022.
