 Gaussian 16, Revision A.03,

 ----------------------------------------------------------------------
 #p b3lyp/6-31G(d) opt=(MaxStep=10,MaxCycles=1000) freq scf=(MaxCycle=2
 000,NoVarAcc,NoIncFock) scrf=(iefpcm,read,solvent=water)
 ----------------------------------------------------------------------

 -------------
 308.n.pdb.xyz
 -------------
 Symbolic Z-matrix:
 Charge =  0 Multiplicity = 1

 SCF Done:  E(RB3LYP) =  -651.890630494     A.U. after   13 cycles
 SCF Done:  E(RB3LYP) =  -651.892468503     A.U. after   11 cycles
 SCF Done:  E(RB3LYP) =  -651.892849256     A.U. after   11 cycles
 SCF Done:  E(RB3LYP) =  -651.891073907     A.U. after   13 cycles
 SCF Done:  E(RB3LYP) =  -651.892928568     A.U. after    9 cycles
 SCF Done:  E(RB3LYP) =  -651.892642342     A.U. after   10 cycles
 SCF Done:  E(RB3LYP) =  -651.892809222     A.U. after    9 cycles
 SCF Done:  E(RB3LYP) =  -651.892916539     A.U. after   10 cycles
 SCF Done:  E(RB3LYP) =  -651.892819125     A.U. after   10 cycles
 SCF Done:  E(RB3LYP) =  -651.892922418     A.U. after   10 cycles
 SCF Done:  E(RB3LYP) =  -651.892919495     A.U. after    3 cycles
 SCF Done:  E(RB3LYP) =  -651.892919490     A.U. after    2 cycles
 SCF Done:  E(RB3LYP) =  -651.892816671     A.U. after   10 cycles
 SCF Done:  E(RB3LYP) =  -651.892921000     A.U. after   10 cycles
 SCF Done:  E(RB3LYP) =  -651.892919872     A.U. after    6 cycles
 SCF Done:  E(RB3LYP) =  -651.892928832     A.U. after    8 cycles
 SCF Done:  E(RB3LYP) =  -651.892819945     A.U. after   10 cycles
 Optimization completed.
    -- Stationary point found.
 Normal termination of Gaussian 16 at Wed Mar  2 04:17:54 2022.

 --------------------------------------------------------------------
 #P Geom=AllCheck Guess=TCheck SCRF=Check GenChk RB3LYP/6-31G(d) Freq
 --------------------------------------------------------------------

 Structure from the checkpoint file:  "308.n.pdb.xyz.mst.wat.chk"
 -------------
 308.n.pdb.xyz
 -------------
 Charge =  0 Multiplicity = 1

 SCF Done:  E(RB3LYP) =  -651.892819945     A.U. after    1 cycles

  Exact polarizability: 332.812   2.678 201.294  -0.739   3.396  69.954
 Approx polarizability: 349.340   6.737 251.906  -1.694   2.752  85.978

                      1                      2                      3
                      A                      A                      A
 Frequencies --     51.9307                53.5527                87.8939
 Red. masses --      5.7540                 7.6681                 4.0092
 Frc consts  --      0.0091                 0.0130                 0.0182
 IR Inten    --      0.9280                 1.4023                 0.2924

                      4                      5                      6
                      A                      A                      A
 Frequencies --     98.8961               160.7703               210.3028
 Red. masses --      5.3993                 5.3973                 5.5543
 Frc consts  --      0.0311                 0.0822                 0.1447
 IR Inten    --      0.6237                 0.3614                 2.6904

                      7                      8                      9
                      A                      A                      A
 Frequencies --    251.9855               302.4470               389.5752
 Red. masses --      8.0999                 4.8845                 4.3114
 Frc consts  --      0.3030                 0.2633                 0.3855
 IR Inten    --      0.5307                 2.2110                 4.0005

                     10                     11                     12
                      A                      A                      A
 Frequencies --    416.9701               423.5300               455.2567
 Red. masses --      3.0036                 3.0932                 6.2578
 Frc consts  --      0.3077                 0.3269                 0.7642
 IR Inten    --      0.9685                 1.2912                37.4310

                     13                     14                     15
                      A                      A                      A
 Frequencies --    474.7766               518.4634               541.7545
 Red. masses --      3.6948                 4.5221                 1.8537
 Frc consts  --      0.4907                 0.7162                 0.3206
 IR Inten    --     28.6088                18.5348                55.6000

                     16                     17                     18
                      A                      A                      A
 Frequencies --    577.7051               628.9503               629.6499
 Red. masses --      1.6886                 6.0173                 5.7246
 Frc consts  --      0.3320                 1.4024                 1.3372
 IR Inten    --     64.2827                17.4668                22.2039

                     19                     20                     21
                      A                      A                      A
 Frequencies --    650.7731               713.3720               715.3934
 Red. masses --      6.9388                 3.5580                 4.7797
 Frc consts  --      1.7314                 1.0668                 1.4412
 IR Inten    --      0.3982                54.1427                68.4928

                     22                     23                     24
                      A                      A                      A
 Frequencies --    717.8766               762.1790               797.4153
 Red. masses --      2.0433                 2.0835                 3.0738
 Frc consts  --      0.6204                 0.7131                 1.1516
 IR Inten    --      9.3114               132.2492                 5.2270

                     25                     26                     27
                      A                      A                      A
 Frequencies --    808.8694               865.4143               871.4994
 Red. masses --      5.5402                 1.2596                 1.2463
 Frc consts  --      2.1357                 0.5558                 0.5577
 IR Inten    --     14.0883                 0.9893                 0.9592

                     28                     29                     30
                      A                      A                      A
 Frequencies --    880.7333               946.6210               985.9967
 Red. masses --      1.7298                 1.4109                 1.3487
 Frc consts  --      0.7906                 0.7449                 0.7725
 IR Inten    --     25.3596                 3.2627                 1.5688

                     31                     32                     33
                      A                      A                      A
 Frequencies --    991.1344               999.2010              1010.2604
 Red. masses --      1.3453                 1.3110                 1.2580
 Frc consts  --      0.7787                 0.7712                 0.7565
 IR Inten    --      0.1983                 0.2885                 0.4787

                     34                     35                     36
                      A                      A                      A
 Frequencies --   1015.1744              1023.0062              1041.3554
 Red. masses --      5.6003                 5.8524                 2.9835
 Frc consts  --      3.4005                 3.6086                 1.9062
 IR Inten    --      3.8469                21.1320                 3.8698

                     37                     38                     39
                      A                      A                      A
 Frequencies --   1065.2396              1112.6095              1125.8819
 Red. masses --      1.9214                 1.5404                 4.2505
 Frc consts  --      1.2846                 1.1235                 3.1745
 IR Inten    --      3.5328                 3.9206               262.4391

                     40                     41                     42
                      A                      A                      A
 Frequencies --   1141.0445              1187.8666              1190.1876
 Red. masses --      1.3858                 1.1884                 1.2749
 Frc consts  --      1.0631                 0.9880                 1.0641
 IR Inten    --     18.8015               132.5194               212.1042

                     43                     44                     45
                      A                      A                      A
 Frequencies --   1205.4114              1235.8285              1317.0137
 Red. masses --      1.2264                 1.3239                 3.2913
 Frc consts  --      1.0499                 1.1913                 3.3635
 IR Inten    --     83.5760                30.7854                 6.0151

                     46                     47                     48
                      A                      A                      A
 Frequencies --   1324.0062              1342.3052              1355.9924
 Red. masses --      2.5896                 1.3544                 7.8338
 Frc consts  --      2.6747                 1.4378                 8.4867
 IR Inten    --      0.7383                 5.1995                 1.1212

                     49                     50                     51
                      A                      A                      A
 Frequencies --   1375.5844              1393.6093              1447.3870
 Red. masses --      1.9412                 2.7969                 2.9391
 Frc consts  --      2.1642                 3.2005                 3.6277
 IR Inten    --      6.9592               400.6279                44.4263

                     52                     53                     54
                      A                      A                      A
 Frequencies --   1495.2341              1533.0802              1566.8137
 Red. masses --      2.3642                 2.1947                 2.5775
 Frc consts  --      3.1142                 3.0391                 3.7280
 IR Inten    --      7.3303                11.7634                 4.3944

                     55                     56                     57
                      A                      A                      A
 Frequencies --   1615.1919              1639.2454              1659.1127
 Red. masses --      5.7995                 6.0550                 5.5020
 Frc consts  --      8.9144                 9.5864                 8.9233
 IR Inten    --     14.8726                 4.2543                12.9157

                     58                     59                     60
                      A                      A                      A
 Frequencies --   1665.1500              1768.9972              3202.1431
 Red. masses --      5.9239                10.5612                 1.0853
 Frc consts  --      9.6775                19.4723                 6.5566
 IR Inten    --    201.8151               747.2759                 4.8056

                     61                     62                     63
                      A                      A                      A
 Frequencies --   3207.8446              3215.5938              3220.9723
 Red. masses --      1.0875                 1.0908                 1.0932
 Frc consts  --      6.5931                 6.6451                 6.6824
 IR Inten    --      2.8161                37.7717                32.0326

                     64                     65                     66
                      A                      A                      A
 Frequencies --   3224.8470              3227.2823              3230.4858
 Red. masses --      1.0893                 1.0891                 1.0962
 Frc consts  --      6.6745                 6.6831                 6.7405
 IR Inten    --      4.8158                30.3042                35.4447

                     67                     68                     69
                      A                      A                      A
 Frequencies --   3239.6794              3247.2067              3659.4567
 Red. masses --      1.0937                 1.0935                 1.0650
 Frc consts  --      6.7635                 6.7933                 8.4033
 IR Inten    --     19.1510                 8.9072               265.7597

 - Thermochemistry -
 -------------------
 Temperature   298.150 Kelvin.  Pressure   1.00000 Atm.
 Atom     1 has atomic number  8 and mass  15.99491

 Molecular mass:   198.06808 amu.
 Principal axes and moments of inertia in atomic units:
                           1         2         3
     Eigenvalues --   781.343267030.187067711.26642
           X            1.00000  -0.00283   0.00053
           Y            0.00283   0.99997   0.00705
           Z           -0.00055  -0.00705   0.99998
 This molecule is an asymmetric top.
 Rotational symmetry number  1.
 Warning -- assumption of classical behavior for rotation
           may cause significant error
 Rotational temperatures (Kelvin)      0.11085     0.01232     0.01123
 Rotational constants (GHZ):           2.30979     0.25671     0.23404
 Zero-point vibrational energy     517438.7 (Joules/Mol)
                                  123.67081 (Kcal/Mol)
 Warning -- explicit consideration of  16 degrees of freedom as
           vibrations may cause significant error
 Vibrational temperatures:     74.72    77.05   126.46   142.29   231.31
          (Kelvin)            302.58   362.55   435.15   560.51   599.93
                              609.37   655.01   683.10   745.95   779.46
                              831.19   904.92   905.93   936.32  1026.38
                             1029.29  1032.86  1096.61  1147.30  1163.78
                             1245.14  1253.89  1267.18  1361.98  1418.63
                             1426.02  1437.63  1453.54  1460.61  1471.88
                             1498.28  1532.64  1600.80  1619.89  1641.71
                             1709.08  1712.41  1734.32  1778.08  1894.89
                             1904.95  1931.28  1950.97  1979.16  2005.09
                             2082.47  2151.31  2205.76  2254.30  2323.90
                             2358.51  2387.09  2395.78  2545.19  4607.17
                             4615.37  4626.52  4634.26  4639.84  4643.34
                             4647.95  4661.18  4672.01  5265.14

 Zero-point correction=                           0.197082 (Hartree/Particle)
 Thermal correction to Energy=                    0.208829
 Thermal correction to Enthalpy=                  0.209774
 Thermal correction to Gibbs Free Energy=         0.158152
 Sum of electronic and zero-point Energies=           -651.695738
 Sum of electronic and thermal Energies=              -651.683990
 Sum of electronic and thermal Enthalpies=            -651.683046
 Sum of electronic and thermal Free Energies=         -651.734668

                     E (Thermal)             CV                S
                      KCal/Mol        Cal/Mol-Kelvin    Cal/Mol-Kelvin
 Total                  131.042             46.458            108.647
 Electronic               0.000              0.000              0.000
 Translational            0.889              2.981             41.755
 Rotational               0.889              2.981             32.116
 Vibrational            129.265             40.497             34.776
 Vibration     1          0.596              1.977              4.742
 Vibration     2          0.596              1.976              4.682
 Vibration     3          0.601              1.958              3.706
 Vibration     4          0.604              1.950              3.476
 Vibration     5          0.622              1.890              2.541
 Vibration     6          0.642              1.825              2.041
 Vibration     7          0.664              1.759              1.717
 Vibration     8          0.694              1.669              1.403
 Vibration     9          0.758              1.492              1.002
 Vibration    10          0.780              1.433              0.902
 Vibration    11          0.786              1.419              0.880
 Vibration    12          0.814              1.349              0.780
 Vibration    13          0.831              1.306              0.724
 Vibration    14          0.873              1.209              0.614
 Vibration    15          0.897              1.158              0.562
 Vibration    16          0.934              1.079              0.490

 Optimization completed.
    -- Stationary point found.
 Normal termination of Gaussian 16 at Wed Mar  2 04:34:18 2022.

 ------------------------------------------
 #p b3lyp/6-31G(d) geom=allcheck guess=read
 ------------------------------------------

 Structure from the checkpoint file:  "308.n.pdb.xyz.mst.wat.chk"
 -------------
 308.n.pdb.xyz
 -------------
 Charge =  0 Multiplicity = 1

 SCF Done:  E(RB3LYP) =  -651.879192074     A.U. after   11 cycles
 Normal termination of Gaussian 16 at Wed Mar  2 04:35:42 2022.
 Gaussian 16:  ES64L-G16RevA.03 25-Dec-2016

 ----------------------------------------------------------------------
 #p b3lyp/6-31G(d) scrf=(iefpcm,read,solvent=water) geom=allcheck guess
 =read
 ----------------------------------------------------------------------

 Structure from the checkpoint file:  "308.n.pdb.xyz.mst.wat.chk"
 -------------
 308.n.pdb.xyz
 -------------
 Charge =  0 Multiplicity = 1

                         Standard orientation:
 ---------------------------------------------------------------------
 Center     Atomic      Atomic             Coordinates (Angstroms)
 Number     Number       Type             X           Y           Z
 ---------------------------------------------------------------------
      1          8           0        4.440441   -1.095291    0.244029
      2          6           0        3.862156    0.092048   -0.020004
      3          8           0        4.507028    1.104661   -0.245023
      4          6           0        2.380597    0.031636   -0.006453
      5          6           0        1.683651   -1.157584    0.246251
      6          6           0        0.293708   -1.164989    0.248408
      7          6           0       -0.438817    0.008532   -0.002165
      8          6           0        0.273175    1.194390   -0.254703
      9          6           0        1.661283    1.207371   -0.256430
     10          6           0       -1.919838   -0.002123    0.000006
     11          6           0       -2.647313    1.143329    0.365972
     12          6           0       -4.040912    1.135089    0.368613
     13          6           0       -4.737813   -0.018910    0.003676
     14          6           0       -4.028058   -1.164472   -0.363064
     15          6           0       -2.634390   -1.156245   -0.364180
     16          1           0        5.410211   -0.969229    0.216178
     17          1           0        2.234642   -2.067881    0.447386
     18          1           0       -0.232750   -2.087144    0.466303
     19          1           0       -0.269102    2.107519   -0.470827
     20          1           0        2.207373    2.121315   -0.458041
     21          1           0       -2.116178    2.038608    0.670193
     22          1           0       -4.582237    2.028208    0.662223
     23          1           0       -5.822743   -0.025352    0.004969
     24          1           0       -4.559654   -2.064110   -0.655584
     25          1           0       -2.093874   -2.045334   -0.670419
 ---------------------------------------------------------------------

 SCF Done:  E(RB3LYP) =  -651.892440292     A.U. after   11 cycles

 The electronic state is 1-A.
 Alpha  occ. eigenvalues --  -19.19424 -19.14064 -10.32560 -10.21392 -10.20814
 Alpha  occ. eigenvalues --  -10.20610 -10.20332 -10.20214 -10.19855 -10.19831
 Alpha  occ. eigenvalues --  -10.19501 -10.19495 -10.19445 -10.19406 -10.19373
 Alpha  occ. eigenvalues --   -1.10379  -1.01332  -0.87751  -0.85428  -0.79176
 Alpha  occ. eigenvalues --   -0.75899  -0.74758  -0.73776  -0.66471  -0.62927
 Alpha  occ. eigenvalues --   -0.60964  -0.59551  -0.57773  -0.53903  -0.51478
 Alpha  occ. eigenvalues --   -0.49250  -0.47751  -0.46574  -0.44999  -0.44763
 Alpha  occ. eigenvalues --   -0.44266  -0.43565  -0.43313  -0.42053  -0.40190
 Alpha  occ. eigenvalues --   -0.38546  -0.37755  -0.36322  -0.35788  -0.34636
 Alpha  occ. eigenvalues --   -0.33742  -0.32121  -0.28681  -0.28213  -0.26342
 Alpha  occ. eigenvalues --   -0.25682  -0.23311
 Alpha virt. eigenvalues --   -0.06083  -0.01454  -0.00379  -0.00030   0.06403
 Alpha virt. eigenvalues --    0.09539   0.10029   0.11907   0.12668   0.14575
 Alpha virt. eigenvalues --    0.15658   0.16344   0.17888   0.18121   0.18553

 Mulliken charges:
               1
     1  O   -0.596384
     2  C    0.553807
     3  O   -0.531721
     4  C    0.076353
     5  C   -0.179431
     6  C   -0.194937
     7  C    0.100883
     8  C   -0.195397
     9  C   -0.176816
    10  C    0.084904
    11  C   -0.189154
    12  C   -0.153177
    13  C   -0.141925
    14  C   -0.153148
    15  C   -0.189204
    16  H    0.462152
    17  H    0.168598
    18  H    0.160287
    19  H    0.160354
    20  H    0.162064
    21  H    0.154878
    22  H    0.154369
    23  H    0.153532
    24  H    0.154349
    25  H    0.154765
 Sum of Mulliken charges =  -0.00000

 Dipole moment (field-independent basis, Debye):
    X=             -2.1221    Y=             -1.9574    Z=              0.4347  Tot=              2.9196
 Quadrupole moment (field-independent basis, Debye-Ang):
   XX=            -74.3283   YY=            -78.7236   ZZ=            -88.5891
   XY=            -11.0294   XZ=              2.4338   YZ=              1.6362

 Normal termination of Gaussian 16 at Wed Mar  2 04:37:21 2022.
