 Gaussian 16, Revision A.03,

 ----------------------------------------------------------------------
 #p b3lyp/6-31G(d) opt=(MaxStep=10,MaxCycles=1000) freq scf=(MaxCycle=2
 000,NoVarAcc,NoIncFock) scrf=(iefpcm,read,solvent=water)
 ----------------------------------------------------------------------

 -------------
 311.n.pdb.xyz
 -------------
 Symbolic Z-matrix:
 Charge =  0 Multiplicity = 1

 SCF Done:  E(RB3LYP) =  -934.096967696     A.U. after   13 cycles
 SCF Done:  E(RB3LYP) =  -934.099238890     A.U. after   10 cycles
 SCF Done:  E(RB3LYP) =  -934.099629732     A.U. after   10 cycles
 SCF Done:  E(RB3LYP) =  -934.099676002     A.U. after   10 cycles
 SCF Done:  E(RB3LYP) =  -934.099692074     A.U. after   10 cycles
 SCF Done:  E(RB3LYP) =  -934.099715360     A.U. after    9 cycles
 SCF Done:  E(RB3LYP) =  -934.099729289     A.U. after   10 cycles
 SCF Done:  E(RB3LYP) =  -934.099735239     A.U. after    9 cycles
 SCF Done:  E(RB3LYP) =  -934.099741388     A.U. after    9 cycles
 SCF Done:  E(RB3LYP) =  -934.099739495     A.U. after    9 cycles
 SCF Done:  E(RB3LYP) =  -934.099735584     A.U. after    9 cycles
 SCF Done:  E(RB3LYP) =  -934.099737146     A.U. after    9 cycles
 SCF Done:  E(RB3LYP) =  -934.099735628     A.U. after    9 cycles
 SCF Done:  E(RB3LYP) =  -934.099737130     A.U. after    9 cycles
 SCF Done:  E(RB3LYP) =  -934.099735375     A.U. after    9 cycles
 SCF Done:  E(RB3LYP) =  -934.099737060     A.U. after    9 cycles
 SCF Done:  E(RB3LYP) =  -934.099735630     A.U. after    9 cycles
 Optimization completed.
    -- Stationary point found.
 Normal termination of Gaussian 16 at Tue Mar  1 06:50:03 2022.

 --------------------------------------------------------------------
 #P Geom=AllCheck Guess=TCheck SCRF=Check GenChk RB3LYP/6-31G(d) Freq
 --------------------------------------------------------------------

 Structure from the checkpoint file:  "311.n.pdb.xyz.mst.wat.chk"
 -------------
 311.n.pdb.xyz
 -------------
 Charge =  0 Multiplicity = 1

 SCF Done:  E(RB3LYP) =  -934.099735630     A.U. after    1 cycles

  Exact polarizability: 284.998 -23.952 226.951 -13.302 -21.147  92.264
 Approx polarizability: 300.897 -28.441 277.670 -14.681 -28.586 108.350

                      1                      2                      3
                      A                      A                      A
 Frequencies --     24.3682                37.2309                80.0562
 Red. masses --      3.8929                 3.7920                 5.7710
 Frc consts  --      0.0014                 0.0031                 0.0218
 IR Inten    --      0.1968                 2.4326                 3.9116

                      4                      5                      6
                      A                      A                      A
 Frequencies --     84.7948               119.9144               146.4345
 Red. masses --      1.8004                 4.8785                 4.1930
 Frc consts  --      0.0076                 0.0413                 0.0530
 IR Inten    --      7.1029                 1.1948                 0.8778

                      7                      8                      9
                      A                      A                      A
 Frequencies --    259.0160               281.0678               306.4743
 Red. masses --      5.4981                 3.7969                 3.3957
 Frc consts  --      0.2173                 0.1767                 0.1879
 IR Inten    --      1.6183                 7.4875                26.5448

                     10                     11                     12
                      A                      A                      A
 Frequencies --    307.8022               314.7311               343.3946
 Red. masses --      1.4038                 3.0839                 5.6597
 Frc consts  --      0.0784                 0.1800                 0.3932
 IR Inten    --     45.9990                18.2612                 3.7543

                     13                     14                     15
                      A                      A                      A
 Frequencies --    415.6841               459.0895               492.6884
 Red. masses --      2.9839                 4.9146                 3.8452
 Frc consts  --      0.3038                 0.6103                 0.5499
 IR Inten    --      0.0038                 1.6991                 0.6035

                     16                     17                     18
                      A                      A                      A
 Frequencies --    576.6620               613.1640               633.4167
 Red. masses --      5.3133                 7.7397                 6.4774
 Frc consts  --      1.0410                 1.7145                 1.5312
 IR Inten    --      1.0682                 6.3653                 0.7128

                     19                     20                     21
                      A                      A                      A
 Frequencies --    677.0223               685.4235               707.9305
 Red. masses --      6.2671                 3.1373                 2.1663
 Frc consts  --      1.6925                 0.8684                 0.6397
 IR Inten    --     23.8566                 8.7736                 7.5144

                     22                     23                     24
                      A                      A                      A
 Frequencies --    719.0692               748.8147               784.6787
 Red. masses --      3.2644                 1.2623                 1.2834
 Frc consts  --      0.9945                 0.4170                 0.4656
 IR Inten    --     20.8153               113.0574                 6.2464

                     25                     26                     27
                      A                      A                      A
 Frequencies --    803.1403               861.0403               865.5511
 Red. masses --      2.3651                 5.3366                 1.2575
 Frc consts  --      0.8988                 2.3311                 0.5551
 IR Inten    --      5.9919                28.9141                 0.1314

                     28                     29                     30
                      A                      A                      A
 Frequencies --    918.6147               921.7007               941.2783
 Red. masses --      2.1681                 4.2199                 1.4291
 Frc consts  --      1.0779                 2.1122                 0.7460
 IR Inten    --    196.6633                37.6770                 3.5804

                     31                     32                     33
                      A                      A                      A
 Frequencies --    982.1037               987.0447              1009.7670
 Red. masses --      1.3456                 1.4715                 1.2593
 Frc consts  --      0.7647                 0.8446                 0.7565
 IR Inten    --      0.0500                 3.1414                 0.3144

                     34                     35                     36
                      A                      A                      A
 Frequencies --   1016.2268              1017.6803              1054.8286
 Red. masses --      6.0769                 3.8943                 2.4564
 Frc consts  --      3.6976                 2.3763                 1.6103
 IR Inten    --      0.0328               218.2337                12.7759

                     37                     38                     39
                      A                      A                      A
 Frequencies --   1073.7085              1107.6905              1121.1578
 Red. masses --      1.7706                 1.5949                 2.4905
 Frc consts  --      1.2026                 1.1529                 1.8444
 IR Inten    --     55.4548                22.9422                22.3502

                     40                     41                     42
                      A                      A                      A
 Frequencies --   1122.4521              1185.8400              1204.3928
 Red. masses --      2.1820                 1.0922                 1.5028
 Frc consts  --      1.6198                 0.9049                 1.2844
 IR Inten    --     20.2323                 0.2413                42.7677

                     43                     44                     45
                      A                      A                      A
 Frequencies --   1209.6830              1245.7463              1313.2946
 Red. masses --      1.2734                 1.8404                 2.2592
 Frc consts  --      1.0979                 1.6828                 2.2957
 IR Inten    --     33.9052                 3.4171                 7.9671

                     46                     47                     48
                      A                      A                      A
 Frequencies --   1322.5783              1341.1958              1360.5757
 Red. masses --      1.4468                 1.3385                 6.0167
 Frc consts  --      1.4911                 1.4186                 6.5623
 IR Inten    --     17.0475                 4.2862                15.2614

                     49                     50                     51
                      A                      A                      A
 Frequencies --   1373.0044              1393.6629              1405.4609
 Red. masses --      1.7034                 1.2759                 1.1942
 Frc consts  --      1.8920                 1.4601                 1.3898
 IR Inten    --      8.4879                30.8299                 2.9163

                     52                     53                     54
                      A                      A                      A
 Frequencies --   1489.4161              1497.7624              1517.7204
 Red. masses --      2.4012                 1.1045                 3.0353
 Frc consts  --      3.1384                 1.4598                 4.1194
 IR Inten    --     12.2361                 4.0601                 2.6366

                     55                     56                     57
                      A                      A                      A
 Frequencies --   1519.0138              1558.4906              1568.9820
 Red. masses --      1.1022                 5.2131                 4.8289
 Frc consts  --      1.4985                 7.4602                 7.0037
 IR Inten    --      2.4404               114.5046                14.6385

                     58                     59                     60
                      A                      A                      A
 Frequencies --   1638.0289              1657.5576              1661.7782
 Red. masses --      5.7718                 1.0886                 5.5811
 Frc consts  --      9.1244                 1.7623                 9.0806
 IR Inten    --      1.0851                51.7279                19.1519

                     61                     62                     63
                      A                      A                      A
 Frequencies --   3063.3881              3074.9958              3103.0147
 Red. masses --      1.0586                 1.0593                 1.1051
 Frc consts  --      5.8529                 5.9015                 6.2695
 IR Inten    --     28.7444                66.0188                17.7600

                     64                     65                     66
                      A                      A                      A
 Frequencies --   3127.2726              3201.0637              3206.3105
 Red. masses --      1.1072                 1.0858                 1.0882
 Frc consts  --      6.3797                 6.5554                 6.5911
 IR Inten    --     66.0392                 9.4331                 3.8685

                     67                     68                     69
                      A                      A                      A
 Frequencies --   3215.5245              3229.3751              3239.9491
 Red. masses --      1.0924                 1.0962                 1.0923
 Frc consts  --      6.6549                 6.7354                 6.7558
 IR Inten    --     51.8885                50.9469                 9.5629

                     70                     71                     72
                      A                      A                      A
 Frequencies --   3298.0220              3461.2668              3538.9660
 Red. masses --      1.0941                 1.0512                 1.0920
 Frc consts  --      7.0118                 7.4198                 8.0580
 IR Inten    --      3.2892                 1.3723                 3.4814

 - Thermochemistry -
 -------------------
 Temperature   298.150 Kelvin.  Pressure   1.00000 Atm.
 Atom     1 has atomic number  7 and mass  14.00307

 Molecular mass:   204.07212 amu.
 Principal axes and moments of inertia in atomic units:
                           1         2         3
     Eigenvalues --  1403.861326100.272677309.95814
           X            0.99990   0.01364  -0.00212
           Y           -0.01366   0.99985  -0.01063
           Z            0.00198   0.01065   0.99994
 This molecule is an asymmetric top.
 Rotational symmetry number  1.
 Warning -- assumption of classical behavior for rotation
           may cause significant error
 Rotational temperatures (Kelvin)      0.06170     0.01420     0.01185
 Rotational constants (GHZ):           1.28556     0.29585     0.24689
 Zero-point vibrational energy     555343.9 (Joules/Mol)
                                  132.73037 (Kcal/Mol)
 Warning -- explicit consideration of  17 degrees of freedom as
           vibrations may cause significant error
 Vibrational temperatures:     35.06    53.57   115.18   122.00   172.53
          (Kelvin)            210.69   372.67   404.39   440.95   442.86
                              452.83   494.07   598.08   660.53   708.87
                              829.69   882.21   911.35   974.08   986.17
                             1018.55  1034.58  1077.38  1128.98  1155.54
                             1238.84  1245.33  1321.68  1326.12  1354.29
                             1413.03  1420.14  1452.83  1462.12  1464.22
                             1517.66  1544.83  1593.72  1613.10  1614.96
                             1706.16  1732.85  1740.46  1792.35  1889.54
                             1902.90  1929.68  1957.57  1975.45  2005.17
                             2022.14  2142.94  2154.95  2183.66  2185.52
                             2242.32  2257.42  2356.76  2384.86  2390.93
                             4407.53  4424.23  4464.55  4499.45  4605.62
                             4613.17  4626.42  4646.35  4661.56  4745.12
                             4979.99  5091.78

 Zero-point correction=                           0.211519 (Hartree/Particle)
 Thermal correction to Energy=                    0.224200
 Thermal correction to Enthalpy=                  0.225144
 Thermal correction to Gibbs Free Energy=         0.170305
 Sum of electronic and zero-point Energies=           -933.888216
 Sum of electronic and thermal Energies=              -933.875535
 Sum of electronic and thermal Enthalpies=            -933.874591
 Sum of electronic and thermal Free Energies=         -933.929431

                     E (Thermal)             CV                S
                      KCal/Mol        Cal/Mol-Kelvin    Cal/Mol-Kelvin
 Total                  140.688             48.176            115.420
 Electronic               0.000              0.000              0.000
 Translational            0.889              2.981             41.844
 Rotational               0.889              2.981             32.504
 Vibrational            138.910             42.214             41.072
 Vibration     1          0.593              1.985              6.242
 Vibration     2          0.594              1.982              5.401
 Vibration     3          0.600              1.963              3.889
 Vibration     4          0.601              1.960              3.777
 Vibration     5          0.609              1.933              3.102
 Vibration     6          0.617              1.907              2.718
 Vibration     7          0.668              1.748              1.668
 Vibration     8          0.681              1.709              1.527
 Vibration     9          0.697              1.661              1.381
 Vibration    10          0.698              1.659              1.374
 Vibration    11          0.702              1.646              1.337
 Vibration    12          0.722              1.589              1.196
 Vibration    13          0.779              1.436              0.907
 Vibration    14          0.817              1.341              0.769
 Vibration    15          0.848              1.266              0.677
 Vibration    16          0.933              1.082              0.492
 Vibration    17          0.972              1.004              0.428

 Optimization completed.
    -- Stationary point found.
 Normal termination of Gaussian 16 at Tue Mar  1 07:06:54 2022.

 ------------------------------------------
 #p b3lyp/6-31G(d) geom=allcheck guess=read
 ------------------------------------------

 Structure from the checkpoint file:  "311.n.pdb.xyz.mst.wat.chk"
 -------------
 311.n.pdb.xyz
 -------------
 Charge =  0 Multiplicity = 1

 SCF Done:  E(RB3LYP) =  -934.084938129     A.U. after   12 cycles
 Normal termination of Gaussian 16 at Tue Mar  1 07:08:27 2022.
 Gaussian 16:  ES64L-G16RevA.03 25-Dec-2016

 ----------------------------------------------------------------------
 #p b3lyp/6-31G(d) scrf=(iefpcm,read,solvent=water) geom=allcheck guess
 =read
 ----------------------------------------------------------------------

 Structure from the checkpoint file:  "311.n.pdb.xyz.mst.wat.chk"
 -------------
 311.n.pdb.xyz
 -------------
 Charge =  0 Multiplicity = 1

                         Standard orientation:
 ---------------------------------------------------------------------
 Center     Atomic      Atomic             Coordinates (Angstroms)
 Number     Number       Type             X           Y           Z
 ---------------------------------------------------------------------
      1          7           0       -4.818913   -1.808505   -0.469725
      2          6           0       -3.551275   -1.099399   -0.643174
      3          6           0       -3.031648   -0.369372    0.623396
      4          6           0       -1.714291    0.309199    0.395369
      5          7           0       -0.563678   -0.301623    0.370312
      6          6           0        0.484470    0.557875    0.076183
      7          6           0        0.106893    1.860939   -0.131637
      8         16           0       -1.602969    2.030531    0.045703
      9          6           0        1.859094    0.026459    0.016254
     10          6           0        2.956953    0.857852   -0.263173
     11          6           0        4.247252    0.337281   -0.317320
     12          6           0        4.469499   -1.024247   -0.093521
     13          6           0        3.386169   -1.859738    0.185498
     14          6           0        2.093319   -1.339963    0.239843
     15          1           0       -5.528602   -1.146588   -0.155019
     16          1           0       -4.720268   -2.479702    0.292858
     17          1           0       -2.790924   -1.816778   -0.968631
     18          1           0       -3.669208   -0.370463   -1.452135
     19          1           0       -3.778882    0.359951    0.951326
     20          1           0       -2.906734   -1.101577    1.428237
     21          1           0        0.726163    2.713011   -0.366079
     22          1           0        2.803092    1.917872   -0.438415
     23          1           0        5.080806    0.995591   -0.534414
     24          1           0        5.476049   -1.427306   -0.136247
     25          1           0        3.545956   -2.918766    0.361284
     26          1           0        1.249567   -1.984165    0.455563
 ---------------------------------------------------------------------

 SCF Done:  E(RB3LYP) =  -934.098995320     A.U. after   11 cycles

 The electronic state is 1-A.
 Alpha  occ. eigenvalues --  -88.91635 -14.33749 -14.30994 -10.25876 -10.22993
 Alpha  occ. eigenvalues --  -10.21823 -10.21012 -10.20492 -10.19606 -10.19330
 Alpha  occ. eigenvalues --  -10.19230 -10.19184 -10.19123 -10.18965  -7.97795
 Alpha  occ. eigenvalues --   -5.94170  -5.93817  -5.93529  -0.96720  -0.87769
 Alpha  occ. eigenvalues --   -0.85850  -0.80006  -0.79231  -0.75236  -0.74644
 Alpha  occ. eigenvalues --   -0.69842  -0.62703  -0.62146  -0.60188  -0.57214
 Alpha  occ. eigenvalues --   -0.53832  -0.52480  -0.49396  -0.47883  -0.46010
 Alpha  occ. eigenvalues --   -0.44549  -0.44316  -0.43200  -0.42176  -0.41532
 Alpha  occ. eigenvalues --   -0.40436  -0.39217  -0.37768  -0.37535  -0.36421
 Alpha  occ. eigenvalues --   -0.34816  -0.34338  -0.34105  -0.29289  -0.28154
 Alpha  occ. eigenvalues --   -0.27677  -0.25474  -0.24171  -0.21773
 Alpha virt. eigenvalues --   -0.03897  -0.01277  -0.00020   0.01733   0.07288
 Alpha virt. eigenvalues --    0.08671   0.09598   0.11264   0.12932   0.14160
 Alpha virt. eigenvalues --    0.14383   0.15477   0.15652   0.17439   0.17458

 Mulliken charges:
               1
     1  N   -0.776182
     2  C   -0.133216
     3  C   -0.329368
     4  C    0.104218
     5  N   -0.495953
     6  C    0.261415
     7  C   -0.412482
     8  S    0.239855
     9  C    0.103746
    10  C   -0.200562
    11  C   -0.156346
    12  C   -0.145244
    13  C   -0.150585
    14  C   -0.193469
    15  H    0.335096
    16  H    0.334896
    17  H    0.154127
    18  H    0.151533
    19  H    0.166541
    20  H    0.174862
    21  H    0.209660
    22  H    0.151507
    23  H    0.152145
    24  H    0.150504
    25  H    0.150944
    26  H    0.152359
 Sum of Mulliken charges =  -0.00000

 Dipole moment (field-independent basis, Debye):
    X=             -0.6998    Y=              1.8163    Z=              1.3637  Tot=              2.3766
 Quadrupole moment (field-independent basis, Debye-Ang):
   XX=            -74.3090   YY=            -83.2052   ZZ=            -93.7932
   XY=             -2.0329   XZ=            -11.0363   YZ=             -6.2047

 Normal termination of Gaussian 16 at Tue Mar  1 07:10:12 2022.
