 Gaussian 16, Revision A.03,

 ----------------------------------------------------------------------
 #p b3lyp/6-31G(d) opt=(MaxStep=10,MaxCycles=1000) freq scf=(MaxCycle=2
 000,NoVarAcc,NoIncFock) scrf=(iefpcm,read,solvent=water)
 ----------------------------------------------------------------------

 -------------
 314.n.pdb.xyz
 -------------
 Symbolic Z-matrix:
 Charge =  0 Multiplicity = 1

 SCF Done:  E(RB3LYP) =  -1067.71780842     A.U. after   13 cycles
 SCF Done:  E(RB3LYP) =  -1067.72324770     A.U. after   10 cycles
 SCF Done:  E(RB3LYP) =  -1067.72677676     A.U. after   11 cycles
 SCF Done:  E(RB3LYP) =  -1067.72696005     A.U. after   10 cycles
 SCF Done:  E(RB3LYP) =  -1067.72696147     A.U. after   10 cycles
 SCF Done:  E(RB3LYP) =  -1067.72700162     A.U. after    9 cycles
 SCF Done:  E(RB3LYP) =  -1067.72700066     A.U. after    9 cycles
 SCF Done:  E(RB3LYP) =  -1067.72700441     A.U. after    8 cycles
 SCF Done:  E(RB3LYP) =  -1067.72700976     A.U. after    8 cycles
 SCF Done:  E(RB3LYP) =  -1067.72701250     A.U. after    7 cycles
 SCF Done:  E(RB3LYP) =  -1067.72701289     A.U. after    6 cycles
 Optimization completed.
    -- Stationary point found.
 Normal termination of Gaussian 16 at Tue Mar  1 20:58:53 2022.

 --------------------------------------------------------------------
 #P Geom=AllCheck Guess=TCheck SCRF=Check GenChk RB3LYP/6-31G(d) Freq
 --------------------------------------------------------------------

 Structure from the checkpoint file:  "314.n.pdb.xyz.mst.wat.chk"
 -------------
 314.n.pdb.xyz
 -------------
 Charge =  0 Multiplicity = 1

 SCF Done:  E(RB3LYP) =  -1067.72701289     A.U. after    1 cycles

  Exact polarizability: 334.920   4.521 277.796  -2.531 -18.102 188.534
 Approx polarizability: 342.147  -1.116 317.048  -6.569 -27.942 209.035

                      1                      2                      3
                      A                      A                      A
 Frequencies --     29.6110                36.6125                40.8516
 Red. masses --      4.9618                 6.2310                 3.4296
 Frc consts  --      0.0026                 0.0049                 0.0034
 IR Inten    --      0.2646                 3.8621                 0.5201

                      4                      5                      6
                      A                      A                      A
 Frequencies --     48.0223                56.5618                66.5179
 Red. masses --      3.6503                 5.2027                 4.9566
 Frc consts  --      0.0050                 0.0098                 0.0129
 IR Inten    --      3.6174                 1.0273                 4.2403

                      7                      8                      9
                      A                      A                      A
 Frequencies --     81.0127                90.4097                91.3350
 Red. masses --      2.7554                 1.9657                 1.7723
 Frc consts  --      0.0107                 0.0095                 0.0087
 IR Inten    --      1.0489                 0.6078                 0.2091

                     10                     11                     12
                      A                      A                      A
 Frequencies --    126.8194               129.6576               156.7222
 Red. masses --      3.9222                 3.6292                 5.6377
 Frc consts  --      0.0372                 0.0359                 0.0816
 IR Inten    --      2.6332                 6.7484                 8.3362

                     13                     14                     15
                      A                      A                      A
 Frequencies --    174.2031               186.8395               222.4513
 Red. masses --      2.6672                 6.4689                 3.0414
 Frc consts  --      0.0477                 0.1331                 0.0887
 IR Inten    --      5.1142                 3.7771                 1.8478

                     16                     17                     18
                      A                      A                      A
 Frequencies --    239.9105               242.1312               255.0049
 Red. masses --      1.1524                 1.2601                 4.4940
 Frc consts  --      0.0391                 0.0435                 0.1722
 IR Inten    --      0.0984                 1.0886                21.1618

                     19                     20                     21
                      A                      A                      A
 Frequencies --    278.5880               282.1047               329.5814
 Red. masses --      3.3930                 2.8974                 4.4133
 Frc consts  --      0.1552                 0.1359                 0.2824
 IR Inten    --      5.2499                 2.0971                 6.8344

                     22                     23                     24
                      A                      A                      A
 Frequencies --    340.6001               352.8742               382.3473
 Red. masses --      3.0615                 4.7181                 5.2997
 Frc consts  --      0.2093                 0.3461                 0.4565
 IR Inten    --      2.0842                29.5358                22.8575

                     25                     26                     27
                      A                      A                      A
 Frequencies --    396.8506               408.3286               446.2074
 Red. masses --      3.9250                 6.9531                 2.7107
 Frc consts  --      0.3642                 0.6830                 0.3180
 IR Inten    --     18.0578                 1.8654                 1.3894

                     28                     29                     30
                      A                      A                      A
 Frequencies --    464.0764               488.9124               509.4211
 Red. masses --      5.3510                 3.4018                 7.1859
 Frc consts  --      0.6790                 0.4791                 1.0987
 IR Inten    --      3.0720                10.1861                 8.6290

                     31                     32                     33
                      A                      A                      A
 Frequencies --    550.6271               560.9315               580.9813
 Red. masses --      3.9866                 4.0606                 3.1699
 Frc consts  --      0.7121                 0.7528                 0.6304
 IR Inten    --     15.7047                69.0612                 8.1191

                     34                     35                     36
                      A                      A                      A
 Frequencies --    617.8050               631.6359               686.4987
 Red. masses --      1.1772                 6.0989                 9.6440
 Frc consts  --      0.2647                 1.4336                 2.6779
 IR Inten    --    163.5694                 7.4079                 1.0189

                     37                     38                     39
                      A                      A                      A
 Frequencies --    713.5196               723.3649               735.8017
 Red. masses --      3.4041                 2.6317                 2.2712
 Frc consts  --      1.0211                 0.8113                 0.7245
 IR Inten    --     10.4242                11.0735                 9.4056

                     40                     41                     42
                      A                      A                      A
 Frequencies --    737.0423               745.6518               749.9369
 Red. masses --      5.6113                 2.6959                 1.2297
 Frc consts  --      1.7960                 0.8831                 0.4075
 IR Inten    --     51.3061                10.8520                13.8417

                     43                     44                     45
                      A                      A                      A
 Frequencies --    763.8211               799.3201               804.5722
 Red. masses --      4.3645                 3.3702                 2.7979
 Frc consts  --      1.5003                 1.2687                 1.0671
 IR Inten    --      1.9457                 8.9710                 6.8540

                     46                     47                     48
                      A                      A                      A
 Frequencies --    830.6597               875.0916               897.6111
 Red. masses --      2.6972                 1.2950                 1.8869
 Frc consts  --      1.0965                 0.5843                 0.8957
 IR Inten    --      3.5796                 0.9921                19.7770

                     49                     50                     51
                      A                      A                      A
 Frequencies --    903.8657               910.2293               911.5235
 Red. masses --      1.7498                 1.9362                 1.6834
 Frc consts  --      0.8423                 0.9452                 0.8241
 IR Inten    --     20.6711                 1.6059                 0.8494

                     52                     53                     54
                      A                      A                      A
 Frequencies --    933.0985               975.8352               989.2854
 Red. masses --      1.7373                 1.3711                 4.6769
 Frc consts  --      0.8912                 0.7693                 2.6968
 IR Inten    --      5.9088                 3.1434                22.2353

                     55                     56                     57
                      A                      A                      A
 Frequencies --    996.5482              1041.2709              1045.7521
 Red. masses --      1.9498                 2.9682                 4.1749
 Frc consts  --      1.1408                 1.8961                 2.6900
 IR Inten    --     12.1798                 8.5329                 3.1975

                     58                     59                     60
                      A                      A                      A
 Frequencies --   1054.8540              1058.3956              1078.6806
 Red. masses --      2.7060                 2.6787                 4.2582
 Frc consts  --      1.7741                 1.7679                 2.9192
 IR Inten    --      1.7693                15.3944                 0.4344

                     61                     62                     63
                      A                      A                      A
 Frequencies --   1103.8914              1135.4397              1136.7459
 Red. masses --      2.7356                 2.1398                 2.1157
 Frc consts  --      1.9641                 1.6254                 1.6108
 IR Inten    --    101.0561                 7.4085                 4.0896

                     64                     65                     66
                      A                      A                      A
 Frequencies --   1147.2275              1154.2731              1181.5299
 Red. masses --      2.9791                 2.5655                 1.6156
 Frc consts  --      2.3102                 2.0139                 1.3288
 IR Inten    --      5.8880               129.3972                21.5970

                     67                     68                     69
                      A                      A                      A
 Frequencies --   1203.2948              1222.6079              1235.3668
 Red. masses --      1.6849                 2.6142                 2.2810
 Frc consts  --      1.4373                 2.3023                 2.0510
 IR Inten    --     18.1037                69.6310                11.8833

                     70                     71                     72
                      A                      A                      A
 Frequencies --   1253.5596              1262.7145              1275.4262
 Red. masses --      1.6240                 1.7366                 1.4658
 Frc consts  --      1.5036                 1.6314                 1.4049
 IR Inten    --      3.7748                 3.2297                 7.8583

                     73                     74                     75
                      A                      A                      A
 Frequencies --   1301.3806              1304.5970              1307.3205
 Red. masses --      2.2120                 2.1932                 1.5455
 Frc consts  --      2.2072                 2.1993                 1.5563
 IR Inten    --    105.1212                35.2651                95.1301

                     76                     77                     78
                      A                      A                      A
 Frequencies --   1317.9849              1319.9873              1341.5642
 Red. masses --      1.3328                 1.4684                 1.4843
 Frc consts  --      1.3640                 1.5074                 1.5739
 IR Inten    --     11.0406                55.4842               122.1122

                     79                     80                     81
                      A                      A                      A
 Frequencies --   1345.4992              1346.9488              1352.0477
 Red. masses --      1.3436                 1.2602                 1.4649
 Frc consts  --      1.4331                 1.3471                 1.5778
 IR Inten    --     14.3663                20.3756               118.3429

                     82                     83                     84
                      A                      A                      A
 Frequencies --   1369.2526              1379.6200              1382.2176
 Red. masses --      1.5618                 2.0896                 1.3511
 Frc consts  --      1.7252                 2.3433                 1.5208
 IR Inten    --     24.0404               129.5543                11.1859

                     85                     86                     87
                      A                      A                      A
 Frequencies --   1426.2790              1429.6573              1432.1046
 Red. masses --      1.4853                 1.6861                 1.2406
 Frc consts  --      1.7802                 2.0304                 1.4991
 IR Inten    --      5.2455                29.7555                 0.4376

                     88                     89                     90
                      A                      A                      A
 Frequencies --   1437.9026              1446.6268              1460.9479
 Red. masses --      1.2577                 2.7064                 1.1335
 Frc consts  --      1.5321                 3.3370                 1.4254
 IR Inten    --      6.2533                47.3573                 8.9839

                     91                     92                     93
                      A                      A                      A
 Frequencies --   1468.4169              1477.2365              1482.3732
 Red. masses --      1.9607                 1.2945                 1.1401
 Frc consts  --      2.4910                 1.6644                 1.4760
 IR Inten    --     64.1653                21.0953                14.8066

                     94                     95                     96
                      A                      A                      A
 Frequencies --   1494.4192              1508.9328              1510.4418
 Red. masses --      1.1104                 1.0559                 1.0605
 Frc consts  --      1.4611                 1.4165                 1.4255
 IR Inten    --     13.1423                 0.7045                 2.2722

                     97                     98                     99
                      A                      A                      A
 Frequencies --   1516.8816              1520.4099              1522.8541
 Red. masses --      1.0410                 1.0805                 1.2535
 Frc consts  --      1.4113                 1.4716                 1.7128
 IR Inten    --     10.0390                60.7673                52.9681

                    100                    101                    102
                      A                      A                      A
 Frequencies --   1528.0381              1528.7652              1530.1324
 Red. masses --      2.4685                 1.1984                 1.0894
 Frc consts  --      3.3958                 1.6502                 1.5028
 IR Inten    --    405.9224                78.3018                13.3403

                    103                    104                    105
                      A                      A                      A
 Frequencies --   1598.7508              1636.7299              1698.0966
 Red. masses --      4.9624                 9.9556                11.4412
 Frc consts  --      7.4732                15.7134                19.4377
 IR Inten    --    127.3349               118.4426              1366.4415

                    106                    107                    108
                      A                      A                      A
 Frequencies --   1749.4202              1812.9979              3056.7669
 Red. masses --     11.1421                12.4813                 1.0360
 Frc consts  --     20.0912                24.1715                 5.7037
 IR Inten    --   1000.4113               435.7653                45.1002

                    109                    110                    111
                      A                      A                      A
 Frequencies --   3058.1480              3061.2286              3062.4517
 Red. masses --      1.0691                 1.0364                 1.0595
 Frc consts  --      5.8908                 5.7223                 5.8544
 IR Inten    --     14.5503                41.6583                31.7541

                    112                    113                    114
                      A                      A                      A
 Frequencies --   3066.1224              3070.9014              3085.7049
 Red. masses --      1.0598                 1.0673                 1.0658
 Frc consts  --      5.8702                 5.9304                 5.9793
 IR Inten    --     30.1606                12.6431                26.2801

                    115                    116                    117
                      A                      A                      A
 Frequencies --   3096.1924              3100.2303              3105.2044
 Red. masses --      1.1035                 1.1031                 1.0819
 Frc consts  --      6.2325                 6.2466                 6.1466
 IR Inten    --      7.4482                 7.3180                24.3291

                    118                    119                    120
                      A                      A                      A
 Frequencies --   3118.5250              3122.2126              3126.3659
 Red. masses --      1.0591                 1.1038                 1.1035
 Frc consts  --      6.0684                 6.3399                 6.3547
 IR Inten    --     44.2051                88.2627                84.7943

                    121                    122                    123
                      A                      A                      A
 Frequencies --   3129.2329              3130.0924              3132.3778
 Red. masses --      1.0690                 1.0907                 1.0945
 Frc consts  --      6.1676                 6.2963                 6.3271
 IR Inten    --     20.4939                76.8232                19.0471

                    124                    125                    126
                      A                      A                      A
 Frequencies --   3136.6361              3141.6600              3145.6346
 Red. masses --      1.1017                 1.0968                 1.1027
 Frc consts  --      6.3864                 6.3782                 6.4286
 IR Inten    --     54.6194                17.8462                46.9834

                    127                    128                    129
                      A                      A                      A
 Frequencies --   3174.2289              3185.5745              3605.9449
 Red. masses --      1.1075                 1.1073                 1.0827
 Frc consts  --      6.5744                 6.6205                 8.2947
 IR Inten    --     20.9742                12.4307               264.5374

 - Thermochemistry -
 -------------------
 Temperature   298.150 Kelvin.  Pressure   1.00000 Atm.
 Atom     1 has atomic number  6 and mass  12.00000

 Molecular mass:   318.16919 amu.
 Principal axes and moments of inertia in atomic units:
                           1         2         3
     Eigenvalues --  4788.05795********************
           X            0.99990   0.01208   0.00725
           Y           -0.01211   0.99991   0.00486
           Z           -0.00719  -0.00495   0.99996
 This molecule is an asymmetric top.
 Rotational symmetry number  1.
 Warning -- assumption of classical behavior for rotation
           may cause significant error
 Rotational temperatures (Kelvin)      0.01809     0.00637     0.00498
 Rotational constants (GHZ):           0.37693     0.13273     0.10382
 Zero-point vibrational energy     995108.4 (Joules/Mol)
                                  237.83661 (Kcal/Mol)
 Warning -- explicit consideration of  34 degrees of freedom as
           vibrations may cause significant error
 Vibrational temperatures:     42.60    52.68    58.78    69.09    81.38
          (Kelvin)             95.70   116.56   130.08   131.41   182.46
                              186.55   225.49   250.64   268.82   320.06
                              345.18   348.37   366.90   400.83   405.89
                              474.19   490.05   507.71   550.11   570.98
                              587.49   641.99   667.70   703.44   732.94
                              792.23   807.06   835.90   888.88   908.78
                              987.72  1026.60  1040.76  1058.65  1060.44
                             1072.83  1078.99  1098.97  1150.04  1157.60
                             1195.13  1259.06  1291.46  1300.46  1309.62
                             1311.48  1342.52  1404.01  1423.36  1433.81
                             1498.16  1504.60  1517.70  1522.80  1551.98
                             1588.25  1633.64  1635.52  1650.60  1660.74
                             1699.96  1731.27  1759.06  1777.42  1803.59
                             1816.76  1835.05  1872.40  1877.02  1880.94
                             1896.29  1899.17  1930.21  1935.87  1937.96
                             1945.30  1970.05  1984.97  1988.70  2052.10
                             2056.96  2060.48  2068.82  2081.37  2101.98
                             2112.72  2125.41  2132.80  2150.14  2171.02
                             2173.19  2182.45  2187.53  2191.05  2198.51
                             2199.55  2201.52  2300.25  2354.89  2443.18
                             2517.03  2608.50  4398.01  4399.99  4404.43
                             4406.18  4411.47  4418.34  4439.64  4454.73
                             4460.54  4467.70  4486.86  4492.17  4498.14
                             4502.27  4503.50  4506.79  4512.92  4520.15
                             4525.87  4567.01  4583.33  5188.15

 Zero-point correction=                           0.379017 (Hartree/Particle)
 Thermal correction to Energy=                    0.401166
 Thermal correction to Enthalpy=                  0.402110
 Thermal correction to Gibbs Free Energy=         0.325837
 Sum of electronic and zero-point Energies=          -1067.347996
 Sum of electronic and thermal Energies=             -1067.325847
 Sum of electronic and thermal Enthalpies=           -1067.324903
 Sum of electronic and thermal Free Energies=        -1067.401176

                     E (Thermal)             CV                S
                      KCal/Mol        Cal/Mol-Kelvin    Cal/Mol-Kelvin
 Total                  251.735             82.960            160.530
 Electronic               0.000              0.000              0.000
 Translational            0.889              2.981             43.168
 Rotational               0.889              2.981             35.380
 Vibrational            249.958             76.999             81.981
 Vibration     1          0.593              1.984              5.855
 Vibration     2          0.594              1.982              5.434
 Vibration     3          0.594              1.981              5.217
 Vibration     4          0.595              1.978              4.897
 Vibration     5          0.596              1.975              4.574
 Vibration     6          0.598              1.970              4.254
 Vibration     7          0.600              1.962              3.866
 Vibration     8          0.602              1.956              3.651
 Vibration     9          0.602              1.955              3.631
 Vibration    10          0.611              1.926              2.994
 Vibration    11          0.612              1.924              2.951
 Vibration    12          0.620              1.895              2.589
 Vibration    13          0.627              1.874              2.390
 Vibration    14          0.632              1.858              2.259
 Vibration    15          0.648              1.807              1.939
 Vibration    16          0.657              1.779              1.804
 Vibration    17          0.658              1.776              1.787
 Vibration    18          0.665              1.754              1.696
 Vibration    19          0.679              1.713              1.542
 Vibration    20          0.681              1.707              1.521
 Vibration    21          0.712              1.616              1.262
 Vibration    22          0.720              1.594              1.209
 Vibration    23          0.729              1.569              1.153
 Vibration    24          0.752              1.508              1.030
 Vibration    25          0.763              1.477              0.974
 Vibration    26          0.773              1.452              0.933
 Vibration    27          0.805              1.369              0.807
 Vibration    28          0.822              1.330              0.754
 Vibration    29          0.845              1.275              0.686
 Vibration    30          0.865              1.229              0.635
 Vibration    31          0.906              1.138              0.543
 Vibration    32          0.917              1.116              0.522
 Vibration    33          0.938              1.072              0.484
 Vibration    34          0.978              0.994              0.420

                           ! Non-Optimized Parameters !
 Normal termination of Gaussian 16 at Tue Mar  1 22:04:28 2022.

 ------------------------------------------
 #p b3lyp/6-31G(d) geom=allcheck guess=read
 ------------------------------------------

 Structure from the checkpoint file:  "314.n.pdb.xyz.mst.wat.chk"
 -------------
 314.n.pdb.xyz
 -------------
 Charge =  0 Multiplicity = 1

 SCF Done:  E(RB3LYP) =  -1067.70221348     A.U. after   12 cycles
 Normal termination of Gaussian 16 at Tue Mar  1 22:08:31 2022.
 Gaussian 16:  ES64L-G16RevA.03 25-Dec-2016

 ----------------------------------------------------------------------
 #p b3lyp/6-31G(d) scrf=(iefpcm,read,solvent=water) geom=allcheck guess
 =read
 ----------------------------------------------------------------------

 Structure from the checkpoint file:  "314.n.pdb.xyz.mst.wat.chk"
 -------------
 314.n.pdb.xyz
 -------------
 Charge =  0 Multiplicity = 1

                         Standard orientation:
 ---------------------------------------------------------------------
 Center     Atomic      Atomic             Coordinates (Angstroms)
 Number     Number       Type             X           Y           Z
 ---------------------------------------------------------------------
      1          6           0       -1.586119    5.044997    0.054282
      2          6           0       -1.528663    3.583766    0.501179
      3          6           0       -1.465096    2.629220   -0.692689
      4          7           0       -1.406508    1.216582   -0.292650
      5          6           0       -0.202373    0.577568   -0.115936
      6          6           0       -0.134135   -0.746706    0.266687
      7          7           0        1.218012   -1.025846    0.324874
      8          6           0        1.877572    0.109629   -0.013351
      9          7           0        1.034028    1.114649   -0.290439
     10          6           0        3.365029    0.234269   -0.062248
     11          6           0        4.084886   -0.041044    1.288979
     12          6           0        5.550717   -0.254794    0.890685
     13          6           0        5.497691   -0.840575   -0.516095
     14          8           0        6.433550   -1.333505   -1.117121
     15          6           0        4.075730   -0.712356   -1.054238
     16          6           0       -1.286202   -1.550653    0.509144
     17          8           0       -1.304193   -2.738285    0.842965
     18          7           0       -2.481600   -0.815419    0.324408
     19          6           0       -3.747558   -1.532090    0.553370
     20          6           0       -4.311649   -2.167653   -0.719335
     21          6           0       -5.625828   -2.902115   -0.448830
     22          6           0       -2.586813    0.526370   -0.069618
     23          8           0       -3.683676    1.068286   -0.211869
     24          1           0       -0.701015    5.317052   -0.530603
     25          1           0       -1.634353    5.713997    0.917604
     26          1           0       -2.467882    5.235525   -0.565991
     27          1           0       -2.411083    3.339298    1.101571
     28          1           0       -0.651820    3.420171    1.137215
     29          1           0       -2.345949    2.744225   -1.324555
     30          1           0       -0.574040    2.820243   -1.292636
     31          1           0        1.630024   -1.917011    0.579981
     32          1           0        3.568171    1.266631   -0.359120
     33          1           0        3.683234   -0.950443    1.746651
     34          1           0        3.942827    0.778055    1.996364
     35          1           0        6.086765    0.700990    0.824375
     36          1           0        6.120812   -0.899250    1.563850
     37          1           0        4.068001   -0.367652   -2.090423
     38          1           0        3.629001   -1.714327   -1.040833
     39          1           0       -4.452989   -0.813911    0.969760
     40          1           0       -3.532899   -2.297900    1.296812
     41          1           0       -3.570218   -2.863736   -1.127514
     42          1           0       -4.467039   -1.385315   -1.470319
     43          1           0       -5.489552   -3.702295    0.286408
     44          1           0       -6.389141   -2.219232   -0.060659
     45          1           0       -6.016966   -3.353849   -1.365006
 ---------------------------------------------------------------------

 SCF Done:  E(RB3LYP) =  -1067.72401163     A.U. after   11 cycles

 The electronic state is 1-A.
 Alpha  occ. eigenvalues --  -19.14780 -19.12834 -19.12644 -14.40235 -14.39596
 Alpha  occ. eigenvalues --  -14.38975 -14.33607 -10.33194 -10.30796 -10.28403
 Alpha  occ. eigenvalues --  -10.27177 -10.26538 -10.22682 -10.22374 -10.21618
 Alpha  occ. eigenvalues --  -10.21439 -10.19862 -10.19627 -10.19298 -10.18449
 Alpha  occ. eigenvalues --  -10.18219 -10.17471 -10.17368  -1.07274  -1.04620
 Alpha  occ. eigenvalues --   -1.04303  -1.03458  -0.97013  -0.93635  -0.88756
 Alpha  occ. eigenvalues --   -0.85367  -0.80390  -0.77879  -0.77384  -0.73635
 Alpha  occ. eigenvalues --   -0.71549  -0.70252  -0.69061  -0.65292  -0.64530
 Alpha  occ. eigenvalues --   -0.62153  -0.61133  -0.60137  -0.59378  -0.56322
 Alpha  occ. eigenvalues --   -0.53848  -0.53702  -0.51246  -0.49643  -0.49001
 Alpha  occ. eigenvalues --   -0.48047  -0.47238  -0.46283  -0.46169  -0.45697
 Alpha  occ. eigenvalues --   -0.44750  -0.43729  -0.43410  -0.43296  -0.42601
 Alpha  occ. eigenvalues --   -0.42495  -0.41221  -0.40336  -0.39976  -0.39599
 Alpha  occ. eigenvalues --   -0.38717  -0.38462  -0.37240  -0.36740  -0.36136
 Alpha  occ. eigenvalues --   -0.36023  -0.35249  -0.34720  -0.34590  -0.34271
 Alpha  occ. eigenvalues --   -0.33644  -0.33263  -0.32202  -0.30791  -0.29056
 Alpha  occ. eigenvalues --   -0.28145  -0.26761  -0.26478  -0.25163  -0.21790
 Alpha virt. eigenvalues --   -0.03330  -0.02412   0.01890   0.03490   0.07434
 Alpha virt. eigenvalues --    0.09693   0.10294   0.10697   0.12659   0.12958
 Alpha virt. eigenvalues --    0.13461   0.13994   0.14146   0.14670   0.15070

 Mulliken charges:
               1
     1  C   -0.455601
     2  C   -0.258048
     3  C   -0.143697
     4  N   -0.602281
     5  C    0.498501
     6  C    0.247101
     7  N   -0.726828
     8  C    0.551864
     9  N   -0.608375
    10  C   -0.199689
    11  C   -0.289067
    12  C   -0.359216
    13  C    0.471234
    14  O   -0.512393
    15  C   -0.361368
    16  C    0.635995
    17  O   -0.598230
    18  N   -0.577489
    19  C   -0.129820
    20  C   -0.256446
    21  C   -0.455402
    22  C    0.815984
    23  O   -0.592476
    24  H    0.152085
    25  H    0.155337
    26  H    0.152445
    27  H    0.153400
    28  H    0.150642
    29  H    0.175649
    30  H    0.175710
    31  H    0.407288
    32  H    0.180564
    33  H    0.165540
    34  H    0.171441
    35  H    0.196008
    36  H    0.185809
    37  H    0.195354
    38  H    0.195719
    39  H    0.170136
    40  H    0.170540
    41  H    0.147648
    42  H    0.149208
    43  H    0.150814
    44  H    0.150950
    45  H    0.153461
 Sum of Mulliken charges =  -0.00000

 Dipole moment (field-independent basis, Debye):
    X=              3.1061    Y=              1.3973    Z=              1.8840  Tot=              3.8923
 Quadrupole moment (field-independent basis, Debye-Ang):
   XX=           -161.6034   YY=           -139.5966   ZZ=           -134.1416
   XY=              8.2046   XZ=             14.9394   YZ=             -0.0024

 Normal termination of Gaussian 16 at Tue Mar  1 22:13:18 2022.
