 Gaussian 16, Revision A.03,

 ----------------------------------------------------------------------
 #p b3lyp/6-31G(d) opt=(MaxStep=10,MaxCycles=1000) freq scf=(MaxCycle=2
 000,NoVarAcc,NoIncFock) scrf=(iefpcm,read,solvent=water)
 ----------------------------------------------------------------------

 -------------
 315.n.pdb.xyz
 -------------
 Symbolic Z-matrix:
 Charge =  0 Multiplicity = 1

 SCF Done:  E(RB3LYP) =  -513.838537650     A.U. after   12 cycles
 SCF Done:  E(RB3LYP) =  -513.841224830     A.U. after   10 cycles
 SCF Done:  E(RB3LYP) =  -513.841788400     A.U. after   10 cycles
 SCF Done:  E(RB3LYP) =  -513.841828038     A.U. after    9 cycles
 SCF Done:  E(RB3LYP) =  -513.841830811     A.U. after    8 cycles
 SCF Done:  E(RB3LYP) =  -513.841830038     A.U. after    7 cycles
 SCF Done:  E(RB3LYP) =  -513.841829680     A.U. after    7 cycles
 SCF Done:  E(RB3LYP) =  -513.841830162     A.U. after    7 cycles
 Optimization completed.
    -- Stationary point found.
 Normal termination of Gaussian 16 at Tue Mar  1 21:15:10 2022.

 --------------------------------------------------------------------
 #P Geom=AllCheck Guess=TCheck SCRF=Check GenChk RB3LYP/6-31G(d) Freq
 --------------------------------------------------------------------

 Structure from the checkpoint file:  "315.n.pdb.xyz.mst.wat.chk"
 -------------
 315.n.pdb.xyz
 -------------
 Charge =  0 Multiplicity = 1

 SCF Done:  E(RB3LYP) =  -513.841830162     A.U. after    1 cycles

  Exact polarizability: 233.820 -10.082 156.851   0.005  -0.000  73.705
 Approx polarizability: 254.983 -12.374 191.351   0.006  -0.001  84.470

                      1                      2                      3
                      A                      A                      A
 Frequencies --     28.4317                80.1070               106.5092
 Red. masses --      2.7178                 2.1116                 4.8105
 Frc consts  --      0.0013                 0.0080                 0.0322
 IR Inten    --      5.7432                 7.1065                 3.4882

                      4                      5                      6
                      A                      A                      A
 Frequencies --    156.3791               243.2568               308.7391
 Red. masses --      3.4556                 4.2576                 4.8056
 Frc consts  --      0.0498                 0.1484                 0.2699
 IR Inten    --      3.0016                 4.6182                 4.6838

                      7                      8                      9
                      A                      A                      A
 Frequencies --    314.9391               322.5610               326.2344
 Red. masses --      1.5352                 2.0416                 3.3834
 Frc consts  --      0.0897                 0.1252                 0.2122
 IR Inten    --     31.4258                58.3924                11.2299

                     10                     11                     12
                      A                      A                      A
 Frequencies --    443.1070               497.6938               580.8112
 Red. masses --      3.0041                 4.3948                 3.4802
 Frc consts  --      0.3475                 0.6414                 0.6917
 IR Inten    --      8.5106                 1.7088                 0.0422

                     13                     14                     15
                      A                      A                      A
 Frequencies --    581.6793               628.7228               660.4900
 Red. masses --      6.7327                 6.4490                 2.8989
 Frc consts  --      1.3422                 1.5020                 0.7451
 IR Inten    --      4.5129                 0.7615                 5.1177

                     16                     17                     18
                      A                      A                      A
 Frequencies --    716.1333               716.5739               759.0854
 Red. masses --      4.5117                 1.2908                 1.5072
 Frc consts  --      1.3633                 0.3905                 0.5117
 IR Inten    --      5.9471                22.6422                73.5293

                     19                     20                     21
                      A                      A                      A
 Frequencies --    767.6486               782.5021               842.3723
 Red. masses --      3.3362                 1.2976                 3.8729
 Frc consts  --      1.1583                 0.4681                 1.6192
 IR Inten    --     22.3526                13.2044                 1.5647

                     22                     23                     24
                      A                      A                      A
 Frequencies --    855.3655               924.1196               941.1413
 Red. masses --      1.4394                 5.5880                 1.3044
 Frc consts  --      0.6205                 2.8117                 0.6807
 IR Inten    --      1.3762                 9.9684                 0.9309

                     25                     26                     27
                      A                      A                      A
 Frequencies --    945.3432               987.4720              1001.7230
 Red. masses --      1.9844                 1.2477                 1.3323
 Frc consts  --      1.0448                 0.7168                 0.7877
 IR Inten    --    227.1821                 0.0122                 1.9687

                     28                     29                     30
                      A                      A                      A
 Frequencies --   1010.2688              1045.2950              1073.3778
 Red. masses --      4.2801                 2.5400                 3.3367
 Frc consts  --      2.5738                 1.6352                 2.2650
 IR Inten    --     13.9592                13.1915                80.2741

                     31                     32                     33
                      A                      A                      A
 Frequencies --   1117.9774              1153.1740              1168.8494
 Red. masses --      2.3069                 1.5594                 1.1761
 Frc consts  --      1.6988                 1.2218                 0.9467
 IR Inten    --     13.3582                 3.4906                26.8355

                     34                     35                     36
                      A                      A                      A
 Frequencies --   1169.6688              1214.8230              1255.7447
 Red. masses --      1.2113                 1.4058                 2.7413
 Frc consts  --      0.9764                 1.2223                 2.5469
 IR Inten    --      0.3616                10.7033                40.3590

                     37                     38                     39
                      A                      A                      A
 Frequencies --   1292.6035              1307.5400              1324.2021
 Red. masses --      1.9348                 2.4763                 1.1781
 Frc consts  --      1.9047                 2.4944                 1.2171
 IR Inten    --      4.4285               167.6494                 0.0527

                     40                     41                     42
                      A                      A                      A
 Frequencies --   1376.0146              1389.6374              1396.9369
 Red. masses --      2.6714                 2.0314                 2.5884
 Frc consts  --      2.9801                 2.3113                 2.9761
 IR Inten    --     21.5936                51.7646                30.6439

                     43                     44                     45
                      A                      A                      A
 Frequencies --   1410.4414              1430.6778              1497.3164
 Red. masses --      1.1873                 1.8584                 1.1115
 Frc consts  --      1.3916                 2.2412                 1.4683
 IR Inten    --      0.0020                11.3209                 5.0019

                     46                     47                     48
                      A                      A                      A
 Frequencies --   1499.5793              1521.6532              1547.8132
 Red. masses --      2.7818                 1.1119                 4.7296
 Frc consts  --      3.6857                 1.5169                 6.6759
 IR Inten    --      1.4663                 7.7919               135.2728

                     49                     50                     51
                      A                      A                      A
 Frequencies --   1577.7835              1587.8202              1667.3853
 Red. masses --      4.5879                 5.2250                 1.0870
 Frc consts  --      6.7292                 7.7614                 1.7805
 IR Inten    --      4.4149                35.9723                49.2104

                     52                     53                     54
                      A                      A                      A
 Frequencies --   1690.9553              3038.0661              3054.3415
 Red. masses --      6.0798                 1.0596                 1.0589
 Frc consts  --     10.2425                 5.7624                 5.8205
 IR Inten    --     28.7624                44.6770                88.9802

                     55                     56                     57
                      A                      A                      A
 Frequencies --   3064.1973              3096.2912              3224.8776
 Red. masses --      1.1014                 1.1068                 1.0874
 Frc consts  --      6.0930                 6.2517                 6.6627
 IR Inten    --     12.7608                98.7288                 4.2295

                     58                     59                     60
                      A                      A                      A
 Frequencies --   3238.9158              3246.0744              3264.2335
 Red. masses --      1.0930                 1.0928                 1.0974
 Frc consts  --      6.7558                 6.7846                 6.8892
 IR Inten    --     15.1920                12.3025                 8.7916

                     61                     62                     63
                      A                      A                      A
 Frequencies --   3316.4361              3454.2301              3530.4109
 Red. masses --      1.0976                 1.0513                 1.0916
 Frc consts  --      7.1127                 7.3909                 8.0160
 IR Inten    --      0.4511                 0.3013                 1.6709

 - Thermochemistry -
 -------------------
 Temperature   298.150 Kelvin.  Pressure   1.00000 Atm.
 Atom     1 has atomic number  7 and mass  14.00307

 Molecular mass:   161.09530 amu.
 Principal axes and moments of inertia in atomic units:
                           1         2         3
     Eigenvalues --   536.607603983.854854488.89654
           X            1.00000  -0.00276   0.00000
           Y            0.00276   1.00000   0.00000
           Z           -0.00000  -0.00000   1.00000
 This molecule is an asymmetric top.
 Rotational symmetry number  1.
 Warning -- assumption of classical behavior for rotation
           may cause significant error
 Rotational temperatures (Kelvin)      0.16141     0.02174     0.01930
 Rotational constants (GHZ):           3.36324     0.45301     0.40205
 Zero-point vibrational energy     507065.6 (Joules/Mol)
                                  121.19160 (Kcal/Mol)
 Warning -- explicit consideration of  13 degrees of freedom as
           vibrations may cause significant error
 Vibrational temperatures:     40.91   115.26   153.24   224.99   349.99
          (Kelvin)            444.21   453.13   464.09   469.38   637.53
                              716.07   835.66   836.91   904.59   950.30
                             1030.36  1030.99  1092.15  1104.48  1125.85
                             1211.99  1230.68  1329.60  1354.09  1360.14
                             1420.75  1441.26  1453.55  1503.95  1544.35
                             1608.52  1659.16  1681.71  1682.89  1747.86
                             1806.74  1859.77  1881.26  1905.23  1979.78
                             1999.38  2009.88  2029.31  2058.43  2154.30
                             2157.56  2189.32  2226.96  2270.08  2284.52
                             2399.00  2432.91  4371.10  4394.52  4408.70
                             4454.87  4639.88  4660.08  4670.38  4696.50
                             4771.61  4969.87  5079.47

 Zero-point correction=                           0.193131 (Hartree/Particle)
 Thermal correction to Energy=                    0.203299
 Thermal correction to Enthalpy=                  0.204243
 Thermal correction to Gibbs Free Energy=         0.156389
 Sum of electronic and zero-point Energies=           -513.648699
 Sum of electronic and thermal Energies=              -513.638532
 Sum of electronic and thermal Enthalpies=            -513.637587
 Sum of electronic and thermal Free Energies=         -513.685441

                     E (Thermal)             CV                S
                      KCal/Mol        Cal/Mol-Kelvin    Cal/Mol-Kelvin
 Total                  127.572             39.459            100.717
 Electronic               0.000              0.000              0.000
 Translational            0.889              2.981             41.139
 Rotational               0.889              2.981             30.640
 Vibrational            125.794             33.498             28.937
 Vibration     1          0.593              1.984              5.936
 Vibration     2          0.600              1.963              3.888
 Vibration     3          0.605              1.944              3.332
 Vibration     4          0.620              1.896              2.593
 Vibration     5          0.659              1.774              1.779
 Vibration     6          0.698              1.657              1.369
 Vibration     7          0.702              1.645              1.336
 Vibration     8          0.708              1.630              1.297
 Vibration     9          0.710              1.623              1.279
 Vibration    10          0.803              1.376              0.817
 Vibration    11          0.853              1.255              0.664
 Vibration    12          0.938              1.073              0.484
 Vibration    13          0.938              1.071              0.482

 Optimization completed.
    -- Stationary point found.
 Normal termination of Gaussian 16 at Tue Mar  1 21:26:17 2022.

 ------------------------------------------
 #p b3lyp/6-31G(d) geom=allcheck guess=read
 ------------------------------------------

 Structure from the checkpoint file:  "315.n.pdb.xyz.mst.wat.chk"
 -------------
 315.n.pdb.xyz
 -------------
 Charge =  0 Multiplicity = 1

 SCF Done:  E(RB3LYP) =  -513.824221591     A.U. after   12 cycles
 Normal termination of Gaussian 16 at Tue Mar  1 21:27:27 2022.
 Gaussian 16:  ES64L-G16RevA.03 25-Dec-2016

 ----------------------------------------------------------------------
 #p b3lyp/6-31G(d) scrf=(iefpcm,read,solvent=water) geom=allcheck guess
 =read
 ----------------------------------------------------------------------

 Structure from the checkpoint file:  "315.n.pdb.xyz.mst.wat.chk"
 -------------
 315.n.pdb.xyz
 -------------
 Charge =  0 Multiplicity = 1

                         Standard orientation:
 ---------------------------------------------------------------------
 Center     Atomic      Atomic             Coordinates (Angstroms)
 Number     Number       Type             X           Y           Z
 ---------------------------------------------------------------------
      1          7           0        4.747147    0.277121   -0.000200
      2          6           0        3.308533    0.560799    0.000091
      3          6           0        2.402086   -0.676112    0.000080
      4          6           0        0.931958   -0.373146    0.000086
      5          6           0        0.320025    0.864716    0.000022
      6          7           0       -1.038604    0.616287    0.000035
      7          6           0       -2.112681    1.470727    0.000024
      8          6           0       -3.377168    0.951472   -0.000031
      9          6           0       -3.575499   -0.457149   -0.000075
     10          6           0       -2.498405   -1.311523   -0.000064
     11          6           0       -1.188666   -0.779129   -0.000010
     12          7           0        0.000870   -1.384537    0.000084
     13          1           0        4.963301   -0.307064    0.808630
     14          1           0        4.962966   -0.307013   -0.809141
     15          1           0        3.085573    1.176649    0.878712
     16          1           0        3.085244    1.176867   -0.878284
     17          1           0        2.639375   -1.295084    0.875619
     18          1           0        2.639301   -1.294841   -0.875523
     19          1           0        0.707568    1.869878   -0.000006
     20          1           0       -1.887209    2.528648    0.000041
     21          1           0       -4.222563    1.627722   -0.000047
     22          1           0       -4.584297   -0.853407   -0.000104
     23          1           0       -2.616253   -2.388377   -0.000068
 ---------------------------------------------------------------------

 SCF Done:  E(RB3LYP) =  -513.841271267     A.U. after   11 cycles

 The electronic state is 1-A.
 Alpha  occ. eigenvalues --  -14.41439 -14.31203 -14.30664 -10.25051 -10.23888
 Alpha  occ. eigenvalues --  -10.21511 -10.21012 -10.20378 -10.20202 -10.20090
 Alpha  occ. eigenvalues --  -10.19881 -10.18327  -1.03023  -0.90539  -0.87391
 Alpha  occ. eigenvalues --   -0.83064  -0.77371  -0.74631  -0.71478  -0.64360
 Alpha  occ. eigenvalues --   -0.62629  -0.61141  -0.57255  -0.52748  -0.49337
 Alpha  occ. eigenvalues --   -0.49183  -0.48090  -0.46074  -0.45848  -0.44326
 Alpha  occ. eigenvalues --   -0.42183  -0.41598  -0.40064  -0.38213  -0.37056
 Alpha  occ. eigenvalues --   -0.35930  -0.34911  -0.32926  -0.32010  -0.28034
 Alpha  occ. eigenvalues --   -0.23875  -0.23840  -0.21068
 Alpha virt. eigenvalues --   -0.03136   0.00682   0.06389   0.09339   0.09937
 Alpha virt. eigenvalues --    0.12278   0.13737   0.14204   0.14715   0.14984
 Alpha virt. eigenvalues --    0.16574   0.17611   0.18507   0.19119   0.19992

 Mulliken charges:
               1
     1  N   -0.783004
     2  C   -0.146640
     3  C   -0.343589
     4  C    0.225177
     5  C   -0.041405
     6  N   -0.479575
     7  C    0.071792
     8  C   -0.204168
     9  C   -0.132851
    10  C   -0.200604
    11  C    0.523883
    12  N   -0.637132
    13  H    0.330681
    14  H    0.330718
    15  H    0.146734
    16  H    0.146723
    17  H    0.157096
    18  H    0.157125
    19  H    0.182977
    20  H    0.197760
    21  H    0.169453
    22  H    0.163927
    23  H    0.164922
 Sum of Mulliken charges =  -0.00000

 Dipole moment (field-independent basis, Debye):
    X=             -2.4276    Y=              2.3246    Z=             -0.0005  Tot=              3.3611
 Quadrupole moment (field-independent basis, Debye-Ang):
   XX=            -62.6939   YY=            -68.3467   ZZ=            -71.3318
   XY=            -10.4410   XZ=             -0.0001   YZ=              0.0008

 Normal termination of Gaussian 16 at Tue Mar  1 21:28:43 2022.
