 Gaussian 16, Revision A.03,

 ----------------------------------------------------------------------
 #p b3lyp/6-31G(d) opt=(MaxStep=10,MaxCycles=1000) freq scf=(MaxCycle=2
 000,NoVarAcc,NoIncFock) scrf=(iefpcm,read,solvent=water)
 ----------------------------------------------------------------------

 -------------
 322.n.pdb.xyz
 -------------
 Symbolic Z-matrix:
 Charge =  0 Multiplicity = 1

 SCF Done:  E(RB3LYP) =  -688.374536032     A.U. after   11 cycles
 SCF Done:  E(RB3LYP) =  -688.378419984     A.U. after    9 cycles
 SCF Done:  E(RB3LYP) =  -688.378638104     A.U. after   10 cycles
 SCF Done:  E(RB3LYP) =  -688.380032386     A.U. after    8 cycles
 SCF Done:  E(RB3LYP) =  -688.380125057     A.U. after   10 cycles
 SCF Done:  E(RB3LYP) =  -688.380552821     A.U. after    9 cycles
 SCF Done:  E(RB3LYP) =  -688.380782947     A.U. after    9 cycles
 SCF Done:  E(RB3LYP) =  -688.380791457     A.U. after    9 cycles
 SCF Done:  E(RB3LYP) =  -688.380887267     A.U. after    9 cycles
 SCF Done:  E(RB3LYP) =  -688.380959244     A.U. after    9 cycles
 SCF Done:  E(RB3LYP) =  -688.380994726     A.U. after    9 cycles
 SCF Done:  E(RB3LYP) =  -688.381012197     A.U. after    8 cycles
 SCF Done:  E(RB3LYP) =  -688.381022458     A.U. after    8 cycles
 SCF Done:  E(RB3LYP) =  -688.381013471     A.U. after    8 cycles
 SCF Done:  E(RB3LYP) =  -688.381009843     A.U. after    7 cycles
 SCF Done:  E(RB3LYP) =  -688.381005691     A.U. after    6 cycles
 Optimization completed.
    -- Stationary point found.
 Normal termination of Gaussian 16 at Tue Mar  1 15:50:01 2022.

 --------------------------------------------------------------------
 #P Geom=AllCheck Guess=TCheck SCRF=Check GenChk RB3LYP/6-31G(d) Freq
 --------------------------------------------------------------------

 Structure from the checkpoint file:  "322.n.pdb.xyz.mst.wat.chk"
 -------------
 322.n.pdb.xyz
 -------------
 Charge =  0 Multiplicity = 1

 SCF Done:  E(RB3LYP) =  -688.381005691     A.U. after    1 cycles

  Exact polarizability: 121.247   1.529 100.851   1.331  -0.507 102.397
 Approx polarizability: 118.209   2.877 109.466   0.689  -0.850 112.975

 ******    1 imaginary frequencies (negative Signs) ******

                      1                      2                      3
                      A                      A                      A
 Frequencies --    -18.3571                64.4325                85.4737
 Red. masses --      4.3299                 5.9535                 5.7123
 Frc consts  --      0.0009                 0.0146                 0.0246
 IR Inten    --     11.4229                 4.9885                 2.8131

                      4                      5                      6
                      A                      A                      A
 Frequencies --     95.1853               111.0472               126.3597
 Red. masses --      5.3886                 3.0413                 3.1879
 Frc consts  --      0.0288                 0.0221                 0.0300
 IR Inten    --      3.7031                 8.5309                 3.5472

                      7                      8                      9
                      A                      A                      A
 Frequencies --    178.9125               228.8231               239.7243
 Red. masses --      4.0470                 3.3871                 3.0231
 Frc consts  --      0.0763                 0.1045                 0.1024
 IR Inten    --     29.1462                62.6099                61.3471

                     10                     11                     12
                      A                      A                      A
 Frequencies --    257.3436               272.7266               281.6738
 Red. masses --      1.3923                 1.9781                 3.2661
 Frc consts  --      0.0543                 0.0867                 0.1527
 IR Inten    --    186.6327                25.0181                12.5577

                     13                     14                     15
                      A                      A                      A
 Frequencies --    314.0039               318.2883               343.5834
 Red. masses --      5.0448                 2.1898                 4.0083
 Frc consts  --      0.2931                 0.1307                 0.2788
 IR Inten    --      1.1409                75.6295                20.5627

                     16                     17                     18
                      A                      A                      A
 Frequencies --    378.5395               392.4512               413.8332
 Red. masses --      1.8759                 1.5198                 1.5019
 Frc consts  --      0.1584                 0.1379                 0.1515
 IR Inten    --    224.5848               126.3795               247.1349

                     19                     20                     21
                      A                      A                      A
 Frequencies --    495.6738               513.5275               532.3827
 Red. masses --      1.1038                 2.5244                 2.6010
 Frc consts  --      0.1598                 0.3922                 0.4344
 IR Inten    --    244.6634                 8.0038                19.8907

                     22                     23                     24
                      A                      A                      A
 Frequencies --    613.6844               658.9768               760.4567
 Red. masses --      1.1044                 4.2620                 3.3958
 Frc consts  --      0.2451                 1.0904                 1.1570
 IR Inten    --     95.9847                80.8070                29.1960

                     25                     26                     27
                      A                      A                      A
 Frequencies --    788.8517               855.1868               864.7532
 Red. masses --      4.8982                 3.4522                 4.5499
 Frc consts  --      1.7959                 1.4875                 2.0046
 IR Inten    --     69.8272                 5.3575                99.4970

                     28                     29                     30
                      A                      A                      A
 Frequencies --    894.1607               942.2678               999.1065
 Red. masses --      2.5047                 1.9362                 1.6719
 Frc consts  --      1.1799                 1.0129                 0.9833
 IR Inten    --     13.9074                46.0999                18.9024

                     31                     32                     33
                      A                      A                      A
 Frequencies --   1037.9243              1059.9213              1077.8094
 Red. masses --      4.2948                 4.0778                 2.7252
 Frc consts  --      2.7260                 2.6991                 1.8652
 IR Inten    --     26.5987                47.2475                48.0816

                     34                     35                     36
                      A                      A                      A
 Frequencies --   1082.7022              1089.0585              1111.1219
 Red. masses --      4.2453                 2.5440                 2.7517
 Frc consts  --      2.9321                 1.7777                 2.0016
 IR Inten    --    258.4464                77.7120                32.8810

                     37                     38                     39
                      A                      A                      A
 Frequencies --   1123.8910              1158.9991              1200.2311
 Red. masses --      2.7146                 2.8121                 1.1839
 Frc consts  --      2.0203                 2.2256                 1.0048
 IR Inten    --     15.9877               210.9117                59.0128

                     40                     41                     42
                      A                      A                      A
 Frequencies --   1211.9264              1238.0569              1267.3554
 Red. masses --      1.1637                 1.2178                 1.1830
 Frc consts  --      1.0070                 1.0998                 1.1195
 IR Inten    --     45.4783                42.2853                51.0882

                     43                     44                     45
                      A                      A                      A
 Frequencies --   1278.5112              1284.0279              1298.3969
 Red. masses --      1.1904                 1.1905                 1.2110
 Frc consts  --      1.1465                 1.1565                 1.2029
 IR Inten    --    127.5561                13.0108                52.2066

                     46                     47                     48
                      A                      A                      A
 Frequencies --   1323.4633              1363.5989              1374.7197
 Red. masses --      1.2103                 1.1971                 1.2852
 Frc consts  --      1.2490                 1.3114                 1.4310
 IR Inten    --     35.2273                32.5814                74.9484

                     49                     50                     51
                      A                      A                      A
 Frequencies --   1392.6471              1399.1683              1414.1602
 Red. masses --      1.3558                 1.3163                 1.3605
 Frc consts  --      1.5493                 1.5183                 1.6031
 IR Inten    --     63.8432                23.0890                 5.3844

                     52                     53                     54
                      A                      A                      A
 Frequencies --   1426.7222              1430.5148              1458.3644
 Red. masses --      1.2624                 1.2833                 1.4419
 Frc consts  --      1.5140                 1.5473                 1.8069
 IR Inten    --    137.9776               118.5915                48.7699

                     55                     56                     57
                      A                      A                      A
 Frequencies --   1468.1025              1493.0620              1522.7897
 Red. masses --      1.6844                 1.6418                 1.1007
 Frc consts  --      2.1389                 2.1564                 1.5039
 IR Inten    --     29.5054                13.3079                 1.0963

                     58                     59                     60
                      A                      A                      A
 Frequencies --   1540.3448              2994.0355              3010.8410
 Red. masses --      1.0849                 1.0824                 1.0834
 Frc consts  --      1.5167                 5.7169                 5.7867
 IR Inten    --      5.3380                64.7594                59.3308

                     61                     62                     63
                      A                      A                      A
 Frequencies --   3021.0555              3035.7312              3055.1882
 Red. masses --      1.0829                 1.0640                 1.0621
 Frc consts  --      5.8234                 5.7774                 5.8408
 IR Inten    --    115.1666                83.3200                76.7716

                     64                     65                     66
                      A                      A                      A
 Frequencies --   3101.4344              3107.6506              3117.1911
 Red. masses --      1.0993                 1.0865                 1.1028
 Frc consts  --      6.2299                 6.1820                 6.3135
 IR Inten    --     54.7216                61.7477                79.4684

                     67                     68                     69
                      A                      A                      A
 Frequencies --   3569.9337              3600.4610              3656.5609
 Red. masses --      1.0665                 1.0662                 1.0654
 Frc consts  --      8.0081                 8.1433                 8.3924
 IR Inten    --    418.1429               395.3765                95.6870

                     70                     71                     72
                      A                      A                      A
 Frequencies --   3678.5946              3705.2074              3754.3625
 Red. masses --      1.0652                 1.0653                 1.0670
 Frc consts  --      8.4927                 8.6172                 8.8610
 IR Inten    --    101.8832                75.5902               110.9545

 - Thermochemistry -
 -------------------
 Temperature   298.150 Kelvin.  Pressure   1.00000 Atm.
 Atom     1 has atomic number  8 and mass  15.99491

 Molecular mass:   182.07904 amu.
 Principal axes and moments of inertia in atomic units:
                           1         2         3
     Eigenvalues --   743.796764502.689214729.26789
           X            0.99998  -0.00687   0.00047
           Y            0.00687   0.99998   0.00054
           Z           -0.00047  -0.00054   1.00000
 This molecule is an asymmetric top.
 Rotational symmetry number  1.
 Warning -- assumption of classical behavior for rotation
           may cause significant error
 Rotational temperatures (Kelvin)      0.11645     0.01924     0.01831
 Rotational constants (GHZ):           2.42639     0.40081     0.38161
    1 imaginary frequencies ignored.
 Zero-point vibrational energy     571559.4 (Joules/Mol)
                                  136.60597 (Kcal/Mol)
 Warning -- explicit consideration of  21 degrees of freedom as
           vibrations may cause significant error
 Vibrational temperatures:     92.70   122.98   136.95   159.77   181.80
          (Kelvin)            257.42   329.23   344.91   370.26   392.39
                              405.27   451.78   457.95   494.34   544.63
                              564.65   595.41   713.16   738.85   765.98
                              882.95   948.12  1094.13  1134.98  1230.42
                             1244.19  1286.50  1355.71  1437.49  1493.34
                             1524.99  1550.73  1557.77  1566.91  1598.66
                             1617.03  1667.54  1726.86  1743.69  1781.29
                             1823.44  1839.49  1847.43  1868.10  1904.17
                             1961.91  1977.92  2003.71  2013.09  2034.66
                             2052.73  2058.19  2098.26  2112.27  2148.18
                             2190.95  2216.21  4307.75  4331.93  4346.63
                             4367.74  4395.73  4462.27  4471.22  4484.94
                             5136.34  5180.26  5260.98  5292.68  5330.97
                             5401.69

 Zero-point correction=                           0.217695 (Hartree/Particle)
 Thermal correction to Energy=                    0.231091
 Thermal correction to Enthalpy=                  0.232035
 Thermal correction to Gibbs Free Energy=         0.178389
 Sum of electronic and zero-point Energies=           -688.163310
 Sum of electronic and thermal Energies=              -688.149914
 Sum of electronic and thermal Enthalpies=            -688.148970
 Sum of electronic and thermal Free Energies=         -688.202616

                     E (Thermal)             CV                S
                      KCal/Mol        Cal/Mol-Kelvin    Cal/Mol-Kelvin
 Total                  145.012             49.833            112.908
 Electronic               0.000              0.000              0.000
 Translational            0.889              2.981             41.504
 Rotational               0.889              2.981             31.138
 Vibrational            143.234             43.872             40.265
 Vibration     1          0.597              1.971              4.317
 Vibration     2          0.601              1.959              3.761
 Vibration     3          0.603              1.953              3.551
 Vibration     4          0.607              1.940              3.251
 Vibration     5          0.611              1.927              3.001
 Vibration     6          0.629              1.868              2.340
 Vibration     7          0.651              1.797              1.888
 Vibration     8          0.657              1.780              1.805
 Vibration     9          0.667              1.750              1.680
 Vibration    10          0.676              1.724              1.579
 Vibration    11          0.681              1.708              1.523
 Vibration    12          0.702              1.647              1.341
 Vibration    13          0.705              1.639              1.319
 Vibration    14          0.722              1.588              1.195
 Vibration    15          0.749              1.516              1.045
 Vibration    16          0.760              1.486              0.991
 Vibration    17          0.777              1.440              0.913
 Vibration    18          0.851              1.260              0.669
 Vibration    19          0.869              1.220              0.625
 Vibration    20          0.887              1.178              0.582
 Vibration    21          0.973              1.003              0.427

                           ! Non-Optimized Parameters !
 Normal termination of Gaussian 16 at Tue Mar  1 16:03:16 2022.

 ------------------------------------------
 #p b3lyp/6-31G(d) geom=allcheck guess=read
 ------------------------------------------

 Structure from the checkpoint file:  "322.n.pdb.xyz.mst.wat.chk"
 -------------
 322.n.pdb.xyz
 -------------
 Charge =  0 Multiplicity = 1

 SCF Done:  E(RB3LYP) =  -688.347537469     A.U. after   10 cycles

 1\1\GINC-PIRINEUS2\SP\RB3LYP\6-31G(d)\C6H14O6\UBATOR01\01-Mar-2022\0\\
 #p b3lyp/6-31G(d) geom=allcheck guess=read\\322.n.pdb.xyz\\0,1\O,0,3.6
 741855253,1.0476029563,1.7460539286\C,0,2.91189933,0.951080252,0.54405
 33346\C,0,1.4962717887,0.577959186,0.9620872957\O,0,1.5332910902,-0.63
 58928092,1.7207489998\C,0,0.553373951,0.3706355943,-0.2270369126\O,0,1
 .0798079948,-0.5811994826,-1.164226696\C,0,-0.8670832344,-0.047441709,
 0.2114093508\O,0,-0.8587258704,-1.3777114301,0.7231230342\C,0,-1.86372
 04076,0.0213118395,-0.950537596\O,0,-1.5108031431,-0.8361727154,-2.035

 Normal termination of Gaussian 16 at Tue Mar  1 16:04:20 2022.
 Gaussian 16:  ES64L-G16RevA.03 25-Dec-2016

 ----------------------------------------------------------------------
 #p b3lyp/6-31G(d) scrf=(iefpcm,read,solvent=water) geom=allcheck guess
 =read
 ----------------------------------------------------------------------

 Structure from the checkpoint file:  "322.n.pdb.xyz.mst.wat.chk"
 -------------
 322.n.pdb.xyz
 -------------
 Charge =  0 Multiplicity = 1

                         Standard orientation:
 ---------------------------------------------------------------------
 Center     Atomic      Atomic             Coordinates (Angstroms)
 Number     Number       Type             X           Y           Z
 ---------------------------------------------------------------------
      1          8           0        4.282419    0.114464   -0.494992
      2          6           0        3.116743   -0.704814   -0.422983
      3          6           0        1.924573    0.241937   -0.442162
      4          8           0        2.043767    1.171970    0.640061
      5          6           0        0.580930   -0.480737   -0.306444
      6          8           0        0.546232   -1.326778    0.853064
      7          6           0       -0.615383    0.495551   -0.285982
      8          8           0       -0.635300    1.232895    0.933635
      9          6           0       -1.951658   -0.240011   -0.432443
     10          8           0       -2.184466   -1.180598    0.615050
     11          6           0       -3.142191    0.710858   -0.409700
     12          8           0       -4.367869   -0.003891   -0.512972
     13          1           0        5.025579   -0.388974   -0.124794
     14          1           0        3.063186   -1.399207   -1.272490
     15          1           0        3.096609   -1.287787    0.503125
     16          1           0        1.921815    0.783256   -1.399722
     17          1           0        2.970691    1.480244    0.638571
     18          1           0        0.473274   -1.150465   -1.164034
     19          1           0        0.539213   -0.730504    1.625904
     20          1           0       -0.515528    1.169254   -1.150642
     21          1           0        0.248244    1.646153    1.012688
     22          1           0       -1.934989   -0.756214   -1.405821
     23          1           0       -1.316549   -1.577479    0.833449
     24          1           0       -3.099766    1.301505    0.512864
     25          1           0       -3.098488    1.396008   -1.260937
     26          1           0       -4.329651   -0.686995    0.179339
 ---------------------------------------------------------------------

 SCF Done:  E(RB3LYP) =  -688.379711784     A.U. after   10 cycles

 The electronic state is 1-A.
 Alpha  occ. eigenvalues --  -19.16378 -19.15620 -19.14937 -19.14235 -19.13795
 Alpha  occ. eigenvalues --  -19.13538 -10.24448 -10.24026 -10.23873 -10.23090
 Alpha  occ. eigenvalues --  -10.22945 -10.22140  -1.05236  -1.03179  -1.01990
 Alpha  occ. eigenvalues --   -1.01102  -1.00579  -0.99422  -0.78354  -0.75005
 Alpha  occ. eigenvalues --   -0.70117  -0.64216  -0.59788  -0.58935  -0.53750
 Alpha  occ. eigenvalues --   -0.53409  -0.50920  -0.50789  -0.48953  -0.47414
 Alpha  occ. eigenvalues --   -0.46431  -0.44756  -0.43370  -0.42592  -0.40966
 Alpha  occ. eigenvalues --   -0.39830  -0.39617  -0.38661  -0.35475  -0.35044
 Alpha  occ. eigenvalues --   -0.34245  -0.33724  -0.32919  -0.28886  -0.28331
 Alpha  occ. eigenvalues --   -0.27876  -0.27416  -0.26310  -0.25349
 Alpha virt. eigenvalues --    0.06567   0.08439   0.10094   0.11139   0.12758
 Alpha virt. eigenvalues --    0.13082   0.13510   0.14864   0.16123   0.17014
 Alpha virt. eigenvalues --    0.17052   0.17813   0.18961   0.19536   0.20465

 Mulliken charges:
               1
     1  O   -0.674745
     2  C   -0.043201
     3  C    0.124584
     4  O   -0.691126
     5  C    0.071601
     6  O   -0.664715
     7  C    0.087417
     8  O   -0.686964
     9  C    0.127264
    10  O   -0.713530
    11  C   -0.038570
    12  O   -0.680577
    13  H    0.451270
    14  H    0.138313
    15  H    0.149506
    16  H    0.144197
    17  H    0.444052
    18  H    0.168365
    19  H    0.439535
    20  H    0.137920
    21  H    0.440319
    22  H    0.125439
    23  H    0.430183
    24  H    0.137749
    25  H    0.144574
    26  H    0.431140
 Sum of Mulliken charges =  -0.00000

 Dipole moment (field-independent basis, Debye):
    X=              8.2944    Y=             -0.5391    Z=             -0.4427  Tot=              8.3237
 Quadrupole moment (field-independent basis, Debye-Ang):
   XX=            -74.9620   YY=            -71.7973   ZZ=            -70.1207
   XY=             -2.8283   XZ=              1.6756   YZ=             -0.0050

 1\1\GINC-PIRINEUS2\SP\RB3LYP\6-31G(d)\C6H14O6\UBATOR01\01-Mar-2022\0\\
 #p b3lyp/6-31G(d) scrf=(iefpcm,read,solvent=water) geom=allcheck guess
 =read\\322.n.pdb.xyz\\0,1\O,0,3.6741855253,1.0476029563,1.7460539286\C
 ,0,2.91189933,0.951080252,0.5440533346\C,0,1.4962717887,0.577959186,0.
 9620872957\O,0,1.5332910902,-0.6358928092,1.7207489998\C,0,0.553373951
 ,0.3706355943,-0.2270369126\O,0,1.0798079948,-0.5811994826,-1.16422669
 6\C,0,-0.8670832344,-0.047441709,0.2114093508\O,0,-0.8587258704,-1.377
 7114301,0.7231230342\C,0,-1.8637204076,0.0213118395,-0.950537596\O,0,-

 Normal termination of Gaussian 16 at Tue Mar  1 16:05:34 2022.
