 Gaussian 16, Revision A.03,

 ----------------------------------------------------------------------
 #p b3lyp/6-31G(d) opt=(MaxStep=10,MaxCycles=1000) freq scf=(MaxCycle=2
 000,NoVarAcc,NoIncFock) scrf=(iefpcm,read,solvent=water)
 ----------------------------------------------------------------------

 -------------
 323.n.pdb.xyz
 -------------
 Symbolic Z-matrix:
 Charge =  0 Multiplicity = 1

 SCF Done:  E(RB3LYP) =  -1670.55877954     A.U. after   13 cycles
 SCF Done:  E(RB3LYP) =  -1670.56220158     A.U. after   10 cycles
 SCF Done:  E(RB3LYP) =  -1670.56188235     A.U. after   11 cycles
 SCF Done:  E(RB3LYP) =  -1670.56361664     A.U. after   10 cycles
 SCF Done:  E(RB3LYP) =  -1670.56338870     A.U. after   11 cycles
 SCF Done:  E(RB3LYP) =  -1670.56396667     A.U. after   10 cycles
 SCF Done:  E(RB3LYP) =  -1670.56406742     A.U. after   10 cycles
 SCF Done:  E(RB3LYP) =  -1670.56422176     A.U. after   11 cycles
 SCF Done:  E(RB3LYP) =  -1670.56424613     A.U. after   10 cycles
 SCF Done:  E(RB3LYP) =  -1670.56427837     A.U. after    9 cycles
 SCF Done:  E(RB3LYP) =  -1670.56432120     A.U. after    9 cycles
 SCF Done:  E(RB3LYP) =  -1670.56432104     A.U. after    7 cycles
 SCF Done:  E(RB3LYP) =  -1670.56432368     A.U. after    9 cycles
 SCF Done:  E(RB3LYP) =  -1670.56432113     A.U. after    9 cycles
 SCF Done:  E(RB3LYP) =  -1670.56432142     A.U. after    6 cycles
 SCF Done:  E(RB3LYP) =  -1670.56432365     A.U. after    8 cycles
 SCF Done:  E(RB3LYP) =  -1670.56432165     A.U. after    9 cycles
 Optimization completed.
    -- Stationary point found.
 Normal termination of Gaussian 16 at Tue Mar  1 20:02:19 2022.

 --------------------------------------------------------------------
 #P Geom=AllCheck Guess=TCheck SCRF=Check GenChk RB3LYP/6-31G(d) Freq
 --------------------------------------------------------------------

 Structure from the checkpoint file:  "323.n.pdb.xyz.mst.wat.chk"
 -------------
 323.n.pdb.xyz
 -------------
 Charge =  0 Multiplicity = 1

 SCF Done:  E(RB3LYP) =  -1670.56432165     A.U. after    1 cycles

  Exact polarizability: 306.252  -9.483 247.232  28.563  23.272 169.969
 Approx polarizability: 311.796 -12.700 274.398  35.713  29.975 195.913

                      1                      2                      3
                      A                      A                      A
 Frequencies --     15.2855                22.1364                31.8008
 Red. masses --      7.3877                 9.4951                11.4449
 Frc consts  --      0.0010                 0.0027                 0.0068
 IR Inten    --      0.1908                 0.0968                 2.3583

                      4                      5                      6
                      A                      A                      A
 Frequencies --     35.1932                47.9867                52.2580
 Red. masses --     11.5589                 5.9497                 6.5764
 Frc consts  --      0.0084                 0.0081                 0.0106
 IR Inten    --      1.7619                 1.0130                 1.7349

                      7                      8                      9
                      A                      A                      A
 Frequencies --     58.3587                90.8681                97.3997
 Red. masses --      3.8699                 1.8101                 3.0278
 Frc consts  --      0.0078                 0.0088                 0.0169
 IR Inten    --      0.8742                 0.6138                 2.3086

                     10                     11                     12
                      A                      A                      A
 Frequencies --    110.1147               139.4463               140.7212
 Red. masses --      2.9398                 3.4995                 2.8276
 Frc consts  --      0.0210                 0.0401                 0.0330
 IR Inten    --      1.3802                 0.7307                 4.1658

                     13                     14                     15
                      A                      A                      A
 Frequencies --    184.4004               217.8871               224.5007
 Red. masses --      6.4747                 4.5211                 5.1052
 Frc consts  --      0.1297                 0.1265                 0.1516
 IR Inten    --      0.9862                 2.1279                 5.1468

                     16                     17                     18
                      A                      A                      A
 Frequencies --    241.1795               252.0705               264.8784
 Red. masses --      5.6852                 2.9677                 5.4647
 Frc consts  --      0.1948                 0.1111                 0.2259
 IR Inten    --     11.3071                12.1316                 7.3567

                     19                     20                     21
                      A                      A                      A
 Frequencies --    321.0194               367.7133               387.6757
 Red. masses --      3.6437                 3.3534                 4.3602
 Frc consts  --      0.2212                 0.2671                 0.3861
 IR Inten    --      3.7611                 0.4802                16.1409

                     22                     23                     24
                      A                      A                      A
 Frequencies --    405.9372               430.9492               487.5632
 Red. masses --      3.5464                 3.3062                 3.8246
 Frc consts  --      0.3443                 0.3618                 0.5357
 IR Inten    --      5.7385                 2.3536                13.8655

                     25                     26                     27
                      A                      A                      A
 Frequencies --    527.2136               533.8569               549.1246
 Red. masses --      2.7908                 1.6133                 4.7541
 Frc consts  --      0.4570                 0.2709                 0.8446
 IR Inten    --     11.9681                33.7779                41.6552

                     28                     29                     30
                      A                      A                      A
 Frequencies --    575.9478               636.4072               654.9666
 Red. masses --      2.8703                 4.3974                 6.6341
 Frc consts  --      0.5610                 1.0493                 1.6768
 IR Inten    --     16.8958                43.2058                 0.7442

                     31                     32                     33
                      A                      A                      A
 Frequencies --    662.4110               696.4470               727.9415
 Red. masses --      1.3555                 5.9645                 3.8742
 Frc consts  --      0.3504                 1.7045                 1.2096
 IR Inten    --    156.6576                35.0189                58.3154

                     34                     35                     36
                      A                      A                      A
 Frequencies --    733.0967               750.5604               751.9310
 Red. masses --      4.9418                 1.3196                 2.7498
 Frc consts  --      1.5648                 0.4380                 0.9160
 IR Inten    --    135.5517                14.8833                37.5395

                     37                     38                     39
                      A                      A                      A
 Frequencies --    787.3126               793.0966               823.2059
 Red. masses --      1.1387                 1.2526                 1.3591
 Frc consts  --      0.4159                 0.4642                 0.5427
 IR Inten    --      2.4571                 3.5522                 7.4730

                     40                     41                     42
                      A                      A                      A
 Frequencies --    824.6217               842.1550               862.1668
 Red. masses --      1.9155                 3.1782                 1.5276
 Frc consts  --      0.7674                 1.3281                 0.6690
 IR Inten    --     57.0843                15.1452                 6.9843

                     43                     44                     45
                      A                      A                      A
 Frequencies --    906.0748               952.7238               958.0508
 Red. masses --      3.5545                 1.3133                 1.3235
 Frc consts  --      1.7193                 0.7023                 0.7157
 IR Inten    --      8.0291                 0.6414                 0.8646

                     46                     47                     48
                      A                      A                      A
 Frequencies --    990.3062              1027.2190              1042.8571
 Red. masses --      3.0164                 2.9026                 3.1348
 Frc consts  --      1.7429                 1.8046                 2.0087
 IR Inten    --     34.4951                 0.0302                 5.1990

                     49                     50                     51
                      A                      A                      A
 Frequencies --   1044.2471              1046.7564              1048.5196
 Red. masses --      3.1762                 3.1010                 2.0747
 Frc consts  --      2.0406                 2.0019                 1.3439
 IR Inten    --     36.2895                 2.7037                 5.4749

                     52                     53                     54
                      A                      A                      A
 Frequencies --   1065.7763              1077.9966              1093.7932
 Red. masses --      1.7518                 3.4218                 1.4865
 Frc consts  --      1.1724                 2.3428                 1.0478
 IR Inten    --      7.1290                30.9627                 1.1349

                     55                     56                     57
                      A                      A                      A
 Frequencies --   1151.7396              1169.4879              1171.1292
 Red. masses --      1.5532                 1.4724                 2.1181
 Frc consts  --      1.2139                 1.1865                 1.7116
 IR Inten    --      1.9349                93.7957               354.6387

                     58                     59                     60
                      A                      A                      A
 Frequencies --   1179.9058              1217.9183              1224.6439
 Red. masses --      1.1950                 1.6641                 1.2551
 Frc consts  --      0.9802                 1.4543                 1.1090
 IR Inten    --     23.5953               145.1083                 9.3645

                     61                     62                     63
                      A                      A                      A
 Frequencies --   1251.3789              1262.0838              1280.7102
 Red. masses --      1.8108                 2.0405                 1.4107
 Frc consts  --      1.6707                 1.9150                 1.3632
 IR Inten    --      8.0275                68.3110                35.6381

                     64                     65                     66
                      A                      A                      A
 Frequencies --   1292.9422              1301.4896              1308.8404
 Red. masses --      1.3493                 1.1784                 1.2397
 Frc consts  --      1.3289                 1.1761                 1.2513
 IR Inten    --      1.9943                61.3442               109.2342

                     67                     68                     69
                      A                      A                      A
 Frequencies --   1320.0451              1329.7292              1332.3464
 Red. masses --      1.2752                 1.3295                 1.1124
 Frc consts  --      1.3092                 1.3850                 1.1635
 IR Inten    --     41.8794                11.4598                 2.5334

                     70                     71                     72
                      A                      A                      A
 Frequencies --   1343.3374              1364.8079              1368.2073
 Red. masses --      1.5039                 2.3023                 1.4813
 Frc consts  --      1.5990                 2.5267                 1.6338
 IR Inten    --      2.1620                 1.3256                 7.7473

                     73                     74                     75
                      A                      A                      A
 Frequencies --   1390.5060              1397.9001              1406.7492
 Red. masses --      1.6876                 1.3326                 1.4751
 Frc consts  --      1.9224                 1.5343                 1.7199
 IR Inten    --     52.6859                 7.9645               112.1985

                     76                     77                     78
                      A                      A                      A
 Frequencies --   1432.5370              1436.0870              1473.0463
 Red. masses --      1.7271                 2.1258                 2.6990
 Frc consts  --      2.0883                 2.5831                 3.4505
 IR Inten    --    110.8666                86.6113                 8.7989

                     79                     80                     81
                      A                      A                      A
 Frequencies --   1479.7737              1494.1949              1509.0757
 Red. masses --      1.0882                 1.0924                 1.1041
 Frc consts  --      1.4039                 1.4369                 1.4814
 IR Inten    --     24.8620                 1.4800                17.2802

                     82                     83                     84
                      A                      A                      A
 Frequencies --   1516.4031              1522.4993              1522.8376
 Red. masses --      1.1018                 1.0977                 1.0982
 Frc consts  --      1.4927                 1.4992                 1.5005
 IR Inten    --     12.7201                32.0585                 6.3573

                     85                     86                     87
                      A                      A                      A
 Frequencies --   1539.9011              1564.8972              1616.4370
 Red. masses --      1.0945                 2.5046                 5.9865
 Frc consts  --      1.5292                 3.6138                 9.2159
 IR Inten    --     15.0278               350.1513                15.2412

                     88                     89                     90
                      A                      A                      A
 Frequencies --   1671.2116              1798.8949              3044.3172
 Red. masses --      5.8406                 9.8502                 1.0591
 Frc consts  --      9.6111                18.7806                 5.7835
 IR Inten    --    176.4481               469.9350                61.0907

                     91                     92                     93
                      A                      A                      A
 Frequencies --   3063.0974              3069.9559              3079.4478
 Red. masses --      1.0611                 1.0600                 1.1024
 Frc consts  --      5.8655                 5.8860                 6.1593
 IR Inten    --      6.2402                73.7255                19.6012

                     94                     95                     96
                      A                      A                      A
 Frequencies --   3090.9130              3094.3781              3096.7570
 Red. masses --      1.0595                 1.1015                 1.0613
 Frc consts  --      5.9636                 6.2139                 5.9965
 IR Inten    --     58.0713                 2.2220                17.1812

                     97                     98                     99
                      A                      A                      A
 Frequencies --   3115.2116              3140.1394              3140.5703
 Red. masses --      1.1051                 1.0906                 1.0719
 Frc consts  --      6.3187                 6.3359                 6.2293
 IR Inten    --     96.3546                 7.6611                24.2426

                    100                    101                    102
                      A                      A                      A
 Frequencies --   3144.8191              3145.0681              3188.0972
 Red. masses --      1.0615                 1.1009                 1.0893
 Frc consts  --      6.1851                 6.4159                 6.5230
 IR Inten    --     20.9957                27.7714                36.7268

                    103                    104                    105
                      A                      A                      A
 Frequencies --   3189.6491              3206.9712              3211.7296
 Red. masses --      1.0890                 1.1123                 1.1120
 Frc consts  --      6.5280                 6.7400                 6.7581
 IR Inten    --     37.9178                12.4907                11.5415

                    106                    107                    108
                      A                      A                      A
 Frequencies --   3235.6853              3236.8609              3651.9967
 Red. masses --      1.0904                 1.0906                 1.0644
 Frc consts  --      6.7262                 6.7323                 8.3639
 IR Inten    --     42.1281                15.0453               149.9562

 - Thermochemistry -
 -------------------
 Temperature   298.150 Kelvin.  Pressure   1.00000 Atm.
 Atom     1 has atomic number  8 and mass  15.99491

 Molecular mass:   303.07928 amu.
 Principal axes and moments of inertia in atomic units:
                           1         2         3
     Eigenvalues --  4866.88159********************
           X            0.99999  -0.00255   0.00248
           Y            0.00255   0.99999  -0.00275
           Z           -0.00247   0.00276   0.99999
 This molecule is an asymmetric top.
 Rotational symmetry number  1.
 Warning -- assumption of classical behavior for rotation
           may cause significant error
 Rotational temperatures (Kelvin)      0.01780     0.00472     0.00395
 Rotational constants (GHZ):           0.37082     0.09831     0.08224
 Zero-point vibrational energy     827836.7 (Joules/Mol)
                                  197.85772 (Kcal/Mol)
 Warning -- explicit consideration of  28 degrees of freedom as
           vibrations may cause significant error
 Vibrational temperatures:     21.99    31.85    45.75    50.64    69.04
          (Kelvin)             75.19    83.97   130.74   140.14   158.43
                              200.63   202.47   265.31   313.49   323.01
                              347.00   362.67   381.10   461.88   529.06
                              557.78   584.05   620.04   701.49   758.54
                              768.10   790.07   828.66   915.65   942.35
                              953.06  1002.03  1047.35  1054.76  1079.89
                             1081.86  1132.77  1141.09  1184.41  1186.45
                             1211.67  1240.47  1303.64  1370.76  1378.42
                             1424.83  1477.94  1500.44  1502.44  1506.05
                             1508.59  1533.41  1551.00  1573.72  1657.10
                             1682.63  1684.99  1697.62  1752.31  1761.99
                             1800.46  1815.86  1842.66  1860.26  1872.55
                             1883.13  1899.25  1913.18  1916.95  1932.76
                             1963.65  1968.55  2000.63  2011.27  2024.00
                             2061.10  2066.21  2119.39  2129.06  2149.81
                             2171.22  2181.77  2190.54  2191.02  2215.57
                             2251.54  2325.69  2404.50  2588.21  4380.09
                             4407.11  4416.98  4430.64  4447.13  4452.12
                             4455.54  4482.09  4517.96  4518.58  4524.69
                             4525.05  4586.96  4589.19  4614.12  4620.96
                             4655.43  4657.12  5254.41

 Zero-point correction=                           0.315306 (Hartree/Particle)
 Thermal correction to Energy=                    0.335511
 Thermal correction to Enthalpy=                  0.336455
 Thermal correction to Gibbs Free Energy=         0.261000
 Sum of electronic and zero-point Energies=          -1670.249015
 Sum of electronic and thermal Energies=             -1670.228811
 Sum of electronic and thermal Enthalpies=           -1670.227866
 Sum of electronic and thermal Free Energies=        -1670.303321

                     E (Thermal)             CV                S
                      KCal/Mol        Cal/Mol-Kelvin    Cal/Mol-Kelvin
 Total                  210.536             72.545            158.808
 Electronic               0.000              0.000              0.000
 Translational            0.889              2.981             43.023
 Rotational               0.889              2.981             35.926
 Vibrational            208.759             66.584             79.858
 Vibration     1          0.593              1.986              7.168
 Vibration     2          0.593              1.985              6.433
 Vibration     3          0.594              1.983              5.714
 Vibration     4          0.594              1.982              5.513
 Vibration     5          0.595              1.978              4.899
 Vibration     6          0.596              1.977              4.730
 Vibration     7          0.596              1.974              4.512
 Vibration     8          0.602              1.956              3.641
 Vibration     9          0.603              1.951              3.506
 Vibration    10          0.606              1.941              3.267
 Vibration    11          0.615              1.914              2.811
 Vibration    12          0.615              1.913              2.794
 Vibration    13          0.631              1.861              2.283
 Vibration    14          0.646              1.814              1.977
 Vibration    15          0.649              1.804              1.922
 Vibration    16          0.658              1.777              1.794
 Vibration    17          0.664              1.759              1.716
 Vibration    18          0.671              1.737              1.629
 Vibration    19          0.706              1.633              1.305
 Vibration    20          0.740              1.539              1.089
 Vibration    21          0.756              1.497              1.009
 Vibration    22          0.771              1.457              0.941
 Vibration    23          0.792              1.403              0.856
 Vibration    24          0.844              1.278              0.690
 Vibration    25          0.882              1.190              0.593
 Vibration    26          0.889              1.175              0.579
 Vibration    27          0.904              1.142              0.546
 Vibration    28          0.932              1.083              0.493

 Optimization completed.
    -- Stationary point found.
 Normal termination of Gaussian 16 at Tue Mar  1 20:40:06 2022.

 ------------------------------------------
 #p b3lyp/6-31G(d) geom=allcheck guess=read
 ------------------------------------------

 Structure from the checkpoint file:  "323.n.pdb.xyz.mst.wat.chk"
 -------------
 323.n.pdb.xyz
 -------------
 Charge =  0 Multiplicity = 1

 SCF Done:  E(RB3LYP) =  -1670.54596144     A.U. after   11 cycles
 Normal termination of Gaussian 16 at Tue Mar  1 20:42:40 2022.
 Gaussian 16:  ES64L-G16RevA.03 25-Dec-2016

 ----------------------------------------------------------------------
 #p b3lyp/6-31G(d) scrf=(iefpcm,read,solvent=water) geom=allcheck guess
 =read
 ----------------------------------------------------------------------

 Structure from the checkpoint file:  "323.n.pdb.xyz.mst.wat.chk"
 -------------
 323.n.pdb.xyz
 -------------
 Charge =  0 Multiplicity = 1

                         Standard orientation:
 ---------------------------------------------------------------------
 Center     Atomic      Atomic             Coordinates (Angstroms)
 Number     Number       Type             X           Y           Z
 ---------------------------------------------------------------------
      1          8           0        7.704471    0.036441   -0.387599
      2          6           0        6.403983    0.134689   -0.724020
      3          8           0        6.033702    0.523707   -1.816232
      4          6           0        5.501490   -0.295224    0.408517
      5          6           0        4.015506   -0.143188    0.092331
      6          6           0        3.121473   -0.591176    1.262072
      7          6           0        1.646386   -0.434638    0.970332
      8          6           0        0.971742    0.763719    1.231997
      9          6           0       -0.377044    0.935440    0.929846
     10          6           0       -1.127776   -0.108220    0.345968
     11          6           0       -0.453154   -1.320867    0.088915
     12          6           0        0.898026   -1.467683    0.393573
     13          7           0       -2.480890    0.049329    0.041543
     14          6           0       -3.224220   -0.988549   -0.653864
     15          6           0       -3.747482   -2.044483    0.321346
     16         17           0       -4.669979   -3.333847   -0.579748
     17          6           0       -3.197169    1.267502    0.381751
     18          6           0       -3.002697    2.344184   -0.687551
     19         17           0       -3.900817    3.862603   -0.224272
     20          1           0        8.237737    0.324630   -1.156702
     21          1           0        5.748033   -1.336229    0.650427
     22          1           0        5.778950    0.286269    1.295618
     23          1           0        3.769041   -0.727813   -0.800297
     24          1           0        3.798577    0.902278   -0.152135
     25          1           0        3.384592   -0.008752    2.152998
     26          1           0        3.341257   -1.639607    1.496870
     27          1           0        1.511712    1.592206    1.682725
     28          1           0       -0.841580    1.889277    1.146054
     29          1           0       -0.984924   -2.163186   -0.335328
     30          1           0        1.376788   -2.420502    0.183632
     31          1           0       -4.066604   -0.525685   -1.171118
     32          1           0       -2.600020   -1.460635   -1.416764
     33          1           0       -2.937239   -2.551900    0.841583
     34          1           0       -4.438965   -1.618161    1.046636
     35          1           0       -2.871298    1.643556    1.354420
     36          1           0       -4.259752    1.033048    0.469864
     37          1           0       -3.399683    2.031771   -1.652184
     38          1           0       -1.956614    2.625078   -0.795377
 ---------------------------------------------------------------------

 SCF Done:  E(RB3LYP) =  -1670.56290558     A.U. after   11 cycles

 The electronic state is 1-A.
 Alpha  occ. eigenvalues -- -101.53971-101.53970 -19.19072 -19.14048 -14.36427
 Alpha  occ. eigenvalues --  -10.32196 -10.24659 -10.24651 -10.23476 -10.23307
 Alpha  occ. eigenvalues --  -10.23299 -10.19578 -10.18764 -10.18758 -10.18588
 Alpha  occ. eigenvalues --  -10.18571 -10.18549 -10.18444 -10.18419  -9.45619
 Alpha  occ. eigenvalues --   -9.45618  -7.21982  -7.21981  -7.21053  -7.21053
 Alpha  occ. eigenvalues --   -7.21039  -7.21039  -1.10121  -1.01207  -0.96148
 Alpha  occ. eigenvalues --   -0.85920  -0.85752  -0.84566  -0.80298  -0.76459
 Alpha  occ. eigenvalues --   -0.76322  -0.73948  -0.72103  -0.68633  -0.64148
 Alpha  occ. eigenvalues --   -0.64022  -0.61088  -0.60570  -0.57569  -0.56690
 Alpha  occ. eigenvalues --   -0.53746  -0.50348  -0.49404  -0.48184  -0.48140
 Alpha  occ. eigenvalues --   -0.47727  -0.47441  -0.45865  -0.45534  -0.44653
 Alpha  occ. eigenvalues --   -0.43092  -0.42342  -0.41597  -0.41532  -0.40899
 Alpha  occ. eigenvalues --   -0.40286  -0.39658  -0.39276  -0.37980  -0.37612
 Alpha  occ. eigenvalues --   -0.37287  -0.36676  -0.35139  -0.34041  -0.33528
 Alpha  occ. eigenvalues --   -0.32804  -0.31770  -0.31064  -0.30691  -0.30315
 Alpha  occ. eigenvalues --   -0.30264  -0.28343  -0.27767  -0.25165  -0.19594
 Alpha virt. eigenvalues --   -0.00520   0.00798   0.01149   0.01399   0.03358
 Alpha virt. eigenvalues --    0.08223   0.09636   0.10381   0.10621   0.10989
 Alpha virt. eigenvalues --    0.12389   0.13332   0.13682   0.14431   0.14651

 Mulliken charges:
               1
     1  O   -0.590076
     2  C    0.600315
     3  O   -0.523482
     4  C   -0.355918
     5  C   -0.248251
     6  C   -0.354409
     7  C    0.157504
     8  C   -0.215288
     9  C   -0.211317
    10  C    0.357758
    11  C   -0.211573
    12  C   -0.216160
    13  N   -0.495632
    14  C   -0.159230
    15  C   -0.363799
    16  Cl  -0.132295
    17  C   -0.160263
    18  C   -0.363392
    19  Cl  -0.132334
    20  H    0.456730
    21  H    0.187660
    22  H    0.185657
    23  H    0.148419
    24  H    0.148324
    25  H    0.148878
    26  H    0.148826
    27  H    0.141740
    28  H    0.147478
    29  H    0.147335
    30  H    0.141721
    31  H    0.186602
    32  H    0.184308
    33  H    0.217601
    34  H    0.218590
    35  H    0.184612
    36  H    0.187716
    37  H    0.217827
    38  H    0.217819
 Sum of Mulliken charges =  -0.00000

 Dipole moment (field-independent basis, Debye):
    X=              2.2529    Y=             -0.7339    Z=              1.9406  Tot=              3.0627
 Quadrupole moment (field-independent basis, Debye-Ang):
   XX=           -117.2161   YY=           -142.0922   ZZ=           -130.2305
   XY=             -2.9774   XZ=              3.7740   YZ=              0.6373

 Normal termination of Gaussian 16 at Tue Mar  1 20:46:02 2022.
