 Gaussian 09, Revision D.01,

 -----------------
 #p b3lyp/6-31G(d)
 -----------------

 ------------------------------------------
 SET_328_BBB212_conf1_geo_135_300.n.pdb.xyz
 ------------------------------------------
 Symbolic Z-matrix:
 Charge =  0 Multiplicity = 1

 SCF Done:  E(RB3LYP) =  -731.666275013     A.U. after   14 cycles
 Normal termination of Gaussian 09 at Fri Nov 13 03:28:25 2020.
 Gaussian 09:  AM64L-G09RevD.01 24-Apr-2013

 ----------------------------------------------------------------------
 #p b3lyp/6-31G(d) scrf=(iefpcm,read,solvent=n-Octanol) geom=allcheck g
 uess=read
 ----------------------------------------------------------------------

 Structure from the checkpoint file:  "SET_328_BBB212_conf1_geo_135_300.n.pdb.xyz.mst.n.o.chk"
 ------------------------------------------
 SET_328_BBB212_conf1_geo_135_300.n.pdb.xyz
 ------------------------------------------
 Charge =  0 Multiplicity = 1

                         Standard orientation:
 ---------------------------------------------------------------------
 Center     Atomic      Atomic             Coordinates (Angstroms)
 Number     Number       Type             X           Y           Z
 ---------------------------------------------------------------------
      1          6           0        0.044051    2.388964    1.248684
      2          1           0        0.940040    3.013365    1.216383
      3          1           0        0.072957    1.806111    2.172799
      4          1           0       -0.830694    3.046420    1.287533
      5          6           0       -0.000539    1.479188    0.005850
      6          6           0       -0.048086    2.383813   -1.239706
      7          1           0       -0.944333    3.009217   -1.210038
      8          1           0       -0.077934    1.793969   -2.157890
      9          1           0        0.826359    3.040260   -1.284088
     10          6           0       -1.255390    0.589885    0.000698
     11          6           0       -2.205481    0.601566    1.028200
     12          6           0       -3.339976   -0.207283    0.985066
     13          6           0       -3.552157   -1.056036   -0.101383
     14          8           0       -4.681415   -1.825756   -0.093848
     15          1           0       -4.706290   -2.370882   -0.896813
     16          6           0       -2.615808   -1.086868   -1.141274
     17          6           0       -1.487868   -0.273559   -1.080163
     18          1           0       -0.768966   -0.310896   -1.891722
     19          1           0       -2.766815   -1.745237   -1.991963
     20          1           0       -4.068463   -0.187538    1.789650
     21          1           0       -2.064449    1.253795    1.880557
     22          6           0        1.255927    0.590256    0.006932
     23          6           0        1.479154   -0.296933    1.071187
     24          1           0        0.752040   -0.356077    1.874148
     25          6           0        2.607918   -1.111149    1.125541
     26          1           0        2.753421   -1.786640    1.963514
     27          6           0        3.553301   -1.058425    0.094752
     28          8           0        4.680315   -1.829951    0.079965
     29          1           0        4.694976   -2.394168    0.869984
     30          6           0        3.351640   -0.186334   -0.975250
     31          1           0        4.087394   -0.150524   -1.771662
     32          6           0        2.217422    0.624728   -1.010282
     33          1           0        2.084909    1.293610   -1.852448
 ---------------------------------------------------------------------

 SCF Done:  E(RB3LYP) =  -731.690198494     A.U. after   10 cycles

 The electronic state is 1-A.
 Alpha  occ. eigenvalues --  -19.17495 -19.17493 -10.24604 -10.24596 -10.20533
 Alpha  occ. eigenvalues --  -10.18722 -10.18712 -10.18667 -10.18660 -10.18638
 Alpha  occ. eigenvalues --  -10.18613 -10.18586 -10.18560 -10.18204 -10.18201
 Alpha  occ. eigenvalues --  -10.17357 -10.17328  -1.05517  -1.05492  -0.86288
 Alpha  occ. eigenvalues --   -0.84391  -0.80449  -0.74627  -0.74453  -0.73100
 Alpha  occ. eigenvalues --   -0.71649  -0.68755  -0.63406  -0.61531  -0.60455
 Alpha  occ. eigenvalues --   -0.59908  -0.55637  -0.54070  -0.54020  -0.49082
 Alpha  occ. eigenvalues --   -0.47807  -0.47191  -0.44521  -0.44435  -0.44413
 Alpha  occ. eigenvalues --   -0.42042  -0.41878  -0.41280  -0.40750  -0.40474
 Alpha  occ. eigenvalues --   -0.40115  -0.38910  -0.38172  -0.37526  -0.37397
 Alpha  occ. eigenvalues --   -0.35155  -0.35023  -0.33606  -0.33321  -0.31831
 Alpha  occ. eigenvalues --   -0.31768  -0.31337  -0.24996  -0.24954  -0.22278
 Alpha  occ. eigenvalues --   -0.20663
 Alpha virt. eigenvalues --   -0.00218  -0.00140   0.01005   0.02415   0.08425
 Alpha virt. eigenvalues --    0.08457   0.09098   0.10794   0.12514   0.12787
 Alpha virt. eigenvalues --    0.14123   0.14527   0.15567   0.15682   0.16170

 Mulliken charges:
               1
     1  C   -0.461915
     2  H    0.150154
     3  H    0.151374
     4  H    0.147783
     5  C   -0.065056
     6  C   -0.462473
     7  H    0.150057
     8  H    0.151800
     9  H    0.147784
    10  C    0.176696
    11  C   -0.211484
    12  C   -0.178108
    13  C    0.345973
    14  O   -0.662624
    15  H    0.431019
    16  C   -0.206001
    17  C   -0.196327
    18  H    0.137674
    19  H    0.137168
    20  H    0.136571
    21  H    0.134854
    22  C    0.176247
    23  C   -0.196322
    24  H    0.137466
    25  C   -0.205770
    26  H    0.137244
    27  C    0.346310
    28  O   -0.662456
    29  H    0.431448
    30  C   -0.178262
    31  H    0.136642
    32  C   -0.212384
    33  H    0.134918
 Sum of Mulliken charges =   0.00000

 Dipole moment (field-independent basis, Debye):
    X=             -0.0135    Y=             -1.2196    Z=             -0.0196  Tot=              1.2198
 Quadrupole moment (field-independent basis, Debye-Ang):
   XX=           -104.6728   YY=            -91.7262   ZZ=            -91.2901
   XY=             -0.1042   XZ=             11.0078   YZ=             -0.0437

 Normal termination of Gaussian 09 at Fri Nov 13 03:30:39 2020.
