 Gaussian 09, Revision D.01,

 -----------------
 #p b3lyp/6-31G(d)
 -----------------

 -----------------------------------------
 SET_328_BBB23_conf1_geo_180_060.n.pdb.xyz
 -----------------------------------------
 Symbolic Z-matrix:
 Charge =  0 Multiplicity = 1

 SCF Done:  E(RB3LYP) =  -237.082778890     A.U. after   12 cycles
 Normal termination of Gaussian 09 at Fri Nov 13 03:26:11 2020.
 Gaussian 09:  AM64L-G09RevD.01 24-Apr-2013

 ----------------------------------------------------------------------
 #p b3lyp/6-31G(d) scrf=(iefpcm,read,solvent=n-Octanol) geom=allcheck g
 uess=read
 ----------------------------------------------------------------------

 Structure from the checkpoint file:  "SET_328_BBB23_conf1_geo_180_060.n.pdb.xyz.mst.n.o.chk"
 -----------------------------------------
 SET_328_BBB23_conf1_geo_180_060.n.pdb.xyz
 -----------------------------------------
 Charge =  0 Multiplicity = 1

                         Standard orientation:
 ---------------------------------------------------------------------
 Center     Atomic      Atomic             Coordinates (Angstroms)
 Number     Number       Type             X           Y           Z
 ---------------------------------------------------------------------
      1          6           0       -2.229230   -0.915066   -0.165103
      2          1           0       -2.187241   -1.168102   -1.229898
      3          1           0       -2.827171   -0.003922   -0.065534
      4          1           0       -2.763871   -1.719271    0.346501
      5          6           0       -0.823169   -0.733282    0.414033
      6          1           0       -0.282408   -1.684299    0.328838
      7          1           0       -0.894853   -0.520171    1.490106
      8          6           0        0.000738    0.384125   -0.257054
      9          6           0       -0.631457    1.764835   -0.027016
     10          1           0       -0.071038    2.546081   -0.550340
     11          1           0       -0.637488    2.017774    1.040782
     12          1           0       -1.665528    1.800294   -0.379902
     13          1           0        0.006775    0.190005   -1.340321
     14          6           0        1.466476    0.387522    0.224720
     15          1           0        1.480487    0.494977    1.317849
     16          1           0        1.958239    1.283706   -0.171700
     17          6           0        2.282800   -0.845771   -0.178366
     18          1           0        1.854998   -1.765278    0.231986
     19          1           0        3.313977   -0.770460    0.182816
     20          1           0        2.318171   -0.955511   -1.268468
 ---------------------------------------------------------------------

 SCF Done:  E(RB3LYP) =  -237.087324200     A.U. after    7 cycles

 The electronic state is 1-A.
 Alpha  occ. eigenvalues --  -10.18024 -10.17379 -10.17346 -10.16926 -10.16877
 Alpha  occ. eigenvalues --  -10.16693  -0.80761  -0.74245  -0.70914  -0.63666
 Alpha  occ. eigenvalues --   -0.60415  -0.54840  -0.45856  -0.44206  -0.43458
 Alpha  occ. eigenvalues --   -0.41188  -0.40361  -0.37843  -0.36291  -0.35878
 Alpha  occ. eigenvalues --   -0.34602  -0.33724  -0.31344  -0.30534  -0.30351
 Alpha virt. eigenvalues --    0.08986   0.11046   0.12232   0.12843   0.15545
 Alpha virt. eigenvalues --    0.15885   0.16826   0.17254   0.18019   0.18483
 Alpha virt. eigenvalues --    0.19102   0.19591   0.22477   0.23835   0.25199

 Mulliken charges:
               1
     1  C   -0.451893
     2  H    0.141916
     3  H    0.146484
     4  H    0.142076
     5  C   -0.250866
     6  H    0.133682
     7  H    0.126183
     8  C   -0.056811
     9  C   -0.454931
    10  H    0.140053
    11  H    0.138213
    12  H    0.144552
    13  H    0.115027
    14  C   -0.247637
    15  H    0.126843
    16  H    0.128374
    17  C   -0.452885
    18  H    0.147588
    19  H    0.142147
    20  H    0.141882
 Sum of Mulliken charges =   0.00000

 Dipole moment (field-independent basis, Debye):
    X=              0.0375    Y=             -0.0255    Z=             -0.0154  Tot=              0.0479
 Quadrupole moment (field-independent basis, Debye-Ang):
   XX=            -41.9265   YY=            -41.7799   ZZ=            -41.1554
   XY=              0.2112   XZ=             -0.1202   YZ=             -0.1499

 Normal termination of Gaussian 09 at Fri Nov 13 03:26:32 2020.
