 Gaussian 09, Revision D.01,

 -----------------
 #p b3lyp/6-31G(d)
 -----------------

 ------------------------------------------
 SET_328_BBB286_conf1_geo_000_090.n.pdb.xyz
 ------------------------------------------
 Symbolic Z-matrix:
 Charge =  0 Multiplicity = 1

 SCF Done:  E(RB3LYP) =  -994.604352845     A.U. after   17 cycles
 Normal termination of Gaussian 09 at Fri Nov 13 03:34:30 2020.
 Gaussian 09:  AM64L-G09RevD.01 24-Apr-2013

 ----------------------------------------------------------------------
 #p b3lyp/6-31G(d) scrf=(iefpcm,read,solvent=n-Octanol) geom=allcheck g
 uess=read
 ----------------------------------------------------------------------

 Structure from the checkpoint file:  "SET_328_BBB286_conf1_geo_000_090.n.pdb.xyz.mst.n.o.chk"
 ------------------------------------------
 SET_328_BBB286_conf1_geo_000_090.n.pdb.xyz
 ------------------------------------------
 Charge =  0 Multiplicity = 1

                         Standard orientation:
 ---------------------------------------------------------------------
 Center     Atomic      Atomic             Coordinates (Angstroms)
 Number     Number       Type             X           Y           Z
 ---------------------------------------------------------------------
      1          6           0        3.364861    3.017688   -0.348458
      2          1           0        3.778673    3.371364    0.599320
      3          1           0        2.445707    3.557262   -0.567004
      4          1           0        4.090319    3.193216   -1.147798
      5          7           0        3.028362    1.610949   -0.263866
      6          6           0        3.870557    0.557934   -0.010980
      7          6           0        3.069437   -0.610065   -0.026933
      8          6           0        3.660845   -1.865873    0.203842
      9          6           0        5.024514   -1.909788    0.441768
     10          6           0        5.809281   -0.731613    0.453361
     11          6           0        5.252704    0.517377    0.229008
     12          1           0        5.858499    1.417123    0.238879
     13          1           0        6.874179   -0.809235    0.643336
     14          1           0        5.508558   -2.863872    0.622809
     15          1           0        3.050243   -2.759916    0.190911
     16          7           0        1.756386    1.199857   -0.437272
     17          6           0        1.753762   -0.123590   -0.300489
     18          6           0        0.505932   -0.912943   -0.435383
     19          8           0        0.508051   -2.144770   -0.321583
     20          7           0       -0.613932   -0.185859   -0.677687
     21          1           0       -0.479808    0.796604   -0.878762
     22          6           0       -1.901197   -0.818763   -0.979323
     23          6           0       -2.873729    0.196655   -1.615449
     24          1           0       -2.318971    0.926237   -2.215365
     25          1           0       -3.495926   -0.360093   -2.323729
     26          1           0       -1.681185   -1.592710   -1.723196
     27          6           0       -2.530260   -1.547638    0.237342
     28          1           0       -1.725716   -1.950815    0.856811
     29          1           0       -3.064932   -2.414470   -0.167706
     30          6           0       -3.547447   -0.743098    1.081627
     31          1           0       -4.111239   -1.475490    1.670566
     32          6           0       -2.963571    0.279494    2.070865
     33          1           0       -2.223130   -0.206611    2.716579
     34          1           0       -3.789783    0.605538    2.712586
     35          6           0       -2.345213    1.501009    1.378957
     36          1           0       -1.357211    1.235414    0.998286
     37          1           0       -2.187331    2.302268    2.108398
     38          6           0       -3.234968    2.018117    0.240017
     39          1           0       -2.683859    2.732748   -0.384315
     40          1           0       -4.080052    2.562175    0.671929
     41          6           0       -3.839064    0.912682   -0.640138
     42          1           0       -4.607712    1.386069   -1.260659
     43          7           0       -4.530402   -0.039512    0.238927
     44          6           0       -5.446052   -0.925059   -0.461536
     45          1           0       -4.969438   -1.605154   -1.185979
     46          1           0       -6.181573   -0.321986   -1.003866
     47          1           0       -5.977965   -1.540711    0.271335
 ---------------------------------------------------------------------

 SCF Done:  E(RB3LYP) =  -994.624240744     A.U. after   11 cycles

 The electronic state is 1-A.
 Alpha  occ. eigenvalues --  -19.11123 -14.42050 -14.37249 -14.35183 -14.31296
 Alpha  occ. eigenvalues --  -10.28667 -10.23204 -10.23142 -10.22411 -10.21973
 Alpha  occ. eigenvalues --  -10.20701 -10.20370 -10.20170 -10.19839 -10.19750
 Alpha  occ. eigenvalues --  -10.19620 -10.19548 -10.19171 -10.18302 -10.17390
 Alpha  occ. eigenvalues --  -10.17264 -10.17087 -10.17019  -1.06200  -1.02626
 Alpha  occ. eigenvalues --   -0.92894  -0.91492  -0.85990  -0.85774  -0.78990
 Alpha  occ. eigenvalues --   -0.77376  -0.76971  -0.76827  -0.75385  -0.71415
 Alpha  occ. eigenvalues --   -0.68647  -0.67484  -0.64949  -0.63178  -0.61134
 Alpha  occ. eigenvalues --   -0.60339  -0.59789  -0.58426  -0.56932  -0.53732
 Alpha  occ. eigenvalues --   -0.51487  -0.50489  -0.49546  -0.48769  -0.47446
 Alpha  occ. eigenvalues --   -0.47114  -0.46085  -0.45144  -0.45015  -0.44431
 Alpha  occ. eigenvalues --   -0.44396  -0.43193  -0.42955  -0.41672  -0.41533
 Alpha  occ. eigenvalues --   -0.41044  -0.40778  -0.40137  -0.39322  -0.38903
 Alpha  occ. eigenvalues --   -0.38458  -0.37169  -0.36169  -0.35615  -0.34938
 Alpha  occ. eigenvalues --   -0.34854  -0.34419  -0.33931  -0.32716  -0.31158
 Alpha  occ. eigenvalues --   -0.30601  -0.30137  -0.29712  -0.28710  -0.25228
 Alpha  occ. eigenvalues --   -0.25182  -0.24460  -0.22194  -0.20076
 Alpha virt. eigenvalues --   -0.04486   0.00299   0.01434   0.06350   0.08870
 Alpha virt. eigenvalues --    0.09536   0.10881   0.11165   0.11381   0.11865
 Alpha virt. eigenvalues --    0.12337   0.13255   0.14267   0.14911   0.15015

 Mulliken charges:
               1
     1  C   -0.328564
     2  H    0.186598
     3  H    0.199231
     4  H    0.186270
     5  N   -0.365073
     6  C    0.373948
     7  C    0.007434
     8  C   -0.199027
     9  C   -0.151047
    10  C   -0.154991
    11  C   -0.165228
    12  H    0.153723
    13  H    0.146252
    14  H    0.142053
    15  H    0.160363
    16  N   -0.387410
    17  C    0.221747
    18  C    0.609720
    19  O   -0.586559
    20  N   -0.635890
    21  H    0.352290
    22  C    0.077009
    23  C   -0.326747
    24  H    0.141099
    25  H    0.154014
    26  H    0.148521
    27  C   -0.289367
    28  H    0.161437
    29  H    0.138170
    30  C    0.020836
    31  H    0.125220
    32  C   -0.251972
    33  H    0.128299
    34  H    0.132234
    35  C   -0.285036
    36  H    0.145337
    37  H    0.131480
    38  C   -0.263175
    39  H    0.124676
    40  H    0.137640
    41  C    0.029473
    42  H    0.127343
    43  N   -0.388558
    44  C   -0.307847
    45  H    0.125809
    46  H    0.148648
    47  H    0.149615
 Sum of Mulliken charges =   0.00000

 Dipole moment (field-independent basis, Debye):
    X=              2.0718    Y=              4.5418    Z=             -0.9928  Tot=              5.0898
 Quadrupole moment (field-independent basis, Debye-Ang):
   XX=           -114.7010   YY=           -130.9969   ZZ=           -136.4767
   XY=             12.7705   XZ=              5.9181   YZ=             -3.2741

 Normal termination of Gaussian 09 at Fri Nov 13 03:40:27 2020.
