 Gaussian 09, Revision D.01,

 -----------------
 #p b3lyp/6-31G(d)
 -----------------

 ------------------------------------------
 SET_328_BBB286_conf1_geo_000_150.n.pdb.xyz
 ------------------------------------------
 Symbolic Z-matrix:
 Charge =  0 Multiplicity = 1

 SCF Done:  E(RB3LYP) =  -994.604309730     A.U. after   16 cycles
 Normal termination of Gaussian 09 at Fri Nov 13 03:33:52 2020.
 Gaussian 09:  AM64L-G09RevD.01 24-Apr-2013

 ----------------------------------------------------------------------
 #p b3lyp/6-31G(d) scrf=(iefpcm,read,solvent=n-Octanol) geom=allcheck g
 uess=read
 ----------------------------------------------------------------------

 Structure from the checkpoint file:  "SET_328_BBB286_conf1_geo_000_150.n.pdb.xyz.mst.n.o.chk"
 ------------------------------------------
 SET_328_BBB286_conf1_geo_000_150.n.pdb.xyz
 ------------------------------------------
 Charge =  0 Multiplicity = 1

                         Standard orientation:
 ---------------------------------------------------------------------
 Center     Atomic      Atomic             Coordinates (Angstroms)
 Number     Number       Type             X           Y           Z
 ---------------------------------------------------------------------
      1          6           0       -3.325401    3.026983   -0.328180
      2          1           0       -4.165177    3.207324   -1.002916
      3          1           0       -2.440834    3.537936   -0.705834
      4          1           0       -3.572189    3.413350    0.665463
      5          7           0       -3.020392    1.611125   -0.275415
      6          6           0       -3.881284    0.570160   -0.023837
      7          6           0       -3.093283   -0.606979   -0.017433
      8          6           0       -3.700569   -1.856245    0.207306
      9          6           0       -5.069394   -1.885432    0.420262
     10          6           0       -5.840224   -0.698312    0.414594
     11          6           0       -5.268632    0.543498    0.194369
     12          1           0       -5.866299    1.446691    0.193271
     13          1           0       -6.909036   -0.764922    0.586668
     14          1           0       -5.566291   -2.832250    0.597242
     15          1           0       -3.098013   -2.755296    0.209375
     16          7           0       -1.749835    1.182050   -0.414751
     17          6           0       -1.767317   -0.140056   -0.271096
     18          6           0       -0.528500   -0.947152   -0.380675
     19          8           0       -0.546358   -2.175802   -0.253751
     20          7           0        0.604186   -0.235473   -0.612566
     21          1           0        0.484954    0.747051   -0.819125
     22          6           0        1.885996   -0.889825   -0.887729
     23          6           0        2.545345   -1.523638    0.367975
     24          1           0        1.762421   -1.858047    1.051222
     25          1           0        3.056287   -2.429492    0.023180
     26          1           0        1.642950   -1.720854   -1.557620
     27          6           0        2.843232    0.069259   -1.625072
     28          1           0        2.271900    0.751452   -2.264833
     29          1           0        3.445927   -0.540613   -2.303933
     30          6           0        3.832325    0.857927   -0.731633
     31          1           0        4.581469    1.287892   -1.406278
     32          6           0        3.244447    2.024627    0.087454
     33          1           0        2.670263    2.688509   -0.568997
     34          1           0        4.098211    2.604437    0.453479
     35          6           0        2.394409    1.585901    1.293867
     36          1           0        1.394247    1.291179    0.972008
     37          1           0        2.259950    2.436490    1.970494
     38          6           0        3.043478    0.417787    2.046464
     39          1           0        2.332557   -0.025691    2.753131
     40          1           0        3.892476    0.789412    2.632367
     41          6           0        3.596630   -0.666982    1.112502
     42          1           0        4.173715   -1.359553    1.735644
     43          7           0        4.555803   -0.027681    0.196080
     44          6           0        5.439777   -0.973940   -0.467168
     45          1           0        5.998344   -1.529777    0.291025
     46          1           0        6.154284   -0.423832   -1.086524
     47          1           0        4.934208   -1.710619   -1.113751
 ---------------------------------------------------------------------

 SCF Done:  E(RB3LYP) =  -994.624292929     A.U. after   11 cycles

 The electronic state is 1-A.
 Alpha  occ. eigenvalues --  -19.11147 -14.42055 -14.37228 -14.35145 -14.31403
 Alpha  occ. eigenvalues --  -10.28660 -10.23214 -10.23187 -10.22378 -10.21966
 Alpha  occ. eigenvalues --  -10.20809 -10.20351 -10.20160 -10.19821 -10.19737
 Alpha  occ. eigenvalues --  -10.19625 -10.19540 -10.19157 -10.18305 -10.17528
 Alpha  occ. eigenvalues --  -10.17351 -10.17154 -10.17093  -1.06156  -1.02704
 Alpha  occ. eigenvalues --   -0.92891  -0.91494  -0.85963  -0.85762  -0.79003
 Alpha  occ. eigenvalues --   -0.77389  -0.76973  -0.76805  -0.75390  -0.71414
 Alpha  occ. eigenvalues --   -0.68664  -0.67494  -0.64953  -0.63190  -0.61150
 Alpha  occ. eigenvalues --   -0.60315  -0.59804  -0.58496  -0.57025  -0.53731
 Alpha  occ. eigenvalues --   -0.51472  -0.50454  -0.49577  -0.48731  -0.47448
 Alpha  occ. eigenvalues --   -0.47070  -0.46086  -0.45197  -0.45048  -0.44438
 Alpha  occ. eigenvalues --   -0.44407  -0.43238  -0.42962  -0.41696  -0.41510
 Alpha  occ. eigenvalues --   -0.41076  -0.40844  -0.40162  -0.39290  -0.38916
 Alpha  occ. eigenvalues --   -0.38507  -0.37171  -0.36158  -0.35596  -0.34967
 Alpha  occ. eigenvalues --   -0.34824  -0.34481  -0.33987  -0.32743  -0.31170
 Alpha  occ. eigenvalues --   -0.30622  -0.30196  -0.29741  -0.28719  -0.25273
 Alpha  occ. eigenvalues --   -0.25202  -0.24453  -0.22191  -0.20215
 Alpha virt. eigenvalues --   -0.04479   0.00336   0.01397   0.06348   0.08843
 Alpha virt. eigenvalues --    0.09534   0.10836   0.11195   0.11302   0.11791
 Alpha virt. eigenvalues --    0.12470   0.13258   0.14225   0.14923   0.15025

 Mulliken charges:
               1
     1  C   -0.327259
     2  H    0.186106
     3  H    0.198228
     4  H    0.186743
     5  N   -0.366301
     6  C    0.373856
     7  C    0.005585
     8  C   -0.198376
     9  C   -0.151238
    10  C   -0.154664
    11  C   -0.164565
    12  H    0.153758
    13  H    0.146080
    14  H    0.142069
    15  H    0.160481
    16  N   -0.387753
    17  C    0.221969
    18  C    0.609155
    19  O   -0.585913
    20  N   -0.636210
    21  H    0.352395
    22  C    0.075634
    23  C   -0.286902
    24  H    0.157006
    25  H    0.139152
    26  H    0.150557
    27  C   -0.326095
    28  H    0.141922
    29  H    0.154687
    30  C    0.028373
    31  H    0.127839
    32  C   -0.264993
    33  H    0.126075
    34  H    0.138556
    35  C   -0.286069
    36  H    0.144099
    37  H    0.132745
    38  C   -0.251867
    39  H    0.128531
    40  H    0.132267
    41  C    0.021006
    42  H    0.125407
    43  N   -0.388906
    44  C   -0.308733
    45  H    0.150327
    46  H    0.149016
    47  H    0.126221
 Sum of Mulliken charges =   0.00000

 Dipole moment (field-independent basis, Debye):
    X=             -1.9816    Y=              4.5201    Z=             -0.9936  Tot=              5.0344
 Quadrupole moment (field-independent basis, Debye-Ang):
   XX=           -114.9807   YY=           -131.1681   ZZ=           -136.2893
   XY=            -13.3054   XZ=             -5.4603   YZ=             -2.9361

 Normal termination of Gaussian 09 at Fri Nov 13 03:39:49 2020.
