 Gaussian 09, Revision D.01,

 -----------------
 #p b3lyp/6-31G(d)
 -----------------

 ------------------------------------------
 SET_328_BBB285_conf1_geo_300_300.n.pdb.xyz
 ------------------------------------------
 Symbolic Z-matrix:
 Charge =  0 Multiplicity = 1

 SCF Done:  E(RB3LYP) =  -907.143101033     A.U. after   15 cycles
 Normal termination of Gaussian 09 at Fri Nov 13 03:27:55 2020.
 Gaussian 09:  AM64L-G09RevD.01 24-Apr-2013

 ----------------------------------------------------------------------
 #p b3lyp/6-31G(d) scrf=(iefpcm,read,solvent=n-Octanol) geom=allcheck g
 uess=read
 ----------------------------------------------------------------------

 Structure from the checkpoint file:  "SET_328_BBB285_conf1_geo_300_300.n.pdb.xyz.mst.n.o.chk"
 ------------------------------------------
 SET_328_BBB285_conf1_geo_300_300.n.pdb.xyz
 ------------------------------------------
 Charge =  0 Multiplicity = 1

                         Standard orientation:
 ---------------------------------------------------------------------
 Center     Atomic      Atomic             Coordinates (Angstroms)
 Number     Number       Type             X           Y           Z
 ---------------------------------------------------------------------
      1          7           0       -3.490041    2.023788   -0.115152
      2          1           0       -4.213985    2.726877   -0.175452
      3          1           0       -2.522756    2.313201   -0.092639
      4          6           0       -3.839165    0.716591   -0.105691
      5          8           0       -4.998504    0.308926   -0.151173
      6          6           0       -2.703065   -0.237577   -0.033553
      7          6           0       -2.754068   -1.642351   -0.016545
      8          7           0       -1.511321   -2.114224    0.052715
      9          1           0       -3.610188   -2.296259   -0.050698
     10          7           0       -1.418967    0.137561    0.029432
     11          7           0       -0.755351   -1.011120    0.081817
     12          6           0        0.708852   -1.089913    0.124073
     13          1           0        0.918122   -2.143262    0.302636
     14          8           0        1.263391   -0.696981   -1.112553
     15          6           0        1.852569    0.623453   -1.031585
     16          6           0        3.337076    0.504386   -1.379098
     17          8           0        3.997112   -0.500993   -0.606547
     18          1           0        3.685026   -1.358724   -0.939084
     19          1           0        3.833959    1.449068   -1.158586
     20          1           0        3.446042    0.285917   -2.446743
     21          1           0        1.365744    1.261292   -1.774522
     22          6           0        1.563134    1.126757    0.404800
     23          8           0        2.644359    1.912350    0.859492
     24          1           0        2.468665    2.163990    1.780805
     25          1           0        0.625436    1.692802    0.396317
     26          6           0        1.331480   -0.180422    1.206152
     27          1           0        0.641677   -0.043220    2.042107
     28          8           0        2.517542   -0.727004    1.725281
     29          1           0        3.219944   -0.599654    1.046855
 ---------------------------------------------------------------------

 SCF Done:  E(RB3LYP) =  -907.170275468     A.U. after   11 cycles

 The electronic state is 1-A.
 Alpha  occ. eigenvalues --  -19.17736 -19.17148 -19.16021 -19.14282 -19.12007
 Alpha  occ. eigenvalues --  -14.46043 -14.38925 -14.38370 -14.36027 -10.30290
 Alpha  occ. eigenvalues --  -10.29299 -10.25063 -10.25002 -10.24835 -10.24056
 Alpha  occ. eigenvalues --  -10.23505 -10.23009  -1.12646  -1.07340  -1.03821
 Alpha  occ. eigenvalues --   -1.03673  -1.03454  -1.01429  -0.91926  -0.90144
 Alpha  occ. eigenvalues --   -0.86345  -0.78169  -0.76036  -0.70398  -0.66963
 Alpha  occ. eigenvalues --   -0.64204  -0.61738  -0.59766  -0.58412  -0.55892
 Alpha  occ. eigenvalues --   -0.54497  -0.53422  -0.51946  -0.51146  -0.50151
 Alpha  occ. eigenvalues --   -0.48710  -0.47899  -0.46755  -0.46474  -0.45078
 Alpha  occ. eigenvalues --   -0.43930  -0.41670  -0.41590  -0.41283  -0.39784
 Alpha  occ. eigenvalues --   -0.38364  -0.35539  -0.34836  -0.34162  -0.32805
 Alpha  occ. eigenvalues --   -0.31647  -0.31435  -0.30624  -0.29411  -0.28459
 Alpha  occ. eigenvalues --   -0.27427  -0.27229  -0.26462  -0.26215
 Alpha virt. eigenvalues --   -0.04095  -0.00073   0.05683   0.06911   0.08490
 Alpha virt. eigenvalues --    0.10083   0.11104   0.11561   0.12111   0.12905
 Alpha virt. eigenvalues --    0.13735   0.14578   0.15355   0.16021   0.17690

 Mulliken charges:
               1
     1  N   -0.763642
     2  H    0.367286
     3  H    0.369924
     4  C    0.564788
     5  O   -0.551797
     6  C    0.254398
     7  C   -0.016403
     8  N   -0.270930
     9  H    0.185711
    10  N   -0.376065
    11  N   -0.054913
    12  C    0.241344
    13  H    0.185927
    14  O   -0.507525
    15  C    0.095222
    16  C   -0.053369
    17  O   -0.636837
    18  H    0.429614
    19  H    0.182439
    20  H    0.157403
    21  H    0.159316
    22  C    0.084418
    23  O   -0.642686
    24  H    0.427114
    25  H    0.160804
    26  C    0.083949
    27  H    0.161488
    28  O   -0.668536
    29  H    0.431558
 Sum of Mulliken charges =   0.00000

 Dipole moment (field-independent basis, Debye):
    X=              2.5773    Y=              3.9261    Z=             -0.8301  Tot=              4.7693
 Quadrupole moment (field-independent basis, Debye-Ang):
   XX=           -123.6335   YY=            -86.3010   ZZ=            -95.2532
   XY=             -7.6474   XZ=             -7.0877   YZ=              3.5014

 Normal termination of Gaussian 09 at Fri Nov 13 03:29:49 2020.
