 Gaussian 09, Revision D.01,

 -----------------
 #p b3lyp/6-31G(d)
 -----------------

 ------------------------------------------
 SET_328_BBB304_conf1_geo_210_285.n.pdb.xyz
 ------------------------------------------
 Symbolic Z-matrix:
 Charge =  0 Multiplicity = 1

 SCF Done:  E(RB3LYP) =  -740.711515031     A.U. after   15 cycles
 Normal termination of Gaussian 09 at Fri Nov 13 03:27:34 2020.
 Gaussian 09:  AM64L-G09RevD.01 24-Apr-2013

 ----------------------------------------------------------------------
 #p b3lyp/6-31G(d) scrf=(iefpcm,read,solvent=n-Octanol) geom=allcheck g
 uess=read
 ----------------------------------------------------------------------

 Structure from the checkpoint file:  "SET_328_BBB304_conf1_geo_210_285.n.pdb.xyz.mst.n.o.chk"
 ------------------------------------------
 SET_328_BBB304_conf1_geo_210_285.n.pdb.xyz
 ------------------------------------------
 Charge =  0 Multiplicity = 1

                         Standard orientation:
 ---------------------------------------------------------------------
 Center     Atomic      Atomic             Coordinates (Angstroms)
 Number     Number       Type             X           Y           Z
 ---------------------------------------------------------------------
      1          7           0       -4.545003   -1.094128    0.226984
      2          1           0       -5.284276   -0.419259    0.096707
      3          1           0       -4.770474   -1.962681    0.686384
      4          6           0       -3.263662   -0.671713    0.122099
      5          6           0       -2.192631   -1.567510    0.444432
      6          6           0       -0.930595   -1.088910    0.280018
      7          1           0       -0.039972   -1.674011    0.461177
      8          1           0       -2.368868   -2.578233    0.783313
      9          7           0       -3.066154    0.569173   -0.309898
     10          6           0       -1.801717    1.051048   -0.459031
     11          8           0       -1.533675    2.195600   -0.833629
     12          7           0       -0.716876    0.178048   -0.157759
     13          6           0        0.642671    0.724184   -0.341960
     14          8           0        1.570371   -0.343357   -0.421259
     15          1           0        0.613644    1.269734   -1.287060
     16          6           0        1.104536    1.622961    0.816690
     17          1           0        0.605679    1.307186    1.737071
     18          1           0        0.855802    2.668092    0.634863
     19          6           0        2.607461    1.333961    0.886843
     20          1           0        3.033881    1.526698    1.871973
     21          1           0        3.155379    1.936660    0.154049
     22          6           0        2.674181   -0.142590    0.499990
     23          1           0        2.516623   -0.792197    1.368648
     24          6           0        3.938051   -0.573195   -0.223534
     25          1           0        4.793549   -0.486128    0.451704
     26          1           0        4.105814    0.101796   -1.076398
     27          8           0        3.877343   -1.927156   -0.637640
     28          1           0        3.097363   -1.999422   -1.210780
 ---------------------------------------------------------------------

 SCF Done:  E(RB3LYP) =  -740.738020831     A.U. after   11 cycles

 The electronic state is 1-A.
 Alpha  occ. eigenvalues --  -19.16879 -19.14494 -19.10001 -14.38956 -14.35795
 Alpha  occ. eigenvalues --  -14.31024 -10.30185 -10.28237 -10.27950 -10.24930
 Alpha  occ. eigenvalues --  -10.24383 -10.23311 -10.19604 -10.19453 -10.19371
 Alpha  occ. eigenvalues --   -1.06726  -1.03641  -1.01673  -0.96694  -0.94477
 Alpha  occ. eigenvalues --   -0.87220  -0.80074  -0.79058  -0.75589  -0.68527
 Alpha  occ. eigenvalues --   -0.65821  -0.64080  -0.61419  -0.58972  -0.56554
 Alpha  occ. eigenvalues --   -0.53480  -0.52834  -0.51699  -0.50115  -0.49170
 Alpha  occ. eigenvalues --   -0.47906  -0.45374  -0.44469  -0.43511  -0.42358
 Alpha  occ. eigenvalues --   -0.41990  -0.40768  -0.40575  -0.39097  -0.38451
 Alpha  occ. eigenvalues --   -0.36461  -0.35347  -0.34043  -0.33474  -0.32775
 Alpha  occ. eigenvalues --   -0.28884  -0.27025  -0.26614  -0.25260  -0.24550
 Alpha  occ. eigenvalues --   -0.22620
 Alpha virt. eigenvalues --   -0.02634   0.02101   0.07807   0.08790   0.09464
 Alpha virt. eigenvalues --    0.10122   0.11313   0.11912   0.13266   0.13999
 Alpha virt. eigenvalues --    0.14551   0.14980   0.16028   0.16659   0.17450

 Mulliken charges:
               1
     1  N   -0.777066
     2  H    0.364742
     3  H    0.367534
     4  C    0.529097
     5  C   -0.237274
     6  C    0.109674
     7  H    0.197750
     8  H    0.158374
     9  N   -0.601033
    10  C    0.704213
    11  O   -0.584130
    12  N   -0.499252
    13  C    0.314728
    14  O   -0.548441
    15  H    0.169876
    16  C   -0.314800
    17  H    0.160190
    18  H    0.180458
    19  C   -0.314587
    20  H    0.168053
    21  H    0.158888
    22  C    0.132896
    23  H    0.141782
    24  C   -0.039898
    25  H    0.153130
    26  H    0.131347
    27  O   -0.641425
    28  H    0.415172
 Sum of Mulliken charges =   0.00000

 Dipole moment (field-independent basis, Debye):
    X=             -0.2555    Y=             -4.1706    Z=              3.6906  Tot=              5.5749
 Quadrupole moment (field-independent basis, Debye-Ang):
   XX=            -74.9457   YY=            -93.0011   ZZ=            -85.7754
   XY=             27.6288   XZ=             -5.6511   YZ=              1.7311

 Normal termination of Gaussian 09 at Fri Nov 13 03:29:04 2020.
