 Gaussian 09, Revision D.01,

 -----------------
 #p b3lyp/6-31G(d)
 -----------------

 ------------------------------------------
 SET_328_BBB285_conf1_geo_300_075.n.pdb.xyz
 ------------------------------------------
 Symbolic Z-matrix:
 Charge =  0 Multiplicity = 1

 SCF Done:  E(RB3LYP) =  -907.132412665     A.U. after   16 cycles
 Normal termination of Gaussian 09 at Fri Nov 13 03:27:58 2020.
 Gaussian 09:  AM64L-G09RevD.01 24-Apr-2013

 ----------------------------------------------------------------------
 #p b3lyp/6-31G(d) scrf=(iefpcm,read,solvent=n-Octanol) geom=allcheck g
 uess=read
 ----------------------------------------------------------------------

 Structure from the checkpoint file:  "SET_328_BBB285_conf1_geo_300_075.n.pdb.xyz.mst.n.o.chk"
 ------------------------------------------
 SET_328_BBB285_conf1_geo_300_075.n.pdb.xyz
 ------------------------------------------
 Charge =  0 Multiplicity = 1

                         Standard orientation:
 ---------------------------------------------------------------------
 Center     Atomic      Atomic             Coordinates (Angstroms)
 Number     Number       Type             X           Y           Z
 ---------------------------------------------------------------------
      1          7           0       -3.573033    1.051784    1.756018
      2          1           0       -4.317292    1.456211    2.308256
      3          1           0       -2.628684    1.071047    2.111989
      4          6           0       -3.855940    0.561053    0.527221
      5          8           0       -4.980392    0.542650    0.029644
      6          6           0       -2.688473    0.021471   -0.215915
      7          6           0       -2.669961   -0.549434   -1.501302
      8          7           0       -1.419786   -0.906243   -1.789306
      9          1           0       -3.480591   -0.708047   -2.193523
     10          7           0       -1.443216    0.003756    0.272315
     11          7           0       -0.732262   -0.562981   -0.695678
     12          6           0        0.722899   -0.703169   -0.633882
     13          1           0        0.965448   -1.365115   -1.464556
     14          8           0        1.347235    0.545348   -0.790880
     15          6           0        2.166321    0.845093    0.364384
     16          6           0        3.382971    1.645910   -0.076745
     17          8           0        3.050664    2.895811   -0.659252
     18          1           0        2.666415    3.455235    0.034551
     19          1           0        3.912280    1.074012   -0.837979
     20          1           0        4.054066    1.763821    0.786047
     21          1           0        1.569256    1.431401    1.079104
     22          6           0        2.491164   -0.516133    0.979754
     23          8           0        3.563236   -1.122461    0.286083
     24          1           0        3.348592   -2.075639    0.251819
     25          1           0        2.710051   -0.434654    2.051962
     26          6           0        1.191956   -1.297209    0.707656
     27          1           0        0.445876   -1.091819    1.480159
     28          8           0        1.412653   -2.687372    0.543178
     29          1           0        1.339866   -3.117952    1.411531
 ---------------------------------------------------------------------

 SCF Done:  E(RB3LYP) =  -907.164740426     A.U. after   11 cycles

 The electronic state is 1-A.
 Alpha  occ. eigenvalues --  -19.17837 -19.16703 -19.15027 -19.14512 -19.11953
 Alpha  occ. eigenvalues --  -14.45940 -14.38771 -14.38256 -14.35938 -10.30210
 Alpha  occ. eigenvalues --  -10.29386 -10.26057 -10.24743 -10.24606 -10.23411
 Alpha  occ. eigenvalues --  -10.23188 -10.22916  -1.12542  -1.07116  -1.04794
 Alpha  occ. eigenvalues --   -1.03667  -1.01949  -1.01626  -0.91851  -0.90042
 Alpha  occ. eigenvalues --   -0.86299  -0.78470  -0.76355  -0.70075  -0.66680
 Alpha  occ. eigenvalues --   -0.63761  -0.61538  -0.59605  -0.58306  -0.56179
 Alpha  occ. eigenvalues --   -0.54662  -0.53089  -0.52695  -0.51373  -0.49523
 Alpha  occ. eigenvalues --   -0.48732  -0.48163  -0.46737  -0.45787  -0.44657
 Alpha  occ. eigenvalues --   -0.43520  -0.41662  -0.41236  -0.40948  -0.39246
 Alpha  occ. eigenvalues --   -0.38213  -0.35866  -0.35183  -0.33921  -0.33125
 Alpha  occ. eigenvalues --   -0.31309  -0.30776  -0.30091  -0.28832  -0.28204
 Alpha  occ. eigenvalues --   -0.27526  -0.27204  -0.26457  -0.26126
 Alpha virt. eigenvalues --   -0.04038  -0.00015   0.05106   0.07846   0.09423
 Alpha virt. eigenvalues --    0.10594   0.10875   0.11514   0.11822   0.12726
 Alpha virt. eigenvalues --    0.13600   0.14214   0.14773   0.15464   0.16759

 Mulliken charges:
               1
     1  N   -0.764152
     2  H    0.366420
     3  H    0.371423
     4  C    0.563380
     5  O   -0.552295
     6  C    0.245365
     7  C   -0.014654
     8  N   -0.268284
     9  H    0.184911
    10  N   -0.366399
    11  N   -0.070039
    12  C    0.314508
    13  H    0.182760
    14  O   -0.498425
    15  C    0.108559
    16  C   -0.035722
    17  O   -0.633782
    18  H    0.411673
    19  H    0.169113
    20  H    0.133869
    21  H    0.137424
    22  C    0.092585
    23  O   -0.657518
    24  H    0.419737
    25  H    0.142415
    26  C    0.037476
    27  H    0.181232
    28  O   -0.642434
    29  H    0.440851
 Sum of Mulliken charges =   0.00000

 Dipole moment (field-independent basis, Debye):
    X=              2.3964    Y=             -1.3907    Z=              8.1486  Tot=              8.6068
 Quadrupole moment (field-independent basis, Debye-Ang):
   XX=           -123.9958   YY=            -88.1593   ZZ=            -88.3009
   XY=             -6.2291   XZ=              2.2436   YZ=              4.2294

 Normal termination of Gaussian 09 at Fri Nov 13 03:29:51 2020.
