 Gaussian 09, Revision D.01,

 -----------------
 #p b3lyp/6-31G(d)
 -----------------

 -----------------------------------------
 SET_328_BBB87_conf1_geo_075_075.n.pdb.xyz
 -----------------------------------------
 Symbolic Z-matrix:
 Charge =  0 Multiplicity = 1

 SCF Done:  E(RB3LYP) =  -703.023371335     A.U. after   15 cycles
 Normal termination of Gaussian 09 at Fri Nov 13 03:26:47 2020.
 Gaussian 09:  AM64L-G09RevD.01 24-Apr-2013

 ----------------------------------------------------------------------
 #p b3lyp/6-31G(d) scrf=(iefpcm,read,solvent=n-Octanol) geom=allcheck g
 uess=read
 ----------------------------------------------------------------------

 Structure from the checkpoint file:  "SET_328_BBB87_conf1_geo_075_075.n.pdb.xyz.mst.n.o.chk"
 -----------------------------------------
 SET_328_BBB87_conf1_geo_075_075.n.pdb.xyz
 -----------------------------------------
 Charge =  0 Multiplicity = 1

                         Standard orientation:
 ---------------------------------------------------------------------
 Center     Atomic      Atomic             Coordinates (Angstroms)
 Number     Number       Type             X           Y           Z
 ---------------------------------------------------------------------
      1          7           0       -2.443676   -0.866055   -0.732189
      2          1           0       -1.648802   -1.015618   -1.349684
      3          1           0       -3.267130   -0.945678   -1.323751
      4          6           0       -2.382118    0.484589   -0.170399
      5          1           0       -3.349397    0.698219    0.295883
      6          1           0       -2.203894    1.274327   -0.915591
      7          6           0       -1.303614    0.592805    0.921076
      8          1           0       -1.507501   -0.156430    1.691625
      9          1           0       -1.367460    1.583179    1.381264
     10          6           0        0.094453    0.428469    0.397123
     11          7           0        0.803252    1.391118   -0.127394
     12          6           0        2.031659    0.936345   -0.551710
     13          1           0        2.724974    1.635063   -1.004903
     14          6           0        2.282682   -0.389323   -0.355553
     15          1           0        3.171449   -0.953017   -0.601079
     16         16           0        0.912023   -1.132050    0.400006
 ---------------------------------------------------------------------

 SCF Done:  E(RB3LYP) =  -703.035639934     A.U. after   10 cycles

 The electronic state is 1-A.
 Alpha  occ. eigenvalues --  -88.91339 -14.33427 -14.31133 -10.25403 -10.21885
 Alpha  occ. eigenvalues --  -10.21788 -10.21169 -10.19701  -7.97498  -5.93868
 Alpha  occ. eigenvalues --   -5.93523  -5.93233  -0.96140  -0.88068  -0.79624
 Alpha  occ. eigenvalues --   -0.77792  -0.71135  -0.62204  -0.58781  -0.53276
 Alpha  occ. eigenvalues --   -0.50062  -0.48928  -0.47139  -0.42738  -0.41872
 Alpha  occ. eigenvalues --   -0.41272  -0.37016  -0.36720  -0.36302  -0.35644
 Alpha  occ. eigenvalues --   -0.28279  -0.27393  -0.24474  -0.23544
 Alpha virt. eigenvalues --   -0.02349   0.02188   0.04859   0.09243   0.09888
 Alpha virt. eigenvalues --    0.12547   0.13334   0.14864   0.15903   0.16952
 Alpha virt. eigenvalues --    0.17202   0.19729   0.22153   0.23126   0.25659

 Mulliken charges:
               1
     1  N   -0.744864
     2  H    0.316111
     3  H    0.318953
     4  C   -0.137714
     5  H    0.150674
     6  H    0.136257
     7  C   -0.299470
     8  H    0.162522
     9  H    0.170303
    10  C    0.078188
    11  N   -0.418674
    12  C    0.039413
    13  H    0.159145
    14  C   -0.355513
    15  H    0.193638
    16  S    0.231033
 Sum of Mulliken charges =   0.00000

 Dipole moment (field-independent basis, Debye):
    X=             -0.2071    Y=             -0.4227    Z=             -1.2158  Tot=              1.3037
 Quadrupole moment (field-independent basis, Debye-Ang):
   XX=            -45.0896   YY=            -59.2065   ZZ=            -52.2937
   XY=             -3.7800   XZ=              0.1830   YZ=              1.7898

 Normal termination of Gaussian 09 at Fri Nov 13 03:27:15 2020.
