 Gaussian 09, Revision D.01,

 -----------------
 #p b3lyp/6-31G(d)
 -----------------

 ------------------------------------------
 SET_328_BBB181_conf1_geo_075_180.n.pdb.xyz
 ------------------------------------------
 Symbolic Z-matrix:
 Charge =  0 Multiplicity = 1

 SCF Done:  E(RB3LYP) =  -233.661013640     A.U. after   12 cycles

 1\1\GINC-PIRINEUS8\SP\RB3LYP\6-31G(d)\C4H10O1\UBAFAR01\13-Nov-2020\0\\
 #p b3lyp/6-31G(d)\\SET_328_BBB181_conf1_geo_075_180.n.pdb.xyz\\0,1\C,0
 ,0.558,0.749,2.166\H,0,0.785,1.782,1.888\H,0,1.489,0.26,2.465\H,0,-0.1
 19,0.764,3.025\C,0,-0.082,0.013,1.006\H,0,-1.029,0.496,0.723\H,0,-0.32
 2,-1.023,1.287\O,0,0.826,0.008,-0.085\C,0,0.362,-0.75,-1.193\H,0,0.002
 ,-1.731,-0.844\H,0,1.241,-0.925,-1.821\C,0,-0.722,-0.044,-1.998\H,0,-1
 .014,-0.655,-2.858\H,0,-0.358,0.919,-2.367\H,0,-1.616,0.136,-1.395\\Ve
 rsion=AM64L-G09RevD.01\State=1-A\HF=-233.6610136\RMSD=7.350e-09\Dipole

 Normal termination of Gaussian 09 at Fri Nov 13 03:26:02 2020.
 Gaussian 09:  AM64L-G09RevD.01 24-Apr-2013

 ----------------------------------------------------------------------
 #p b3lyp/6-31G(d) scrf=(iefpcm,read,solvent=n-Octanol) geom=allcheck g
 uess=read
 ----------------------------------------------------------------------

 Structure from the checkpoint file:  "SET_328_BBB181_conf1_geo_075_180.n.pdb.xyz.mst.n.o.chk"
 ------------------------------------------
 SET_328_BBB181_conf1_geo_075_180.n.pdb.xyz
 ------------------------------------------
 Charge =  0 Multiplicity = 1

                         Standard orientation:
 ---------------------------------------------------------------------
 Center     Atomic      Atomic             Coordinates (Angstroms)
 Number     Number       Type             X           Y           Z
 ---------------------------------------------------------------------
      1          6           0        2.332632    0.147654   -0.173548
      2          1           0        2.348498    0.428256   -1.230389
      3          1           0        2.688861   -0.882171   -0.084979
      4          1           0        3.021981    0.802380    0.367347
      5          6           0        0.932484    0.277840    0.391726
      6          1           0        0.586993    1.319803    0.320050
      7          1           0        0.916237    0.007355    1.457760
      8          8           0        0.069636   -0.589052   -0.328524
      9          6           0       -1.251369   -0.619945    0.192548
     10          1           0       -1.213790   -0.754653    1.285344
     11          1           0       -1.717367   -1.513285   -0.234582
     12          6           0       -2.070472    0.615266   -0.160782
     13          1           0       -3.087588    0.520810    0.232584
     14          1           0       -2.130450    0.736520   -1.246013
     15          1           0       -1.630115    1.522505    0.261411
 ---------------------------------------------------------------------

 SCF Done:  E(RB3LYP) =  -233.666188911     A.U. after    9 cycles

 The electronic state is 1-A.
 Alpha  occ. eigenvalues --  -19.14050 -10.22607 -10.22529 -10.17352 -10.17299
 Alpha  occ. eigenvalues --   -1.02415  -0.76829  -0.72545  -0.63018  -0.58849
 Alpha  occ. eigenvalues --   -0.48885  -0.46717  -0.46282  -0.41243  -0.38951
 Alpha  occ. eigenvalues --   -0.38649  -0.37127  -0.35578  -0.34095  -0.30677
 Alpha  occ. eigenvalues --   -0.24932
 Alpha virt. eigenvalues --    0.09419   0.11841   0.12641   0.14213   0.15249
 Alpha virt. eigenvalues --    0.16809   0.17462   0.18396   0.19219   0.19540
 Alpha virt. eigenvalues --    0.22300   0.24186   0.25112   0.26699   0.50329

 Mulliken charges:
               1
     1  C   -0.456038
     2  H    0.154699
     3  H    0.153863
     4  H    0.148613
     5  C   -0.012909
     6  H    0.127019
     7  H    0.122196
     8  O   -0.479520
     9  C   -0.019061
    10  H    0.123318
    11  H    0.143068
    12  C   -0.461397
    13  H    0.147884
    14  H    0.154133
    15  H    0.154133
 Sum of Mulliken charges =   0.00000

 Dipole moment (field-independent basis, Debye):
    X=             -0.4146    Y=              0.8337    Z=              1.0570  Tot=              1.4086
 Quadrupole moment (field-independent basis, Debye-Ang):
   XX=            -30.3855   YY=            -33.2617   ZZ=            -33.1349
   XY=              1.2447   XZ=              0.3277   YZ=             -0.4606

 1\1\GINC-PIRINEUS8\SP\RB3LYP\6-31G(d)\C4H10O1\UBAFAR01\13-Nov-2020\0\\
 #p b3lyp/6-31G(d) scrf=(iefpcm,read,solvent=n-Octanol) geom=allcheck g
 uess=read\\SET_328_BBB181_conf1_geo_075_180.n.pdb.xyz\\0,1\C,0,0.558,0
 .749,2.166\H,0,0.785,1.782,1.888\H,0,1.489,0.26,2.465\H,0,-0.119,0.764
 ,3.025\C,0,-0.082,0.013,1.006\H,0,-1.029,0.496,0.723\H,0,-0.322,-1.023
 ,1.287\O,0,0.826,0.008,-0.085\C,0,0.362,-0.75,-1.193\H,0,0.002,-1.731,
 -0.844\H,0,1.241,-0.925,-1.821\C,0,-0.722,-0.044,-1.998\H,0,-1.014,-0.
 655,-2.858\H,0,-0.358,0.919,-2.367\H,0,-1.616,0.136,-1.395\\Version=AM

 Normal termination of Gaussian 09 at Fri Nov 13 03:26:17 2020.
