 Gaussian 09, Revision D.01,

 -----------------
 #p b3lyp/6-31G(d)
 -----------------

 -----------------------------------------
 SET_328_BBB87_conf1_geo_180_270.n.pdb.xyz
 -----------------------------------------
 Symbolic Z-matrix:
 Charge =  0 Multiplicity = 1

 SCF Done:  E(RB3LYP) =  -703.022932265     A.U. after   15 cycles
 Normal termination of Gaussian 09 at Fri Nov 13 03:26:45 2020.
 Gaussian 09:  AM64L-G09RevD.01 24-Apr-2013

 ----------------------------------------------------------------------
 #p b3lyp/6-31G(d) scrf=(iefpcm,read,solvent=n-Octanol) geom=allcheck g
 uess=read
 ----------------------------------------------------------------------

 Structure from the checkpoint file:  "SET_328_BBB87_conf1_geo_180_270.n.pdb.xyz.mst.n.o.chk"
 -----------------------------------------
 SET_328_BBB87_conf1_geo_180_270.n.pdb.xyz
 -----------------------------------------
 Charge =  0 Multiplicity = 1

                         Standard orientation:
 ---------------------------------------------------------------------
 Center     Atomic      Atomic             Coordinates (Angstroms)
 Number     Number       Type             X           Y           Z
 ---------------------------------------------------------------------
      1          7           0        3.564815   -0.096352   -0.105190
      2          1           0        3.866911    0.804288    0.263233
      3          1           0        4.155818   -0.270840   -0.914532
      4          6           0        2.169603    0.004931   -0.539920
      5          1           0        1.917051   -0.911649   -1.081488
      6          1           0        1.962285    0.846665   -1.218501
      7          6           0        1.255439    0.131616    0.691652
      8          1           0        1.520317    1.037733    1.245773
      9          1           0        1.436778   -0.721976    1.352640
     10          6           0       -0.195988    0.236701    0.338393
     11          7           0       -0.830680    1.358570    0.144727
     12          6           0       -2.141443    1.139230   -0.218047
     13          1           0       -2.785504    1.988565   -0.404552
     14          6           0       -2.529862   -0.164571   -0.309190
     15          1           0       -3.499361   -0.565234   -0.566954
     16         16           0       -1.191233   -1.195658    0.079394
 ---------------------------------------------------------------------

 SCF Done:  E(RB3LYP) =  -703.035551897     A.U. after   11 cycles

 The electronic state is 1-A.
 Alpha  occ. eigenvalues --  -88.91347 -14.33502 -14.31153 -10.25507 -10.21941
 Alpha  occ. eigenvalues --  -10.21868 -10.21193 -10.19703  -7.97521  -5.93893
 Alpha  occ. eigenvalues --   -5.93550  -5.93250  -0.96213  -0.88055  -0.79658
 Alpha  occ. eigenvalues --   -0.78074  -0.70873  -0.62215  -0.58777  -0.54075
 Alpha  occ. eigenvalues --   -0.50223  -0.48588  -0.45742  -0.44545  -0.41806
 Alpha  occ. eigenvalues --   -0.39936  -0.38500  -0.36714  -0.36381  -0.34986
 Alpha  occ. eigenvalues --   -0.28330  -0.27480  -0.24392  -0.23656
 Alpha virt. eigenvalues --   -0.02396   0.01923   0.05112   0.08281   0.10669
 Alpha virt. eigenvalues --    0.12537   0.13523   0.13810   0.15703   0.17168
 Alpha virt. eigenvalues --    0.18096   0.19028   0.21962   0.23520   0.25664

 Mulliken charges:
               1
     1  N   -0.743769
     2  H    0.311859
     3  H    0.317529
     4  C   -0.132968
     5  H    0.149476
     6  H    0.136069
     7  C   -0.310189
     8  H    0.169490
     9  H    0.166636
    10  C    0.085344
    11  N   -0.417036
    12  C    0.039593
    13  H    0.159929
    14  C   -0.352964
    15  H    0.194446
    16  S    0.226553
 Sum of Mulliken charges =   0.00000

 Dipole moment (field-independent basis, Debye):
    X=              0.0931    Y=             -0.0693    Z=             -1.2814  Tot=              1.2867
 Quadrupole moment (field-independent basis, Debye-Ang):
   XX=            -44.0626   YY=            -56.9152   ZZ=            -55.0511
   XY=              4.6008   XZ=             -2.0738   YZ=              0.6052

 Normal termination of Gaussian 09 at Fri Nov 13 03:27:13 2020.
