 Gaussian 09, Revision D.01,

 -----------------
 #p b3lyp/6-31G(d)
 -----------------

 -----------------------------------------
 SET_328_BBB65_conf1_geo_060_330.n.pdb.xyz
 -----------------------------------------
 Symbolic Z-matrix:
 Charge =  0 Multiplicity = 1

 SCF Done:  E(RB3LYP) =  -717.616547737     A.U. after   14 cycles
 Normal termination of Gaussian 09 at Fri Nov 13 03:30:45 2020.
 Gaussian 09:  AM64L-G09RevD.01 24-Apr-2013

 ----------------------------------------------------------------------
 #p b3lyp/6-31G(d) scrf=(iefpcm,read,solvent=n-Octanol) geom=allcheck g
 uess=read
 ----------------------------------------------------------------------

 Structure from the checkpoint file:  "SET_328_BBB65_conf1_geo_060_330.n.pdb.xyz.mst.n.o.chk"
 -----------------------------------------
 SET_328_BBB65_conf1_geo_060_330.n.pdb.xyz
 -----------------------------------------
 Charge =  0 Multiplicity = 1

                         Standard orientation:
 ---------------------------------------------------------------------
 Center     Atomic      Atomic             Coordinates (Angstroms)
 Number     Number       Type             X           Y           Z
 ---------------------------------------------------------------------
      1          6           0       -2.061690    3.144363   -0.050228
      2          6           0       -1.963169    2.272969   -1.304580
      3          6           0       -0.789379    1.292726   -1.202972
      4          1           0       -0.771881    0.666018   -2.095461
      5          1           0        0.155746    1.865001   -1.194011
      6          1           0       -2.890771    1.701128   -1.431294
      7          1           0       -1.837204    2.891050   -2.200486
      8          1           0       -1.192022    3.813907   -0.007442
      9          1           0       -2.950463    3.783350   -0.088277
     10          6           0       -2.078530    2.256322    1.197483
     11          1           0       -3.011134    1.682430    1.230505
     12          1           0       -2.033721    2.862851    2.110676
     13          6           0       -0.899416    1.276899    1.189587
     14          1           0       -0.967559    0.639271    2.070807
     15          1           0        0.043402    1.848263    1.277970
     16          7           0       -0.912471    0.440099   -0.014627
     17          6           0       -0.005278   -0.753944    0.010191
     18          6           0       -0.324846   -1.635286    1.249260
     19          6           0       -1.767707   -2.153185    1.276977
     20          6           0       -2.090842   -2.967758    0.021251
     21          6           0       -1.760066   -2.175337   -1.248238
     22          6           0       -0.318864   -1.651329   -1.217965
     23          1           0       -0.103408   -1.137027   -2.155610
     24          1           0        0.375858   -2.500121   -1.181625
     25          1           0       -2.449787   -1.329363   -1.342509
     26          1           0       -1.893998   -2.803064   -2.135002
     27          1           0       -3.144348   -3.270642    0.021383
     28          1           0       -1.500580   -3.893551    0.031589
     29          1           0       -2.456023   -1.305584    1.350653
     30          1           0       -1.912854   -2.765804    2.174932
     31          1           0       -0.101683   -1.119110    2.186266
     32          1           0        0.364888   -2.489247    1.212645
     33          6           0        1.485169   -0.342389    0.015991
     34          6           0        2.147685   -0.013459    1.209554
     35          1           0        1.626501   -0.094134    2.154519
     36          6           0        3.476961    0.408308    1.214150
     37          1           0        3.957320    0.651094    2.157433
     38          6           0        4.186921    0.513607    0.019140
     39          1           0        5.221768    0.838436    0.021059
     40          6           0        3.548886    0.191180   -1.177805
     41          1           0        4.085039    0.261430   -2.117847
     42          6           0        2.218158   -0.229571   -1.173807
     43          1           0        1.750251   -0.481973   -2.116410
 ---------------------------------------------------------------------

 SCF Done:  E(RB3LYP) =  -717.631410426     A.U. after    9 cycles

 The electronic state is 1-A.
 Alpha  occ. eigenvalues --  -14.31705 -10.22142 -10.19583 -10.19557 -10.18887
 Alpha  occ. eigenvalues --  -10.18627 -10.18606 -10.18522 -10.18332 -10.18282
 Alpha  occ. eigenvalues --  -10.17504 -10.17392 -10.17391 -10.17360 -10.17334
 Alpha  occ. eigenvalues --  -10.17134 -10.17101 -10.17054  -0.91799  -0.84969
 Alpha  occ. eigenvalues --   -0.82116  -0.78235  -0.75359  -0.75019  -0.73891
 Alpha  occ. eigenvalues --   -0.72977  -0.70993  -0.63844  -0.62550  -0.60748
 Alpha  occ. eigenvalues --   -0.60374  -0.58404  -0.57144  -0.55435  -0.53284
 Alpha  occ. eigenvalues --   -0.51187  -0.48848  -0.46550  -0.45539  -0.45211
 Alpha  occ. eigenvalues --   -0.44453  -0.44187  -0.42801  -0.42076  -0.41824
 Alpha  occ. eigenvalues --   -0.41494  -0.41299  -0.39975  -0.39158  -0.37697
 Alpha  occ. eigenvalues --   -0.36689  -0.36231  -0.35606  -0.35460  -0.34258
 Alpha  occ. eigenvalues --   -0.34003  -0.33815  -0.32926  -0.32245  -0.31777
 Alpha  occ. eigenvalues --   -0.30972  -0.30335  -0.29967  -0.28287  -0.24634
 Alpha  occ. eigenvalues --   -0.24302  -0.20269
 Alpha virt. eigenvalues --    0.00104   0.00222   0.07628   0.09844   0.10299
 Alpha virt. eigenvalues --    0.11163   0.11206   0.12592   0.13196   0.13670
 Alpha virt. eigenvalues --    0.15067   0.15564   0.15717   0.16189   0.16696

 Mulliken charges:
               1
     1  C   -0.263222
     2  C   -0.260675
     3  C   -0.126809
     4  H    0.139217
     5  H    0.117356
     6  H    0.135755
     7  H    0.130113
     8  H    0.128853
     9  H    0.132154
    10  C   -0.260554
    11  H    0.136407
    12  H    0.129888
    13  C   -0.127385
    14  H    0.139408
    15  H    0.116555
    16  N   -0.413019
    17  C    0.146131
    18  C   -0.301803
    19  C   -0.254917
    20  C   -0.260487
    21  C   -0.253762
    22  C   -0.301916
    23  H    0.142370
    24  H    0.135706
    25  H    0.144992
    26  H    0.126243
    27  H    0.127085
    28  H    0.125443
    29  H    0.145622
    30  H    0.126480
    31  H    0.141271
    32  H    0.136393
    33  C    0.160057
    34  C   -0.187612
    35  H    0.133238
    36  C   -0.147911
    37  H    0.135264
    38  C   -0.139718
    39  H    0.135327
    40  C   -0.147528
    41  H    0.135310
    42  C   -0.187618
    43  H    0.132299
 Sum of Mulliken charges =   0.00000

 Dipole moment (field-independent basis, Debye):
    X=              0.0705    Y=              0.2108    Z=              0.0212  Tot=              0.2233
 Quadrupole moment (field-independent basis, Debye-Ang):
   XX=           -109.6684   YY=           -111.9295   ZZ=           -105.4505
   XY=              0.9088   XZ=             -0.2955   YZ=              0.5485

 Normal termination of Gaussian 09 at Fri Nov 13 03:34:12 2020.
