 Gaussian 09, Revision D.01,

 -----------------
 #p b3lyp/6-31G(d)
 -----------------

 ------------------------------------------
 SET_328_BBB212_conf1_geo_060_225.n.pdb.xyz
 ------------------------------------------
 Symbolic Z-matrix:
 Charge =  0 Multiplicity = 1

 SCF Done:  E(RB3LYP) =  -731.666641902     A.U. after   14 cycles
 Normal termination of Gaussian 09 at Fri Nov 13 03:28:25 2020.
 Gaussian 09:  AM64L-G09RevD.01 24-Apr-2013

 ----------------------------------------------------------------------
 #p b3lyp/6-31G(d) scrf=(iefpcm,read,solvent=n-Octanol) geom=allcheck g
 uess=read
 ----------------------------------------------------------------------

 Structure from the checkpoint file:  "SET_328_BBB212_conf1_geo_060_225.n.pdb.xyz.mst.n.o.chk"
 ------------------------------------------
 SET_328_BBB212_conf1_geo_060_225.n.pdb.xyz
 ------------------------------------------
 Charge =  0 Multiplicity = 1

                         Standard orientation:
 ---------------------------------------------------------------------
 Center     Atomic      Atomic             Coordinates (Angstroms)
 Number     Number       Type             X           Y           Z
 ---------------------------------------------------------------------
      1          6           0        0.047150    2.399075   -1.221833
      2          1           0        0.067167    1.821002   -2.149870
      3          1           0        0.949626    3.015555   -1.192285
      4          1           0       -0.820455    3.067472   -1.255770
      5          6           0       -0.000201    1.479527    0.017397
      6          6           0       -0.048495    2.380923    1.272073
      7          1           0       -0.063899    1.787808    2.190482
      8          1           0       -0.953183    2.993596    1.252581
      9          1           0        0.817185    3.050446    1.312644
     10          6           0        1.256920    0.590433    0.000627
     11          6           0        1.475209   -0.279406   -1.081565
     12          6           0        2.596629   -1.093312   -1.157977
     13          6           0        3.549829   -1.062216   -0.132346
     14          8           0        4.634103   -1.884928   -0.254185
     15          1           0        5.207860   -1.778261    0.522286
     16          6           0        3.357530   -0.208253    0.954147
     17          6           0        2.221922    0.604386    1.010707
     18          1           0        2.099972    1.256293    1.868153
     19          1           0        4.089784   -0.172062    1.755230
     20          1           0        2.749155   -1.758890   -1.999076
     21          1           0        0.742665   -0.320899   -1.880238
     22          6           0       -1.256115    0.587149    0.012641
     23          6           0       -2.231911    0.647692   -0.988789
     24          1           0       -2.112390    1.335692   -1.816196
     25          6           0       -3.368322   -0.160177   -0.957559
     26          1           0       -4.113914   -0.103228   -1.742059
     27          6           0       -3.556409   -1.059380    0.093275
     28          8           0       -4.685860   -1.828876    0.077388
     29          1           0       -4.689725   -2.412794    0.853071
     30          6           0       -2.594606   -1.138851    1.108231
     31          1           0       -2.726952   -1.836206    1.930944
     32          6           0       -1.466221   -0.325465    1.057047
     33          1           0       -0.726298   -0.407828    1.848027
 ---------------------------------------------------------------------

 SCF Done:  E(RB3LYP) =  -731.690580115     A.U. after   10 cycles

 The electronic state is 1-A.
 Alpha  occ. eigenvalues --  -19.17521 -19.17500 -10.24620 -10.24618 -10.20640
 Alpha  occ. eigenvalues --  -10.18727 -10.18711 -10.18672 -10.18638 -10.18638
 Alpha  occ. eigenvalues --  -10.18572 -10.18564 -10.18559 -10.18288 -10.18195
 Alpha  occ. eigenvalues --  -10.17416 -10.17384  -1.05505  -1.05485  -0.86245
 Alpha  occ. eigenvalues --   -0.84391  -0.80369  -0.74632  -0.74451  -0.73047
 Alpha  occ. eigenvalues --   -0.71671  -0.68688  -0.63077  -0.61915  -0.60777
 Alpha  occ. eigenvalues --   -0.59570  -0.55516  -0.54080  -0.54006  -0.49443
 Alpha  occ. eigenvalues --   -0.47757  -0.46278  -0.45212  -0.44478  -0.44315
 Alpha  occ. eigenvalues --   -0.42059  -0.41890  -0.41129  -0.40542  -0.40409
 Alpha  occ. eigenvalues --   -0.40059  -0.39228  -0.37933  -0.37849  -0.37227
 Alpha  occ. eigenvalues --   -0.35340  -0.34784  -0.33690  -0.33232  -0.31827
 Alpha  occ. eigenvalues --   -0.31771  -0.31378  -0.24981  -0.24962  -0.22259
 Alpha  occ. eigenvalues --   -0.20701
 Alpha virt. eigenvalues --   -0.00179  -0.00127   0.01027   0.02356   0.08391
 Alpha virt. eigenvalues --    0.08449   0.09106   0.10778   0.12500   0.12820
 Alpha virt. eigenvalues --    0.14180   0.14502   0.15580   0.15670   0.16160

 Mulliken charges:
               1
     1  C   -0.462773
     2  H    0.151965
     3  H    0.150188
     4  H    0.147600
     5  C   -0.062569
     6  C   -0.461036
     7  H    0.150700
     8  H    0.150555
     9  H    0.147429
    10  C    0.175887
    11  C   -0.195180
    12  C   -0.174656
    13  C    0.345783
    14  O   -0.662473
    15  H    0.431103
    16  C   -0.207156
    17  C   -0.215048
    18  H    0.135312
    19  H    0.135503
    20  H    0.138095
    21  H    0.136685
    22  C    0.174409
    23  C   -0.211784
    24  H    0.134976
    25  C   -0.177300
    26  H    0.136812
    27  C    0.345651
    28  O   -0.662450
    29  H    0.431114
    30  C   -0.205428
    31  H    0.137076
    32  C   -0.195878
    33  H    0.136889
 Sum of Mulliken charges =   0.00000

 Dipole moment (field-independent basis, Debye):
    X=              1.0529    Y=             -0.0494    Z=              2.8623  Tot=              3.0503
 Quadrupole moment (field-independent basis, Debye-Ang):
   XX=            -94.2536   YY=            -96.7206   ZZ=            -92.7353
   XY=              4.1098   XZ=              4.1099   YZ=             -6.7763

 Normal termination of Gaussian 09 at Fri Nov 13 03:30:37 2020.
