 Gaussian 09, Revision D.01,

 -----------------
 #p b3lyp/6-31G(d)
 -----------------

 -----------------------------------------
 SET_328_BBB23_conf1_geo_060_165.n.pdb.xyz
 -----------------------------------------
 Symbolic Z-matrix:
 Charge =  0 Multiplicity = 1

 SCF Done:  E(RB3LYP) =  -237.081604738     A.U. after   12 cycles
 Normal termination of Gaussian 09 at Fri Nov 13 03:26:12 2020.
 Gaussian 09:  AM64L-G09RevD.01 24-Apr-2013

 ----------------------------------------------------------------------
 #p b3lyp/6-31G(d) scrf=(iefpcm,read,solvent=n-Octanol) geom=allcheck g
 uess=read
 ----------------------------------------------------------------------

 Structure from the checkpoint file:  "SET_328_BBB23_conf1_geo_060_165.n.pdb.xyz.mst.n.o.chk"
 -----------------------------------------
 SET_328_BBB23_conf1_geo_060_165.n.pdb.xyz
 -----------------------------------------
 Charge =  0 Multiplicity = 1

                         Standard orientation:
 ---------------------------------------------------------------------
 Center     Atomic      Atomic             Coordinates (Angstroms)
 Number     Number       Type             X           Y           Z
 ---------------------------------------------------------------------
      1          6           0        2.153784   -0.573596   -0.568595
      2          1           0        3.173516   -0.895724   -0.339540
      3          1           0        2.223242    0.284934   -1.244605
      4          1           0        1.665397   -1.387513   -1.116841
      5          6           0        1.395780   -0.217269    0.715184
      6          1           0        1.968350    0.541929    1.263813
      7          1           0        1.360767   -1.100937    1.364668
      8          6           0       -0.044294    0.303306    0.513193
      9          6           0       -0.067036    1.626633   -0.269179
     10          1           0       -1.085523    2.012043   -0.375597
     11          1           0        0.343476    1.496313   -1.276578
     12          1           0        0.530491    2.395428    0.235472
     13          1           0       -0.445849    0.506286    1.517541
     14          6           0       -0.955780   -0.762718   -0.128901
     15          1           0       -0.799453   -1.717039    0.390817
     16          1           0       -0.647888   -0.930914   -1.169124
     17          6           0       -2.447075   -0.414642   -0.094837
     18          1           0       -2.797581   -0.289383    0.935073
     19          1           0       -3.049040   -1.202867   -0.559017
     20          1           0       -2.652189    0.517164   -0.627279
 ---------------------------------------------------------------------

 SCF Done:  E(RB3LYP) =  -237.086173160     A.U. after    7 cycles

 The electronic state is 1-A.
 Alpha  occ. eigenvalues --  -10.18038 -10.17390 -10.17335 -10.16886 -10.16832
 Alpha  occ. eigenvalues --  -10.16685  -0.80719  -0.74233  -0.70499  -0.64412
 Alpha  occ. eigenvalues --   -0.60547  -0.53679  -0.46058  -0.44673  -0.43809
 Alpha  occ. eigenvalues --   -0.41577  -0.38336  -0.37856  -0.37278  -0.36176
 Alpha  occ. eigenvalues --   -0.35054  -0.33067  -0.31035  -0.30719  -0.30147
 Alpha virt. eigenvalues --    0.08483   0.11623   0.12399   0.12830   0.15144
 Alpha virt. eigenvalues --    0.16026   0.16213   0.17294   0.18036   0.18705
 Alpha virt. eigenvalues --    0.19046   0.21186   0.22731   0.23565   0.24333

 Mulliken charges:
               1
     1  C   -0.453657
     2  H    0.142006
     3  H    0.146204
     4  H    0.146487
     5  C   -0.252712
     6  H    0.127118
     7  H    0.128144
     8  C   -0.057357
     9  C   -0.457128
    10  H    0.144671
    11  H    0.143236
    12  H    0.139225
    13  H    0.115969
    14  C   -0.249888
    15  H    0.127924
    16  H    0.131734
    17  C   -0.452200
    18  H    0.141647
    19  H    0.141650
    20  H    0.146928
 Sum of Mulliken charges =   0.00000

 Dipole moment (field-independent basis, Debye):
    X=              0.0018    Y=             -0.0322    Z=              0.0564  Tot=              0.0650
 Quadrupole moment (field-independent basis, Debye-Ang):
   XX=            -41.9326   YY=            -41.4909   ZZ=            -41.3398
   XY=              0.1532   XZ=              0.1400   YZ=              0.0202

 Normal termination of Gaussian 09 at Fri Nov 13 03:26:32 2020.
