 Gaussian 09, Revision D.01,

 -----------------
 #p b3lyp/6-31G(d)
 -----------------

 ------------------------------------------
 SET_328_BBB304_conf1_geo_210_060.n.pdb.xyz
 ------------------------------------------
 Symbolic Z-matrix:
 Charge =  0 Multiplicity = 1

 SCF Done:  E(RB3LYP) =  -740.712408279     A.U. after   15 cycles
 Normal termination of Gaussian 09 at Fri Nov 13 03:27:33 2020.
 Gaussian 09:  AM64L-G09RevD.01 24-Apr-2013

 ----------------------------------------------------------------------
 #p b3lyp/6-31G(d) scrf=(iefpcm,read,solvent=n-Octanol) geom=allcheck g
 uess=read
 ----------------------------------------------------------------------

 Structure from the checkpoint file:  "SET_328_BBB304_conf1_geo_210_060.n.pdb.xyz.mst.n.o.chk"
 ------------------------------------------
 SET_328_BBB304_conf1_geo_210_060.n.pdb.xyz
 ------------------------------------------
 Charge =  0 Multiplicity = 1

                         Standard orientation:
 ---------------------------------------------------------------------
 Center     Atomic      Atomic             Coordinates (Angstroms)
 Number     Number       Type             X           Y           Z
 ---------------------------------------------------------------------
      1          7           0       -4.657271   -0.838133    0.117575
      2          1           0       -4.962833   -1.799191    0.148932
      3          1           0       -5.330203   -0.140748   -0.171925
      4          6           0       -3.342647   -0.532179    0.017718
      5          6           0       -2.361420   -1.550894    0.233608
      6          6           0       -1.059004   -1.170626    0.139706
      7          1           0       -0.226230   -1.852750    0.252223
      8          1           0       -2.632673   -2.575458    0.446863
      9          7           0       -3.030934    0.728637   -0.262173
     10          6           0       -1.726501    1.111305   -0.336887
     11          8           0       -1.352688    2.262917   -0.573059
     12          7           0       -0.727917    0.116040   -0.129872
     13          6           0        0.677339    0.561994   -0.239722
     14          8           0        1.518741   -0.565625   -0.419118
     15          1           0        0.715694    1.197953   -1.125107
     16          6           0        1.185187    1.299577    1.012204
     17          1           0        0.615443    0.962627    1.883770
     18          1           0        1.058785    2.376768    0.919155
     19          6           0        2.640762    0.837499    1.102942
     20          1           0        3.048724    0.894707    2.113690
     21          1           0        3.284278    1.414812    0.432095
     22          6           0        2.562853   -0.594482    0.589017
     23          1           0        2.266341   -1.286441    1.389293
     24          6           0        3.817145   -1.118050   -0.093003
     25          1           0        3.646207   -2.154846   -0.419563
     26          1           0        4.642690   -1.122381    0.621971
     27          8           0        4.207881   -0.295191   -1.177998
     28          1           0        3.432873   -0.242535   -1.762205
 ---------------------------------------------------------------------

 SCF Done:  E(RB3LYP) =  -740.738785737     A.U. after   11 cycles

 The electronic state is 1-A.
 Alpha  occ. eigenvalues --  -19.17081 -19.14692 -19.10015 -14.38974 -14.35774
 Alpha  occ. eigenvalues --  -14.31037 -10.30187 -10.28230 -10.27905 -10.24970
 Alpha  occ. eigenvalues --  -10.24457 -10.23406 -10.19357 -10.19261 -10.18984
 Alpha  occ. eigenvalues --   -1.06834  -1.03699  -1.01807  -0.96715  -0.94495
 Alpha  occ. eigenvalues --   -0.87216  -0.79831  -0.79018  -0.75654  -0.68663
 Alpha  occ. eigenvalues --   -0.65854  -0.64096  -0.61250  -0.58791  -0.56482
 Alpha  occ. eigenvalues --   -0.53458  -0.52202  -0.51748  -0.50173  -0.48976
 Alpha  occ. eigenvalues --   -0.47362  -0.45911  -0.44872  -0.44068  -0.43535
 Alpha  occ. eigenvalues --   -0.42113  -0.40692  -0.40238  -0.38905  -0.36530
 Alpha  occ. eigenvalues --   -0.36031  -0.35546  -0.34243  -0.33622  -0.32980
 Alpha  occ. eigenvalues --   -0.28804  -0.27244  -0.26791  -0.25392  -0.24546
 Alpha  occ. eigenvalues --   -0.22622
 Alpha virt. eigenvalues --   -0.02648   0.02084   0.07354   0.08891   0.09488
 Alpha virt. eigenvalues --    0.10566   0.11688   0.12110   0.13401   0.14339
 Alpha virt. eigenvalues --    0.14799   0.15050   0.15813   0.17144   0.17375

 Mulliken charges:
               1
     1  N   -0.776537
     2  H    0.366680
     3  H    0.364154
     4  C    0.527681
     5  C   -0.237243
     6  C    0.110488
     7  H    0.197325
     8  H    0.157974
     9  N   -0.600592
    10  C    0.704391
    11  O   -0.583805
    12  N   -0.499437
    13  C    0.311923
    14  O   -0.546361
    15  H    0.169857
    16  C   -0.314732
    17  H    0.158277
    18  H    0.179215
    19  C   -0.305501
    20  H    0.160868
    21  H    0.166400
    22  C    0.124369
    23  H    0.136874
    24  C   -0.047208
    25  H    0.139475
    26  H    0.156534
    27  O   -0.634685
    28  H    0.413616
 Sum of Mulliken charges =   0.00000

 Dipole moment (field-independent basis, Debye):
    X=             -1.1262    Y=             -6.9073    Z=              2.6224  Tot=              7.4737
 Quadrupole moment (field-independent basis, Debye-Ang):
   XX=            -76.0612   YY=            -90.2018   ZZ=            -85.9159
   XY=             16.7660   XZ=              5.4914   YZ=              1.3874

 Normal termination of Gaussian 09 at Fri Nov 13 03:29:08 2020.
