 Gaussian 09, Revision D.01,

 -----------------
 #p b3lyp/6-31G(d)
 -----------------

 ------------------------------------------
 SET_328_BBB277_conf1_geo_210_285.n.pdb.xyz
 ------------------------------------------
 Symbolic Z-matrix:
 Charge =  0 Multiplicity = 1

 SCF Done:  E(RB3LYP) =  -899.140333248     A.U. after   15 cycles
 Normal termination of Gaussian 09 at Fri Nov 13 03:28:00 2020.
 Gaussian 09:  AM64L-G09RevD.01 24-Apr-2013

 ----------------------------------------------------------------------
 #p b3lyp/6-31G(d) scrf=(iefpcm,read,solvent=n-Octanol) geom=allcheck g
 uess=read
 ----------------------------------------------------------------------

 Structure from the checkpoint file:  "SET_328_BBB277_conf1_geo_210_285.n.pdb.xyz.mst.n.o.chk"
 ------------------------------------------
 SET_328_BBB277_conf1_geo_210_285.n.pdb.xyz
 ------------------------------------------
 Charge =  0 Multiplicity = 1

                         Standard orientation:
 ---------------------------------------------------------------------
 Center     Atomic      Atomic             Coordinates (Angstroms)
 Number     Number       Type             X           Y           Z
 ---------------------------------------------------------------------
      1          6           0        2.682803    2.668504    0.580841
      2          1           0        3.415083    3.073900   -0.123655
      3          1           0        3.135609    2.726958    1.575180
      4          1           0        1.797749    3.308918    0.566144
      5          6           0        2.328041    1.253813    0.235171
      6          6           0        3.396346    0.265533    0.201109
      7          7           0        2.975775   -1.025384   -0.155477
      8          6           0        1.694827   -1.447978   -0.454574
      9          8           0        1.415332   -2.602252   -0.757058
     10          1           0        3.692739   -1.740674   -0.199008
     11          8           0        4.578010    0.483609    0.445508
     12          6           0        1.068367    0.854196   -0.061370
     13          1           0        0.230310    1.537842   -0.088241
     14          7           0        0.739730   -0.445343   -0.378693
     15          6           0       -0.650986   -0.852320   -0.715631
     16          8           0       -1.449577    0.299987   -0.902028
     17          1           0       -0.584029   -1.391523   -1.661107
     18          6           0       -1.316205   -1.696550    0.386108
     19          1           0       -0.807156   -1.545705    1.340816
     20          1           0       -1.304422   -2.759670    0.150996
     21          6           0       -2.712482   -1.089102    0.487933
     22          9           0       -3.237417   -1.184678    1.770546
     23          1           0       -3.422489   -1.563313   -0.196471
     24          6           0       -2.469849    0.372701    0.108520
     25          1           0       -2.089040    0.897312    0.997984
     26          6           0       -3.683322    1.106434   -0.442456
     27          1           0       -4.509243    0.977098    0.270317
     28          1           0       -3.976039    0.642627   -1.389848
     29          8           0       -3.433531    2.473545   -0.725457
     30          1           0       -3.357966    2.942932    0.119550
 ---------------------------------------------------------------------

 SCF Done:  E(RB3LYP) =  -899.164201876     A.U. after   11 cycles

 The electronic state is 1-A.
 Alpha  occ. eigenvalues --  -24.69178 -19.18281 -19.15256 -19.13346 -19.12573
 Alpha  occ. eigenvalues --  -14.40494 -14.38859 -10.33875 -10.30270 -10.30037
 Alpha  occ. eigenvalues --  -10.27994 -10.25515 -10.25361 -10.24323 -10.20657
 Alpha  occ. eigenvalues --  -10.20577 -10.18842  -1.19897  -1.08736  -1.07042
 Alpha  occ. eigenvalues --   -1.04075  -1.02467  -0.97675  -0.92927  -0.82032
 Alpha  occ. eigenvalues --   -0.80644  -0.78048  -0.71441  -0.69406  -0.67730
 Alpha  occ. eigenvalues --   -0.64716  -0.62604  -0.60493  -0.57051  -0.54882
 Alpha  occ. eigenvalues --   -0.53645  -0.52763  -0.51532  -0.50795  -0.48738
 Alpha  occ. eigenvalues --   -0.47326  -0.46568  -0.45489  -0.45099  -0.44244
 Alpha  occ. eigenvalues --   -0.43101  -0.42405  -0.41859  -0.41493  -0.40399
 Alpha  occ. eigenvalues --   -0.39551  -0.38886  -0.38478  -0.37371  -0.35855
 Alpha  occ. eigenvalues --   -0.34819  -0.34153  -0.32478  -0.30392  -0.29168
 Alpha  occ. eigenvalues --   -0.28505  -0.27532  -0.26373  -0.23360
 Alpha virt. eigenvalues --   -0.03407   0.00965   0.05870   0.08041   0.08721
 Alpha virt. eigenvalues --    0.09869   0.10498   0.11201   0.11515   0.11976
 Alpha virt. eigenvalues --    0.12778   0.13476   0.14690   0.15165   0.16208

 Mulliken charges:
               1
     1  C   -0.512682
     2  H    0.172947
     3  H    0.171869
     4  H    0.157998
     5  C    0.040349
     6  C    0.590863
     7  N   -0.711279
     8  C    0.804849
     9  O   -0.548733
    10  H    0.370838
    11  O   -0.537940
    12  C    0.044997
    13  H    0.199987
    14  N   -0.530069
    15  C    0.302683
    16  O   -0.515710
    17  H    0.185935
    18  C   -0.365332
    19  H    0.180516
    20  H    0.195985
    21  C    0.191938
    22  F   -0.323165
    23  H    0.156390
    24  C    0.087879
    25  H    0.143220
    26  C   -0.050632
    27  H    0.149359
    28  H    0.160602
    29  O   -0.630644
    30  H    0.416979
 Sum of Mulliken charges =   0.00000

 Dipole moment (field-independent basis, Debye):
    X=             -4.7541    Y=              0.9535    Z=              1.2308  Tot=              5.0026
 Quadrupole moment (field-independent basis, Debye-Ang):
   XX=           -112.8045   YY=            -98.7591   ZZ=           -101.0812
   XY=             -0.9121   XZ=             -4.3520   YZ=              6.0716

 Normal termination of Gaussian 09 at Fri Nov 13 03:30:02 2020.
