 Gaussian 09, Revision D.01,

 -----------------
 #p b3lyp/6-31G(d)
 -----------------

 ----------------------------------------
 SET_328_BBB2_conf1_geo_225_285.n.pdb.xyz
 ----------------------------------------
 Symbolic Z-matrix:
 Charge =  0 Multiplicity = 1

 SCF Done:  E(RB3LYP) =  -1633.18856228     A.U. after   15 cycles
 Normal termination of Gaussian 09 at Fri Nov 13 03:29:59 2020.
 Gaussian 09:  AM64L-G09RevD.01 24-Apr-2013

 ----------------------------------------------------------------------
 #p b3lyp/6-31G(d) scrf=(iefpcm,read,solvent=n-Octanol) geom=allcheck g
 uess=read
 ----------------------------------------------------------------------

 Structure from the checkpoint file:  "SET_328_BBB2_conf1_geo_225_285.n.pdb.xyz.mst.n.o.chk"
 ----------------------------------------
 SET_328_BBB2_conf1_geo_225_285.n.pdb.xyz
 ----------------------------------------
 Charge =  0 Multiplicity = 1

                         Standard orientation:
 ---------------------------------------------------------------------
 Center     Atomic      Atomic             Coordinates (Angstroms)
 Number     Number       Type             X           Y           Z
 ---------------------------------------------------------------------
      1          6           0        5.281818   -0.747851   -1.046096
      2          1           0        5.388750    0.229650   -0.550442
      3          1           0        5.328683   -0.578361   -2.127044
      4          1           0        6.138664   -1.367083   -0.764812
      5          7           0        4.054996   -1.467809   -0.729254
      6          1           0        4.050388   -1.679056    0.264204
      7          6           0        2.799603   -0.766355   -1.080980
      8          6           0        2.484663    0.404661   -0.148069
      9          6           0        1.571479    0.275470    0.916337
     10          6           0        1.402852    1.347283    1.805601
     11          6           0        2.102963    2.538648    1.649026
     12          6           0        2.981564    2.684190    0.574149
     13          6           0        3.162807    1.624860   -0.311505
     14          1           0        3.838337    1.740190   -1.152342
     15          1           0        3.518640    3.614860    0.426128
     16          1           0        1.955339    3.352057    2.349536
     17          1           0        0.698983    1.242414    2.626204
     18          1           0        2.959178   -0.376381   -2.093806
     19          6           0        1.652381   -1.784601   -1.107268
     20          1           0        1.982826   -2.662955   -1.668682
     21          1           0        0.791359   -1.361440   -1.636133
     22          6           0        1.241291   -2.182655    0.310458
     23          1           0        2.102139   -2.612470    0.835237
     24          1           0        0.474664   -2.962021    0.287692
     25          6           0        0.715455   -0.970409    1.113737
     26          1           0        0.749296   -1.239737    2.174197
     27          6           0       -0.756170   -0.714873    0.799122
     28          6           0       -1.163337    0.192815   -0.180003
     29          1           0       -0.429864    0.787898   -0.709363
     30          6           0       -2.515265    0.367057   -0.478929
     31         17           0       -2.956907    1.519542   -1.719143
     32          6           0       -3.486444   -0.365434    0.209406
     33         17           0       -5.190639   -0.171125   -0.127283
     34          6           0       -3.090356   -1.267839    1.196797
     35          1           0       -3.847209   -1.825167    1.734929
     36          6           0       -1.740473   -1.437053    1.484929
     37          1           0       -1.445830   -2.138312    2.258239
 ---------------------------------------------------------------------

 SCF Done:  E(RB3LYP) =  -1633.20913807     A.U. after   10 cycles

 The electronic state is 1-A.
 Alpha  occ. eigenvalues -- -101.55843-101.55803 -14.31708 -10.26615 -10.26470
 Alpha  occ. eigenvalues --  -10.21541 -10.21297 -10.21258 -10.20862 -10.20553
 Alpha  occ. eigenvalues --  -10.20474 -10.19795 -10.19745 -10.19365 -10.18955
 Alpha  occ. eigenvalues --  -10.18898 -10.18834 -10.18817 -10.18733 -10.17862
 Alpha  occ. eigenvalues --   -9.47460  -9.47421  -7.23870  -7.23830  -7.22890
 Alpha  occ. eigenvalues --   -7.22852  -7.22841  -7.22801  -0.91752  -0.90575
 Alpha  occ. eigenvalues --   -0.86482  -0.86092  -0.84470  -0.80905  -0.76989
 Alpha  occ. eigenvalues --   -0.75108  -0.74071  -0.73881  -0.70884  -0.66063
 Alpha  occ. eigenvalues --   -0.63322  -0.62657  -0.60952  -0.60256  -0.58980
 Alpha  occ. eigenvalues --   -0.54413  -0.51995  -0.50829  -0.49413  -0.47742
 Alpha  occ. eigenvalues --   -0.47492  -0.46728  -0.46232  -0.44246  -0.44160
 Alpha  occ. eigenvalues --   -0.43675  -0.43054  -0.42190  -0.41761  -0.40418
 Alpha  occ. eigenvalues --   -0.39906  -0.38943  -0.38247  -0.37757  -0.37534
 Alpha  occ. eigenvalues --   -0.36280  -0.35356  -0.35035  -0.34912  -0.33648
 Alpha  occ. eigenvalues --   -0.33375  -0.32746  -0.31630  -0.31441  -0.31045
 Alpha  occ. eigenvalues --   -0.26270  -0.25015  -0.24906  -0.24041  -0.21624
 Alpha virt. eigenvalues --   -0.02504  -0.02101  -0.00813  -0.00068   0.00365
 Alpha virt. eigenvalues --    0.05979   0.08704   0.09729   0.10689   0.11530
 Alpha virt. eigenvalues --    0.12267   0.13183   0.13882   0.14522   0.15131

 Mulliken charges:
               1
     1  C   -0.309070
     2  H    0.133239
     3  H    0.149844
     4  H    0.151531
     5  N   -0.549402
     6  H    0.308049
     7  C   -0.059378
     8  C    0.108095
     9  C    0.088599
    10  C   -0.178912
    11  C   -0.139465
    12  C   -0.138721
    13  C   -0.196563
    14  H    0.138258
    15  H    0.139082
    16  H    0.139081
    17  H    0.134811
    18  H    0.138970
    19  C   -0.266239
    20  H    0.145607
    21  H    0.140055
    22  C   -0.285783
    23  H    0.146814
    24  H    0.147531
    25  C   -0.252362
    26  H    0.153556
    27  C    0.173817
    28  C   -0.176543
    29  H    0.167786
    30  C   -0.081208
    31  Cl  -0.001912
    32  C   -0.080670
    33  Cl  -0.002028
    34  C   -0.131727
    35  H    0.170955
    36  C   -0.179204
    37  H    0.153507
 Sum of Mulliken charges =   0.00000

 Dipole moment (field-independent basis, Debye):
    X=              3.0784    Y=             -0.9852    Z=              2.4753  Tot=              4.0712
 Quadrupole moment (field-independent basis, Debye-Ang):
   XX=           -137.6180   YY=           -127.9782   ZZ=           -126.8674
   XY=              8.2040   XZ=             -4.5333   YZ=             -4.3404

 Normal termination of Gaussian 09 at Fri Nov 13 03:33:32 2020.
