 Gaussian 09, Revision D.01,

 -----------------
 #p b3lyp/6-31G(d)
 -----------------

 -----------------------------------------
 SET_328_BBB23_conf1_geo_300_180.n.pdb.xyz
 -----------------------------------------
 Symbolic Z-matrix:
 Charge =  0 Multiplicity = 1

 SCF Done:  E(RB3LYP) =  -237.082794308     A.U. after   12 cycles
 Normal termination of Gaussian 09 at Fri Nov 13 03:26:11 2020.
 Gaussian 09:  AM64L-G09RevD.01 24-Apr-2013

 ----------------------------------------------------------------------
 #p b3lyp/6-31G(d) scrf=(iefpcm,read,solvent=n-Octanol) geom=allcheck g
 uess=read
 ----------------------------------------------------------------------

 Structure from the checkpoint file:  "SET_328_BBB23_conf1_geo_300_180.n.pdb.xyz.mst.n.o.chk"
 -----------------------------------------
 SET_328_BBB23_conf1_geo_300_180.n.pdb.xyz
 -----------------------------------------
 Charge =  0 Multiplicity = 1

                         Standard orientation:
 ---------------------------------------------------------------------
 Center     Atomic      Atomic             Coordinates (Angstroms)
 Number     Number       Type             X           Y           Z
 ---------------------------------------------------------------------
      1          6           0       -2.265551   -0.854900   -0.177441
      2          1           0       -1.841066   -1.770503    0.245941
      3          1           0       -2.289935   -0.972891   -1.265780
      4          1           0       -3.299540   -0.780495    0.171823
      5          6           0       -1.462793    0.382447    0.222913
      6          1           0       -1.478662    0.492744    1.315669
      7          1           0       -1.963184    1.273508   -0.177210
      8          6           0       -0.001502    0.388393   -0.256892
      9          6           0        0.620389    1.772642   -0.026560
     10          1           0        0.639444    2.014758    1.041785
     11          1           0        0.037110    2.549214   -0.531827
     12          1           0        1.647484    1.829821   -0.399805
     13          1           0       -0.009144    0.194692   -1.339960
     14          6           0        0.820731   -0.727345    0.413340
     15          1           0        0.275091   -1.673670    0.326552
     16          1           0        0.890655   -0.514033    1.487328
     17          6           0        2.225662   -0.916819   -0.163897
     18          1           0        2.183774   -1.150894   -1.232062
     19          1           0        2.746667   -1.739975    0.334094
     20          1           0        2.839694   -0.018778   -0.045324
 ---------------------------------------------------------------------

 SCF Done:  E(RB3LYP) =  -237.087329256     A.U. after    7 cycles

 The electronic state is 1-A.
 Alpha  occ. eigenvalues --  -10.17949 -10.17322 -10.17277 -10.16872 -10.16870
 Alpha  occ. eigenvalues --  -10.16683  -0.80873  -0.74291  -0.70968  -0.63687
 Alpha  occ. eigenvalues --   -0.60430  -0.54854  -0.45883  -0.44273  -0.43478
 Alpha  occ. eigenvalues --   -0.41216  -0.40382  -0.37879  -0.36296  -0.35899
 Alpha  occ. eigenvalues --   -0.34587  -0.33725  -0.31348  -0.30573  -0.30320
 Alpha virt. eigenvalues --    0.08982   0.11080   0.12214   0.12834   0.15586
 Alpha virt. eigenvalues --    0.15877   0.16842   0.17293   0.17995   0.18530
 Alpha virt. eigenvalues --    0.19118   0.19685   0.22474   0.23662   0.25281

 Mulliken charges:
               1
     1  C   -0.452858
     2  H    0.147557
     3  H    0.142036
     4  H    0.142184
     5  C   -0.247156
     6  H    0.126680
     7  H    0.127834
     8  C   -0.056919
     9  C   -0.454254
    10  H    0.138447
    11  H    0.139718
    12  H    0.144192
    13  H    0.114707
    14  C   -0.250640
    15  H    0.133981
    16  H    0.126426
    17  C   -0.451776
    18  H    0.141979
    19  H    0.141606
    20  H    0.146256
 Sum of Mulliken charges =   0.00000

 Dipole moment (field-independent basis, Debye):
    X=             -0.0480    Y=             -0.0286    Z=             -0.0139  Tot=              0.0575
 Quadrupole moment (field-independent basis, Debye-Ang):
   XX=            -41.9218   YY=            -41.7904   ZZ=            -41.1490
   XY=             -0.2006   XZ=              0.1199   YZ=             -0.1485

 Normal termination of Gaussian 09 at Fri Nov 13 03:26:33 2020.
