 Gaussian 09, Revision D.01,

 -----------------
 #p b3lyp/6-31G(d)
 -----------------

 ----------------------------------------
 SET_328_BBB2_conf1_geo_240_195.n.pdb.xyz
 ----------------------------------------
 Symbolic Z-matrix:
 Charge =  0 Multiplicity = 1

 SCF Done:  E(RB3LYP) =  -1633.19149264     A.U. after   15 cycles
 Normal termination of Gaussian 09 at Fri Nov 13 03:29:49 2020.
 Gaussian 09:  AM64L-G09RevD.01 24-Apr-2013

 ----------------------------------------------------------------------
 #p b3lyp/6-31G(d) scrf=(iefpcm,read,solvent=n-Octanol) geom=allcheck g
 uess=read
 ----------------------------------------------------------------------

 Structure from the checkpoint file:  "SET_328_BBB2_conf1_geo_240_195.n.pdb.xyz.mst.n.o.chk"
 ----------------------------------------
 SET_328_BBB2_conf1_geo_240_195.n.pdb.xyz
 ----------------------------------------
 Charge =  0 Multiplicity = 1

                         Standard orientation:
 ---------------------------------------------------------------------
 Center     Atomic      Atomic             Coordinates (Angstroms)
 Number     Number       Type             X           Y           Z
 ---------------------------------------------------------------------
      1          6           0       -5.439632   -1.781062    1.108058
      2          1           0       -6.522461   -1.652428    1.029289
      3          1           0       -5.177690   -1.784298    2.170871
      4          1           0       -5.182575   -2.770659    0.700195
      5          7           0       -4.776059   -0.657019    0.456630
      6          1           0       -5.087891   -0.588153   -0.512564
      7          6           0       -3.312870   -0.737107    0.481039
      8          6           0       -2.697243    0.576400    0.006287
      9          6           0       -1.448886    0.622285   -0.641868
     10          6           0       -0.942191    1.864911   -1.047507
     11          6           0       -1.638249    3.046609   -0.814535
     12          6           0       -2.871471    3.001076   -0.162406
     13          6           0       -3.388783    1.772471    0.239143
     14          1           0       -4.351652    1.705210    0.731155
     15          1           0       -3.426923    3.914180    0.028606
     16          1           0       -1.221344    3.994584   -1.138488
     17          1           0        0.018658    1.900487   -1.552671
     18          1           0       -3.046094   -0.866282    1.542373
     19          6           0       -2.718031   -1.928868   -0.282508
     20          1           0       -3.061311   -1.898574   -1.325547
     21          1           0       -3.086698   -2.864023    0.147985
     22          6           0       -1.194012   -1.881135   -0.232090
     23          1           0       -0.751657   -2.782003   -0.668834
     24          1           0       -0.867479   -1.847690    0.814242
     25          6           0       -0.658649   -0.642952   -0.979037
     26          1           0       -0.801796   -0.833629   -2.051129
     27          6           0        0.840287   -0.500132   -0.770030
     28          6           0        1.362403   -0.075670    0.456297
     29          1           0        0.700940    0.210337    1.265089
     30          6           0        2.737314    0.000771    0.660655
     31         17           0        3.326264    0.540388    2.217879
     32          6           0        3.621701   -0.348251   -0.366795
     33         17           0        5.354320   -0.263007   -0.152170
     34          6           0        3.111055   -0.769988   -1.593011
     35          1           0        3.798526   -1.035045   -2.387463
     36          6           0        1.734062   -0.843544   -1.788185
     37          1           0        1.349110   -1.173253   -2.747609
 ---------------------------------------------------------------------

 SCF Done:  E(RB3LYP) =  -1633.21191712     A.U. after   10 cycles

 The electronic state is 1-A.
 Alpha  occ. eigenvalues -- -101.55886-101.55841 -14.31733 -10.26697 -10.26547
 Alpha  occ. eigenvalues --  -10.21539 -10.21295 -10.21269 -10.21015 -10.20530
 Alpha  occ. eigenvalues --  -10.20508 -10.19934 -10.19592 -10.19117 -10.18827
 Alpha  occ. eigenvalues --  -10.18613 -10.18515 -10.18473 -10.18049 -10.17962
 Alpha  occ. eigenvalues --   -9.47503  -9.47460  -7.23913  -7.23870  -7.22932
 Alpha  occ. eigenvalues --   -7.22891  -7.22883  -7.22839  -0.91808  -0.90738
 Alpha  occ. eigenvalues --   -0.86488  -0.86131  -0.84386  -0.80972  -0.77084
 Alpha  occ. eigenvalues --   -0.75082  -0.73963  -0.73646  -0.70481  -0.66516
 Alpha  occ. eigenvalues --   -0.63214  -0.62219  -0.61024  -0.60244  -0.58060
 Alpha  occ. eigenvalues --   -0.55657  -0.52007  -0.51006  -0.49326  -0.47545
 Alpha  occ. eigenvalues --   -0.47264  -0.46829  -0.45569  -0.44488  -0.44110
 Alpha  occ. eigenvalues --   -0.43740  -0.42466  -0.42161  -0.41594  -0.39938
 Alpha  occ. eigenvalues --   -0.39485  -0.39092  -0.38748  -0.37554  -0.37481
 Alpha  occ. eigenvalues --   -0.36506  -0.35419  -0.35075  -0.34401  -0.34133
 Alpha  occ. eigenvalues --   -0.33342  -0.33044  -0.32240  -0.31236  -0.30920
 Alpha  occ. eigenvalues --   -0.26214  -0.24990  -0.24339  -0.23676  -0.21768
 Alpha virt. eigenvalues --   -0.02455  -0.02157  -0.00548   0.00111   0.00436
 Alpha virt. eigenvalues --    0.05900   0.09221   0.10263   0.10539   0.10940
 Alpha virt. eigenvalues --    0.12154   0.12937   0.13578   0.14449   0.15422

 Mulliken charges:
               1
     1  C   -0.307055
     2  H    0.153409
     3  H    0.152736
     4  H    0.132040
     5  N   -0.561759
     6  H    0.308129
     7  C   -0.018325
     8  C    0.061155
     9  C    0.110021
    10  C   -0.194651
    11  C   -0.138845
    12  C   -0.142562
    13  C   -0.181010
    14  H    0.145743
    15  H    0.134737
    16  H    0.135736
    17  H    0.133799
    18  H    0.144979
    19  C   -0.284568
    20  H    0.135584
    21  H    0.145246
    22  C   -0.276578
    23  H    0.145699
    24  H    0.144677
    25  C   -0.244129
    26  H    0.157039
    27  C    0.175616
    28  C   -0.172289
    29  H    0.165929
    30  C   -0.078850
    31  Cl  -0.001423
    32  C   -0.080477
    33  Cl  -0.000789
    34  C   -0.131332
    35  H    0.171314
    36  C   -0.193605
    37  H    0.154665
 Sum of Mulliken charges =   0.00000

 Dipole moment (field-independent basis, Debye):
    X=             -3.2408    Y=             -2.2048    Z=             -2.5778  Tot=              4.6913
 Quadrupole moment (field-independent basis, Debye-Ang):
   XX=           -138.0236   YY=           -126.4443   ZZ=           -127.2231
   XY=              4.6441   XZ=             -4.7114   YZ=              1.1747

 Normal termination of Gaussian 09 at Fri Nov 13 03:33:08 2020.
