 Gaussian 09, Revision D.01,

 -----------------
 #p b3lyp/6-31G(d)
 -----------------

 ------------------------------------------
 SET_328_BBB181_conf1_geo_180_075.n.pdb.xyz
 ------------------------------------------
 Symbolic Z-matrix:
 Charge =  0 Multiplicity = 1

 SCF Done:  E(RB3LYP) =  -233.661161332     A.U. after   12 cycles

 1\1\GINC-PIRINEUS8\SP\RB3LYP\6-31G(d)\C4H10O1\UBAFAR01\13-Nov-2020\0\\
 #p b3lyp/6-31G(d)\\SET_328_BBB181_conf1_geo_180_075.n.pdb.xyz\\0,1\C,0
 ,0.742,-1.898,-0.644\H,0,1.636,-1.269,-0.648\H,0,0.841,-2.626,-1.455\H
 ,0,0.712,-2.442,0.304\C,0,-0.529,-1.073,-0.826\H,0,-1.403,-1.732,-0.84
 4\H,0,-0.5,-0.531,-1.784\O,0,-0.767,-0.156,0.234\C,0,0.063,0.997,0.189
 \H,0,-0.019,1.47,-0.803\H,0,1.119,0.725,0.332\C,0,-0.389,1.952,1.278\H
 ,0,-0.301,1.484,2.263\H,0,-1.432,2.243,1.13\H,0,0.226,2.857,1.273\\Ver
 sion=AM64L-G09RevD.01\State=1-A\HF=-233.6611613\RMSD=6.637e-09\Dipole=

 Normal termination of Gaussian 09 at Fri Nov 13 03:26:02 2020.
 Gaussian 09:  AM64L-G09RevD.01 24-Apr-2013

 ----------------------------------------------------------------------
 #p b3lyp/6-31G(d) scrf=(iefpcm,read,solvent=n-Octanol) geom=allcheck g
 uess=read
 ----------------------------------------------------------------------

 Structure from the checkpoint file:  "SET_328_BBB181_conf1_geo_180_075.n.pdb.xyz.mst.n.o.chk"
 ------------------------------------------
 SET_328_BBB181_conf1_geo_180_075.n.pdb.xyz
 ------------------------------------------
 Charge =  0 Multiplicity = 1

                         Standard orientation:
 ---------------------------------------------------------------------
 Center     Atomic      Atomic             Coordinates (Angstroms)
 Number     Number       Type             X           Y           Z
 ---------------------------------------------------------------------
      1          6           0       -2.085239    0.604939   -0.163416
      2          1           0       -1.670442    1.518245    0.270989
      3          1           0       -3.107634    0.490897    0.209691
      4          1           0       -2.127909    0.732275   -1.248545
      5          6           0       -1.250696   -0.620848    0.197379
      6          1           0       -1.704855   -1.520987   -0.229200
      7          1           0       -1.214171   -0.751312    1.290089
      8          8           0        0.071776   -0.580145   -0.322760
      9          6           0        0.937732    0.296039    0.386291
     10          1           0        0.915081    0.045790    1.459315
     11          1           0        0.603627    1.339412    0.289771
     12          6           0        2.339202    0.135921   -0.172721
     13          1           0        2.362155    0.390940   -1.236409
     14          1           0        2.685746   -0.894536   -0.060922
     15          1           0        3.038199    0.794132    0.352099
 ---------------------------------------------------------------------

 SCF Done:  E(RB3LYP) =  -233.666351848     A.U. after    9 cycles

 The electronic state is 1-A.
 Alpha  occ. eigenvalues --  -19.14022 -10.22635 -10.22591 -10.17359 -10.17308
 Alpha  occ. eigenvalues --   -1.02276  -0.76797  -0.72482  -0.63032  -0.58825
 Alpha  occ. eigenvalues --   -0.48831  -0.46722  -0.46182  -0.41211  -0.38945
 Alpha  occ. eigenvalues --   -0.38588  -0.37140  -0.35589  -0.34097  -0.30616
 Alpha  occ. eigenvalues --   -0.24920
 Alpha virt. eigenvalues --    0.09404   0.11843   0.12657   0.14246   0.15179
 Alpha virt. eigenvalues --    0.16814   0.17506   0.18306   0.19142   0.19505
 Alpha virt. eigenvalues --    0.22024   0.24095   0.24998   0.26650   0.50285

 Mulliken charges:
               1
     1  C   -0.461854
     2  H    0.153841
     3  H    0.148057
     4  H    0.154176
     5  C   -0.018682
     6  H    0.143136
     7  H    0.123707
     8  O   -0.480573
     9  C   -0.012519
    10  H    0.121968
    11  H    0.127675
    12  C   -0.455859
    13  H    0.154612
    14  H    0.154060
    15  H    0.148256
 Sum of Mulliken charges =   0.00000

 Dipole moment (field-independent basis, Debye):
    X=             -0.4144    Y=              0.8301    Z=              1.0492  Tot=              1.4006
 Quadrupole moment (field-independent basis, Debye-Ang):
   XX=            -30.3599   YY=            -33.2287   ZZ=            -33.1254
   XY=              1.2504   XZ=              0.3082   YZ=             -0.4528

 1\1\GINC-PIRINEUS8\SP\RB3LYP\6-31G(d)\C4H10O1\UBAFAR01\13-Nov-2020\0\\
 #p b3lyp/6-31G(d) scrf=(iefpcm,read,solvent=n-Octanol) geom=allcheck g
 uess=read\\SET_328_BBB181_conf1_geo_180_075.n.pdb.xyz\\0,1\C,0,0.742,-
 1.898,-0.644\H,0,1.636,-1.269,-0.648\H,0,0.841,-2.626,-1.455\H,0,0.712
 ,-2.442,0.304\C,0,-0.529,-1.073,-0.826\H,0,-1.403,-1.732,-0.844\H,0,-0
 .5,-0.531,-1.784\O,0,-0.767,-0.156,0.234\C,0,0.063,0.997,0.189\H,0,-0.
 019,1.47,-0.803\H,0,1.119,0.725,0.332\C,0,-0.389,1.952,1.278\H,0,-0.30
 1,1.484,2.263\H,0,-1.432,2.243,1.13\H,0,0.226,2.857,1.273\\Version=AM6

 Normal termination of Gaussian 09 at Fri Nov 13 03:26:17 2020.
