 Gaussian 09, Revision D.01,

 -----------------
 #p b3lyp/6-31G(d)
 -----------------

 ------------------------------------------
 SET_328_BBB212_conf1_geo_300_135.n.pdb.xyz
 ------------------------------------------
 Symbolic Z-matrix:
 Charge =  0 Multiplicity = 1

 SCF Done:  E(RB3LYP) =  -731.666183155     A.U. after   14 cycles
 Normal termination of Gaussian 09 at Fri Nov 13 03:28:25 2020.
 Gaussian 09:  AM64L-G09RevD.01 24-Apr-2013

 ----------------------------------------------------------------------
 #p b3lyp/6-31G(d) scrf=(iefpcm,read,solvent=n-Octanol) geom=allcheck g
 uess=read
 ----------------------------------------------------------------------

 Structure from the checkpoint file:  "SET_328_BBB212_conf1_geo_300_135.n.pdb.xyz.mst.n.o.chk"
 ------------------------------------------
 SET_328_BBB212_conf1_geo_300_135.n.pdb.xyz
 ------------------------------------------
 Charge =  0 Multiplicity = 1

                         Standard orientation:
 ---------------------------------------------------------------------
 Center     Atomic      Atomic             Coordinates (Angstroms)
 Number     Number       Type             X           Y           Z
 ---------------------------------------------------------------------
      1          6           0       -0.044523    2.402141   -1.221992
      2          1           0       -0.932159    3.036775   -1.173898
      3          1           0       -0.086834    1.834815   -2.154880
      4          1           0        0.836904    3.048448   -1.257335
      5          6           0       -0.000847    1.475628    0.006413
      6          6           0        0.040375    2.359525    1.264548
      7          1           0        0.057865    1.753483    2.172874
      8          1           0       -0.826936    3.024708    1.313454
      9          1           0        0.942248    2.976800    1.254306
     10          6           0        1.254847    0.588937    0.004651
     11          6           0        1.480693   -0.290101    1.073177
     12          6           0        2.608987   -1.101621    1.127911
     13          6           0        3.553019   -1.053149    0.096426
     14          8           0        4.681769   -1.823951    0.088169
     15          1           0        4.698594   -2.378023    0.885524
     16          6           0        3.349129   -0.186803   -0.977653
     17          6           0        2.212488    0.621085   -1.014411
     18          1           0        2.076929    1.290340   -1.856759
     19          1           0        4.084073   -0.152070   -1.776005
     20          1           0        2.756613   -1.772519    1.968966
     21          1           0        0.756483   -0.338464    1.879211
     22          6           0       -1.252841    0.584543   -0.011991
     23          6           0       -2.214356    0.611151    1.000621
     24          1           0       -2.081174    1.272097    1.847423
     25          6           0       -3.352570   -0.198480    0.955267
     26          1           0       -4.083844   -0.154519    1.758984
     27          6           0       -3.548173   -1.061453   -0.123720
     28          8           0       -4.633310   -1.883266   -0.237510
     29          1           0       -5.212730   -1.760242    0.533368
     30          6           0       -2.595990   -1.106234   -1.150067
     31          1           0       -2.753322   -1.781854   -1.983178
     32          6           0       -1.470639   -0.294173   -1.084773
     33          1           0       -0.737971   -0.348025   -1.883776
 ---------------------------------------------------------------------

 SCF Done:  E(RB3LYP) =  -731.690144438     A.U. after   10 cycles

 The electronic state is 1-A.
 Alpha  occ. eigenvalues --  -19.17512 -19.17484 -10.24610 -10.24590 -10.20477
 Alpha  occ. eigenvalues --  -10.18691 -10.18656 -10.18638 -10.18608 -10.18604
 Alpha  occ. eigenvalues --  -10.18573 -10.18555 -10.18546 -10.18297 -10.18217
 Alpha  occ. eigenvalues --  -10.17326 -10.17316  -1.05497  -1.05475  -0.86339
 Alpha  occ. eigenvalues --   -0.84407  -0.80484  -0.74647  -0.74452  -0.73064
 Alpha  occ. eigenvalues --   -0.71700  -0.68788  -0.63066  -0.61931  -0.60826
 Alpha  occ. eigenvalues --   -0.59545  -0.55492  -0.54075  -0.53982  -0.49536
 Alpha  occ. eigenvalues --   -0.47843  -0.46277  -0.45287  -0.44486  -0.44320
 Alpha  occ. eigenvalues --   -0.42091  -0.41914  -0.41129  -0.40534  -0.40411
 Alpha  occ. eigenvalues --   -0.40085  -0.39258  -0.37949  -0.37805  -0.37209
 Alpha  occ. eigenvalues --   -0.35358  -0.34896  -0.33669  -0.33228  -0.31819
 Alpha  occ. eigenvalues --   -0.31771  -0.31379  -0.24983  -0.24959  -0.22266
 Alpha  occ. eigenvalues --   -0.20686
 Alpha virt. eigenvalues --   -0.00181  -0.00155   0.01039   0.02423   0.08399
 Alpha virt. eigenvalues --    0.08454   0.09104   0.10808   0.12537   0.12803
 Alpha virt. eigenvalues --    0.14159   0.14551   0.15586   0.15701   0.16185

 Mulliken charges:
               1
     1  C   -0.462113
     2  H    0.150011
     3  H    0.151772
     4  H    0.147914
     5  C   -0.064977
     6  C   -0.462762
     7  H    0.151474
     8  H    0.147751
     9  H    0.150190
    10  C    0.176668
    11  C   -0.195681
    12  C   -0.206320
    13  C    0.346779
    14  O   -0.662823
    15  H    0.430970
    16  C   -0.178310
    17  C   -0.212156
    18  H    0.135041
    19  H    0.136860
    20  H    0.136862
    21  H    0.137443
    22  C    0.177890
    23  C   -0.213781
    24  H    0.135646
    25  C   -0.208435
    26  H    0.135727
    27  C    0.346478
    28  O   -0.662589
    29  H    0.431426
    30  C   -0.175686
    31  H    0.137962
    32  C   -0.195831
    33  H    0.136601
 Sum of Mulliken charges =   0.00000

 Dipole moment (field-independent basis, Debye):
    X=             -1.0411    Y=              0.0449    Z=              2.9005  Tot=              3.0820
 Quadrupole moment (field-independent basis, Debye-Ang):
   XX=            -93.9850   YY=            -97.2643   ZZ=            -92.4382
   XY=             -4.1168   XZ=             -3.8078   YZ=             -6.6360

 Normal termination of Gaussian 09 at Fri Nov 13 03:30:38 2020.
