 Gaussian 09, Revision D.01,

 -----------------
 #p b3lyp/6-31G(d)
 -----------------

 ------------------------------------------
 SET_328_BBB212_conf1_geo_225_060.n.pdb.xyz
 ------------------------------------------
 Symbolic Z-matrix:
 Charge =  0 Multiplicity = 1

 SCF Done:  E(RB3LYP) =  -731.667155958     A.U. after   14 cycles
 Normal termination of Gaussian 09 at Fri Nov 13 03:28:26 2020.
 Gaussian 09:  AM64L-G09RevD.01 24-Apr-2013

 ----------------------------------------------------------------------
 #p b3lyp/6-31G(d) scrf=(iefpcm,read,solvent=n-Octanol) geom=allcheck g
 uess=read
 ----------------------------------------------------------------------

 Structure from the checkpoint file:  "SET_328_BBB212_conf1_geo_225_060.n.pdb.xyz.mst.n.o.chk"
 ------------------------------------------
 SET_328_BBB212_conf1_geo_225_060.n.pdb.xyz
 ------------------------------------------
 Charge =  0 Multiplicity = 1

                         Standard orientation:
 ---------------------------------------------------------------------
 Center     Atomic      Atomic             Coordinates (Angstroms)
 Number     Number       Type             X           Y           Z
 ---------------------------------------------------------------------
      1          6           0        0.061448    2.371219   -1.225846
      2          1           0        0.984525    2.955993   -1.207313
      3          1           0       -0.779866    3.071330   -1.256022
      4          1           0        0.052888    1.784641   -2.147360
      5          6           0       -0.003103    1.462215    0.018807
      6          6           0       -0.075867    2.375712    1.262861
      7          1           0        0.774386    3.065602    1.295654
      8          1           0       -0.084116    1.798808    2.191166
      9          1           0       -0.993360    2.971944    1.228322
     10          6           0        1.255875    0.583293    0.020491
     11          6           0        2.254033    0.656562    0.999299
     12          6           0        3.399342   -0.139143    0.937635
     13          6           0        3.574530   -1.033388   -0.119934
     14          8           0        4.715146   -1.786053   -0.135171
     15          1           0        4.720168   -2.345198   -0.927969
     16          6           0        2.588308   -1.126020   -1.108103
     17          6           0        1.452667   -0.325971   -1.027820
     18          1           0        0.694801   -0.413029   -1.800994
     19          1           0        2.707423   -1.822445   -1.934351
     20          1           0        4.164397   -0.074981    1.704091
     21          1           0        2.153023    1.343724    1.832432
     22          6           0       -1.258083    0.569857    0.004469
     23          6           0       -1.395597   -0.451584    0.956234
     24          1           0       -0.591284   -0.630166    1.661347
     25          6           0       -2.529462   -1.256489    1.012531
     26          1           0       -2.602831   -2.042091    1.760702
     27          6           0       -3.570317   -1.057215    0.096561
     28          8           0       -4.709253   -1.813299    0.089102
     29          1           0       -4.662480   -2.471296    0.800219
     30          6           0       -3.454960   -0.049255   -0.861553
     31          1           0       -4.262157    0.100609   -1.570123
     32          6           0       -2.311498    0.749921   -0.899959
     33          1           0       -2.246568    1.523096   -1.655296
 ---------------------------------------------------------------------

 SCF Done:  E(RB3LYP) =  -731.691030441     A.U. after   10 cycles

 The electronic state is 1-A.
 Alpha  occ. eigenvalues --  -19.17523 -19.17486 -10.24636 -10.24619 -10.20572
 Alpha  occ. eigenvalues --  -10.18719 -10.18697 -10.18692 -10.18662 -10.18647
 Alpha  occ. eigenvalues --  -10.18618 -10.18597 -10.18576 -10.18247 -10.18215
 Alpha  occ. eigenvalues --  -10.17408 -10.17350  -1.05538  -1.05491  -0.86290
 Alpha  occ. eigenvalues --   -0.84390  -0.80404  -0.74563  -0.74494  -0.73097
 Alpha  occ. eigenvalues --   -0.71663  -0.68626  -0.63511  -0.61472  -0.60374
 Alpha  occ. eigenvalues --   -0.59967  -0.55674  -0.54048  -0.54022  -0.48959
 Alpha  occ. eigenvalues --   -0.47864  -0.47167  -0.44498  -0.44462  -0.44141
 Alpha  occ. eigenvalues --   -0.41971  -0.41859  -0.41291  -0.40951  -0.40483
 Alpha  occ. eigenvalues --   -0.40116  -0.38948  -0.38340  -0.37581  -0.37369
 Alpha  occ. eigenvalues --   -0.34855  -0.34695  -0.33710  -0.33514  -0.31835
 Alpha  occ. eigenvalues --   -0.31806  -0.31364  -0.25071  -0.24898  -0.22223
 Alpha  occ. eigenvalues --   -0.20740
 Alpha virt. eigenvalues --   -0.00414   0.00111   0.01123   0.02113   0.08428
 Alpha virt. eigenvalues --    0.08481   0.09245   0.10674   0.12412   0.13179
 Alpha virt. eigenvalues --    0.14032   0.14404   0.15686   0.15807   0.16143

 Mulliken charges:
               1
     1  C   -0.461402
     2  H    0.150270
     3  H    0.147518
     4  H    0.151348
     5  C   -0.054165
     6  C   -0.457996
     7  H    0.147140
     8  H    0.150589
     9  H    0.149485
    10  C    0.167100
    11  C   -0.213578
    12  C   -0.177630
    13  C    0.345890
    14  O   -0.662213
    15  H    0.431166
    16  C   -0.206469
    17  C   -0.193268
    18  H    0.138223
    19  H    0.137420
    20  H    0.136844
    21  H    0.135337
    22  C    0.166023
    23  C   -0.193411
    24  H    0.137683
    25  C   -0.206237
    26  H    0.137308
    27  C    0.345250
    28  O   -0.662607
    29  H    0.431378
    30  C   -0.177691
    31  H    0.136657
    32  C   -0.210610
    33  H    0.134649
 Sum of Mulliken charges =   0.00000

 Dipole moment (field-independent basis, Debye):
    X=              0.1248    Y=             -1.4124    Z=             -0.1579  Tot=              1.4266
 Quadrupole moment (field-independent basis, Debye-Ang):
   XX=           -105.6653   YY=            -89.8242   ZZ=            -92.9034
   XY=              0.2360   XZ=             -9.7838   YZ=             -0.0292

 Normal termination of Gaussian 09 at Fri Nov 13 03:30:39 2020.
