 Gaussian 09, Revision D.01,

 -----------------
 #p b3lyp/6-31G(d)
 -----------------

 ------------------------------------------
 SET_328_BBB285_conf1_geo_120_300.n.pdb.xyz
 ------------------------------------------
 Symbolic Z-matrix:
 Charge =  0 Multiplicity = 1

 SCF Done:  E(RB3LYP) =  -907.139599031     A.U. after   15 cycles
 Normal termination of Gaussian 09 at Fri Nov 13 03:27:51 2020.
 Gaussian 09:  AM64L-G09RevD.01 24-Apr-2013

 ----------------------------------------------------------------------
 #p b3lyp/6-31G(d) scrf=(iefpcm,read,solvent=n-Octanol) geom=allcheck g
 uess=read
 ----------------------------------------------------------------------

 Structure from the checkpoint file:  "SET_328_BBB285_conf1_geo_120_300.n.pdb.xyz.mst.n.o.chk"
 ------------------------------------------
 SET_328_BBB285_conf1_geo_120_300.n.pdb.xyz
 ------------------------------------------
 Charge =  0 Multiplicity = 1

                         Standard orientation:
 ---------------------------------------------------------------------
 Center     Atomic      Atomic             Coordinates (Angstroms)
 Number     Number       Type             X           Y           Z
 ---------------------------------------------------------------------
      1          7           0        4.478113   -0.314783   -1.576279
      2          1           0        5.411432   -0.469404   -1.929315
      3          1           0        3.712788   -0.217186   -2.228666
      4          6           0        4.274364   -0.289980   -0.237945
      5          8           0        5.163088   -0.424309    0.601860
      6          6           0        2.863059   -0.079988    0.176870
      7          6           0        2.346053   -0.001600    1.483012
      8          7           0        1.033805    0.202824    1.411060
      9          1           0        2.859806   -0.076080    2.427733
     10          7           0        1.850695    0.074444   -0.685401
     11          7           0        0.792602    0.249921    0.094887
     12          6           0       -0.565041    0.335105   -0.453194
     13          1           0       -0.429277    0.599986   -1.502490
     14          8           0       -1.223177   -0.897742   -0.350998
     15          6           0       -2.250887   -0.827991    0.659595
     16          6           0       -3.313690   -1.882225    0.360395
     17          8           0       -3.879009   -1.778176   -0.927871
     18          1           0       -4.050930   -0.824931   -1.057657
     19          1           0       -4.072803   -1.816470    1.157417
     20          1           0       -2.856325   -2.873149    0.433376
     21          1           0       -1.812167   -1.040756    1.644165
     22          6           0       -2.716985    0.632791    0.637786
     23          8           0       -3.671674    0.863071   -0.391331
     24          1           0       -3.346505    1.648489   -0.876716
     25          1           0       -3.133477    0.937483    1.606071
     26          6           0       -1.408646    1.390566    0.298845
     27          1           0       -0.891045    1.698954    1.207122
     28          8           0       -1.645092    2.487516   -0.570256
     29          1           0       -1.800446    3.283275   -0.034329
 ---------------------------------------------------------------------

 SCF Done:  E(RB3LYP) =  -907.169289038     A.U. after   11 cycles

 The electronic state is 1-A.
 Alpha  occ. eigenvalues --  -19.18545 -19.17173 -19.16374 -19.12743 -19.11937
 Alpha  occ. eigenvalues --  -14.46121 -14.38940 -14.38523 -14.35852 -10.30221
 Alpha  occ. eigenvalues --  -10.29826 -10.26588 -10.25337 -10.24848 -10.23426
 Alpha  occ. eigenvalues --  -10.23265 -10.23241  -1.12767  -1.07840  -1.05462
 Alpha  occ. eigenvalues --   -1.03627  -1.02975  -1.00311  -0.91880  -0.90145
 Alpha  occ. eigenvalues --   -0.86461  -0.78690  -0.76582  -0.69665  -0.67201
 Alpha  occ. eigenvalues --   -0.64824  -0.60909  -0.59388  -0.58819  -0.56522
 Alpha  occ. eigenvalues --   -0.55184  -0.53806  -0.52400  -0.51508  -0.50296
 Alpha  occ. eigenvalues --   -0.48733  -0.48071  -0.47119  -0.45495  -0.44593
 Alpha  occ. eigenvalues --   -0.43621  -0.41796  -0.41460  -0.40996  -0.39797
 Alpha  occ. eigenvalues --   -0.38754  -0.37388  -0.35332  -0.34021  -0.33430
 Alpha  occ. eigenvalues --   -0.31593  -0.30782  -0.30428  -0.29341  -0.28357
 Alpha  occ. eigenvalues --   -0.27311  -0.27107  -0.26400  -0.25979
 Alpha virt. eigenvalues --   -0.04000  -0.00431   0.04377   0.09087   0.09744
 Alpha virt. eigenvalues --    0.10414   0.11050   0.11433   0.12258   0.12935
 Alpha virt. eigenvalues --    0.14442   0.14576   0.14842   0.15854   0.16540

 Mulliken charges:
               1
     1  N   -0.764650
     2  H    0.366452
     3  H    0.375023
     4  C    0.564118
     5  O   -0.553322
     6  C    0.237166
     7  C   -0.007095
     8  N   -0.272920
     9  H    0.186237
    10  N   -0.359885
    11  N   -0.068495
    12  C    0.295671
    13  H    0.190193
    14  O   -0.485908
    15  C    0.089014
    16  C   -0.034785
    17  O   -0.660276
    18  H    0.426289
    19  H    0.128120
    20  H    0.153023
    21  H    0.150318
    22  C    0.102638
    23  O   -0.673561
    24  H    0.431203
    25  H    0.153106
    26  C    0.036681
    27  H    0.194464
    28  O   -0.645138
    29  H    0.446320
 Sum of Mulliken charges =   0.00000

 Dipole moment (field-independent basis, Debye):
    X=             -1.4394    Y=              5.4193    Z=              0.3455  Tot=              5.6178
 Quadrupole moment (field-independent basis, Debye-Ang):
   XX=           -118.3909   YY=            -90.8354   ZZ=            -90.6665
   XY=            -12.8103   XZ=            -23.4256   YZ=             -1.2285

 Normal termination of Gaussian 09 at Fri Nov 13 03:29:45 2020.
