 Gaussian 09, Revision D.01,

 -----------------
 #p b3lyp/6-31G(d)
 -----------------

 ------------------------------------------
 SET_328_BBB212_conf1_geo_135_120.n.pdb.xyz
 ------------------------------------------
 Symbolic Z-matrix:
 Charge =  0 Multiplicity = 1

 SCF Done:  E(RB3LYP) =  -731.667458988     A.U. after   14 cycles
 Normal termination of Gaussian 09 at Fri Nov 13 03:28:26 2020.
 Gaussian 09:  AM64L-G09RevD.01 24-Apr-2013

 ----------------------------------------------------------------------
 #p b3lyp/6-31G(d) scrf=(iefpcm,read,solvent=n-Octanol) geom=allcheck g
 uess=read
 ----------------------------------------------------------------------

 Structure from the checkpoint file:  "SET_328_BBB212_conf1_geo_135_120.n.pdb.xyz.mst.n.o.chk"
 ------------------------------------------
 SET_328_BBB212_conf1_geo_135_120.n.pdb.xyz
 ------------------------------------------
 Charge =  0 Multiplicity = 1

                         Standard orientation:
 ---------------------------------------------------------------------
 Center     Atomic      Atomic             Coordinates (Angstroms)
 Number     Number       Type             X           Y           Z
 ---------------------------------------------------------------------
      1          6           0       -0.063599    2.382865   -1.225335
      2          1           0        0.777297    3.083464   -1.239403
      3          1           0       -0.985952    2.968183   -1.196237
      4          1           0       -0.053764    1.819775   -2.162545
      5          6           0       -0.000046    1.451597    0.010455
      6          6           0        0.058260    2.356141    1.263811
      7          1           0        0.058481    1.773742    2.191294
      8          1           0       -0.789859    3.048987    1.297371
      9          1           0        0.973954    2.951631    1.244226
     10          6           0        1.264052    0.567668    0.002127
     11          6           0        2.312358    0.740937   -0.910429
     12          6           0        3.461746   -0.046926   -0.865930
     13          6           0        3.593545   -1.038727    0.106020
     14          8           0        4.739237   -1.782826    0.104043
     15          1           0        4.706952   -2.426244    0.831463
     16          6           0        2.559049   -1.232742    1.028818
     17          6           0        1.417653   -0.439688    0.967851
     18          1           0        0.621504   -0.618318    1.684226
     19          1           0        2.644449   -2.005018    1.787730
     20          1           0        4.262520    0.098276   -1.581853
     21          1           0        2.244784    1.501218   -1.679106
     22          6           0       -1.261183    0.563383    0.000871
     23          6           0       -2.299865    0.707308    0.925605
     24          1           0       -2.223319    1.446224    1.714104
     25          6           0       -3.451098   -0.083561    0.866510
     26          1           0       -4.238623    0.051811    1.603713
     27          6           0       -3.586009   -1.044080   -0.133912
     28          8           0       -4.681685   -1.852468   -0.254093
     29          1           0       -5.318436   -1.636120    0.446391
     30          6           0       -2.558606   -1.208454   -1.070505
     31          1           0       -2.666248   -1.961217   -1.843665
     32          6           0       -1.420296   -0.416640   -0.995098
     33          1           0       -0.629917   -0.568535   -1.722461
 ---------------------------------------------------------------------

 SCF Done:  E(RB3LYP) =  -731.691371126     A.U. after   10 cycles

 The electronic state is 1-A.
 Alpha  occ. eigenvalues --  -19.17526 -19.17504 -10.24604 -10.24597 -10.20715
 Alpha  occ. eigenvalues --  -10.18717 -10.18711 -10.18669 -10.18652 -10.18629
 Alpha  occ. eigenvalues --  -10.18604 -10.18577 -10.18562 -10.18276 -10.18177
 Alpha  occ. eigenvalues --  -10.17426 -10.17396  -1.05513  -1.05489  -0.86177
 Alpha  occ. eigenvalues --   -0.84382  -0.80311  -0.74560  -0.74491  -0.73020
 Alpha  occ. eigenvalues --   -0.71696  -0.68534  -0.63118  -0.61944  -0.60707
 Alpha  occ. eigenvalues --   -0.59570  -0.55494  -0.54043  -0.54003  -0.49455
 Alpha  occ. eigenvalues --   -0.47641  -0.46253  -0.45043  -0.44333  -0.44324
 Alpha  occ. eigenvalues --   -0.41964  -0.41872  -0.41276  -0.40567  -0.40393
 Alpha  occ. eigenvalues --   -0.40082  -0.39446  -0.37931  -0.37892  -0.37181
 Alpha  occ. eigenvalues --   -0.34885  -0.34540  -0.33758  -0.33457  -0.31841
 Alpha  occ. eigenvalues --   -0.31767  -0.31402  -0.25088  -0.24849  -0.22181
 Alpha  occ. eigenvalues --   -0.20787
 Alpha virt. eigenvalues --   -0.00420   0.00244   0.01148   0.02039   0.08390
 Alpha virt. eigenvalues --    0.08462   0.09272   0.10694   0.12391   0.13261
 Alpha virt. eigenvalues --    0.14134   0.14367   0.15718   0.15830   0.16149

 Mulliken charges:
               1
     1  C   -0.459817
     2  H    0.147590
     3  H    0.150024
     4  H    0.151288
     5  C   -0.050195
     6  C   -0.459693
     7  H    0.150168
     8  H    0.147231
     9  H    0.150234
    10  C    0.162172
    11  C   -0.211389
    12  C   -0.177074
    13  C    0.346298
    14  O   -0.662224
    15  H    0.431038
    16  C   -0.205499
    17  C   -0.192541
    18  H    0.137659
    19  H    0.136850
    20  H    0.136600
    21  H    0.134904
    22  C    0.162390
    23  C   -0.212706
    24  H    0.135485
    25  C   -0.207148
    26  H    0.135569
    27  C    0.346528
    28  O   -0.662836
    29  H    0.431253
    30  C   -0.175155
    31  H    0.137900
    32  C   -0.191766
    33  H    0.136861
 Sum of Mulliken charges =   0.00000

 Dipole moment (field-independent basis, Debye):
    X=             -1.2273    Y=              0.0337    Z=              2.6377  Tot=              2.9095
 Quadrupole moment (field-independent basis, Debye-Ang):
   XX=            -93.0352   YY=            -95.8319   ZZ=            -94.6139
   XY=             -5.5377   XZ=             -4.2066   YZ=             -6.1050

 Normal termination of Gaussian 09 at Fri Nov 13 03:30:37 2020.
