 Gaussian 09, Revision D.01,

 -----------------
 #p b3lyp/6-31G(d)
 -----------------

 ------------------------------------------
 SET_328_BBB181_conf1_geo_180_285.n.pdb.xyz
 ------------------------------------------
 Symbolic Z-matrix:
 Charge =  0 Multiplicity = 1

 SCF Done:  E(RB3LYP) =  -233.660932424     A.U. after   12 cycles
 Normal termination of Gaussian 09 at Fri Nov 13 03:26:01 2020.
 Gaussian 09:  AM64L-G09RevD.01 24-Apr-2013

 ----------------------------------------------------------------------
 #p b3lyp/6-31G(d) scrf=(iefpcm,read,solvent=n-Octanol) geom=allcheck g
 uess=read
 ----------------------------------------------------------------------

 Structure from the checkpoint file:  "SET_328_BBB181_conf1_geo_180_285.n.pdb.xyz.mst.n.o.chk"
 ------------------------------------------
 SET_328_BBB181_conf1_geo_180_285.n.pdb.xyz
 ------------------------------------------
 Charge =  0 Multiplicity = 1

                         Standard orientation:
 ---------------------------------------------------------------------
 Center     Atomic      Atomic             Coordinates (Angstroms)
 Number     Number       Type             X           Y           Z
 ---------------------------------------------------------------------
      1          6           0        2.050132    0.637807   -0.156418
      2          1           0        2.099944    0.786675   -1.238912
      3          1           0        3.071486    0.561263    0.229735
      4          1           0        1.587161    1.520831    0.289464
      5          6           0        1.261818   -0.625369    0.174061
      6          1           0        1.248234   -0.793419    1.262437
      7          1           0        1.734448   -1.497196   -0.287988
      8          8           0       -0.070252   -0.601820   -0.324805
      9          6           0       -0.931707    0.249150    0.416795
     10          1           0       -0.566193    1.284805    0.394187
     11          1           0       -0.946676   -0.066521    1.472613
     12          6           0       -2.321373    0.167654   -0.186019
     13          1           0       -3.014671    0.806710    0.367731
     14          1           0       -2.695646   -0.859385   -0.152778
     15          1           0       -2.309292    0.495341   -1.228560
 ---------------------------------------------------------------------

 SCF Done:  E(RB3LYP) =  -233.666150134     A.U. after    9 cycles

 The electronic state is 1-A.
 Alpha  occ. eigenvalues --  -19.14067 -10.22640 -10.22556 -10.17352 -10.17322
 Alpha  occ. eigenvalues --   -1.02352  -0.76805  -0.72542  -0.63058  -0.58826
 Alpha  occ. eigenvalues --   -0.48901  -0.46607  -0.46375  -0.41245  -0.38945
 Alpha  occ. eigenvalues --   -0.38659  -0.37121  -0.35556  -0.34202  -0.30644
 Alpha  occ. eigenvalues --   -0.24954
 Alpha virt. eigenvalues --    0.09446   0.11849   0.12613   0.14196   0.15204
 Alpha virt. eigenvalues --    0.16791   0.17424   0.18394   0.19125   0.19473
 Alpha virt. eigenvalues --    0.22601   0.24058   0.25086   0.26654   0.50470

 Mulliken charges:
               1
     1  C   -0.462187
     2  H    0.154195
     3  H    0.148205
     4  H    0.154850
     5  C   -0.019138
     6  H    0.123606
     7  H    0.143832
     8  O   -0.480644
     9  C   -0.013511
    10  H    0.127742
    11  H    0.121861
    12  C   -0.456043
    13  H    0.148592
    14  H    0.153944
    15  H    0.154696
 Sum of Mulliken charges =   0.00000

 Dipole moment (field-independent basis, Debye):
    X=              0.4350    Y=              0.8391    Z=              1.0526  Tot=              1.4147
 Quadrupole moment (field-independent basis, Debye-Ang):
   XX=            -30.3433   YY=            -33.2950   ZZ=            -33.1224
   XY=             -1.2264   XZ=             -0.3671   YZ=             -0.4545

 Normal termination of Gaussian 09 at Fri Nov 13 03:26:16 2020.
