 Gaussian 09, Revision D.01,

 -----------------
 #p b3lyp/6-31G(d)
 -----------------

 ------------------------------------------
 SET_328_BBB181_conf1_geo_180_180.n.pdb.xyz
 ------------------------------------------
 Symbolic Z-matrix:
 Charge =  0 Multiplicity = 1

 SCF Done:  E(RB3LYP) =  -233.663377994     A.U. after   12 cycles
 Normal termination of Gaussian 09 at Fri Nov 13 03:26:01 2020.
 Gaussian 09:  AM64L-G09RevD.01 24-Apr-2013

 ----------------------------------------------------------------------
 #p b3lyp/6-31G(d) scrf=(iefpcm,read,solvent=n-Octanol) geom=allcheck g
 uess=read
 ----------------------------------------------------------------------

 Structure from the checkpoint file:  "SET_328_BBB181_conf1_geo_180_180.n.pdb.xyz.mst.n.o.chk"
 ------------------------------------------
 SET_328_BBB181_conf1_geo_180_180.n.pdb.xyz
 ------------------------------------------
 Charge =  0 Multiplicity = 1

                         Standard orientation:
 ---------------------------------------------------------------------
 Center     Atomic      Atomic             Coordinates (Angstroms)
 Number     Number       Type             X           Y           Z
 ---------------------------------------------------------------------
      1          6           0       -2.380842   -0.406368    0.000387
      2          1           0       -2.376460   -1.041905   -0.888855
      3          1           0       -3.307003    0.173991    0.005589
      4          1           0       -2.373598   -1.053218    0.884167
      5          6           0       -1.176697    0.516426    0.002831
      6          1           0       -1.186738    1.168297    0.892423
      7          1           0       -1.192243    1.177908   -0.878126
      8          8           0        0.000466   -0.270492   -0.005800
      9          6           0        1.178229    0.516600   -0.002086
     10          1           0        1.187900    1.172778    0.882424
     11          1           0        1.195160    1.172237   -0.887946
     12          6           0        2.378951   -0.407039    0.002787
     13          1           0        2.375557   -1.049412   -0.881681
     14          1           0        2.369467   -1.046292    0.890097
     15          1           0        3.306384    0.171843    0.004802
 ---------------------------------------------------------------------

 SCF Done:  E(RB3LYP) =  -233.668519326     A.U. after    8 cycles

 The electronic state is 1-A.
 Alpha  occ. eigenvalues --  -19.14110 -10.22632 -10.22614 -10.17389 -10.17361
 Alpha  occ. eigenvalues --   -1.02687  -0.77226  -0.72308  -0.61609  -0.60000
 Alpha  occ. eigenvalues --   -0.49092  -0.48404  -0.43847  -0.42763  -0.39384
 Alpha  occ. eigenvalues --   -0.37231  -0.37202  -0.35033  -0.34078  -0.31408
 Alpha  occ. eigenvalues --   -0.25059
 Alpha virt. eigenvalues --    0.09422   0.11617   0.13201   0.14410   0.15270
 Alpha virt. eigenvalues --    0.17167   0.17292   0.19415   0.19450   0.20130
 Alpha virt. eigenvalues --    0.20174   0.21882   0.24419   0.27774   0.50160

 Mulliken charges:
               1
     1  C   -0.457171
     2  H    0.154898
     3  H    0.149273
     4  H    0.154288
     5  C   -0.004978
     6  H    0.121620
     7  H    0.121862
     8  O   -0.480153
     9  C   -0.005034
    10  H    0.122131
    11  H    0.121893
    12  C   -0.457157
    13  H    0.154843
    14  H    0.154616
    15  H    0.149068
 Sum of Mulliken charges =   0.00000

 Dipole moment (field-independent basis, Debye):
    X=              0.0031    Y=              1.2535    Z=              0.0104  Tot=              1.2535
 Quadrupole moment (field-independent basis, Debye-Ang):
   XX=            -29.9246   YY=            -33.1992   ZZ=            -32.7336
   XY=              0.0033   XZ=             -0.0021   YZ=             -0.0030

 Normal termination of Gaussian 09 at Fri Nov 13 03:26:15 2020.
