 Gaussian 09, Revision D.01,

 -----------------
 #p b3lyp/6-31G(d)
 -----------------

 ------------------------------------------
 SET_328_BBB181_conf1_geo_285_180.n.pdb.xyz
 ------------------------------------------
 Symbolic Z-matrix:
 Charge =  0 Multiplicity = 1

 SCF Done:  E(RB3LYP) =  -233.661135066     A.U. after   12 cycles
 Normal termination of Gaussian 09 at Fri Nov 13 03:26:01 2020.
 Gaussian 09:  AM64L-G09RevD.01 24-Apr-2013

 ----------------------------------------------------------------------
 #p b3lyp/6-31G(d) scrf=(iefpcm,read,solvent=n-Octanol) geom=allcheck g
 uess=read
 ----------------------------------------------------------------------

 Structure from the checkpoint file:  "SET_328_BBB181_conf1_geo_285_180.n.pdb.xyz.mst.n.o.chk"
 ------------------------------------------
 SET_328_BBB181_conf1_geo_285_180.n.pdb.xyz
 ------------------------------------------
 Charge =  0 Multiplicity = 1

                         Standard orientation:
 ---------------------------------------------------------------------
 Center     Atomic      Atomic             Coordinates (Angstroms)
 Number     Number       Type             X           Y           Z
 ---------------------------------------------------------------------
      1          6           0       -2.339247    0.134721   -0.172176
      2          1           0       -3.037530    0.794563    0.350612
      3          1           0       -2.682720   -0.896472   -0.052951
      4          1           0       -2.362665    0.382077   -1.237368
      5          6           0       -0.935216    0.297699    0.384708
      6          1           0       -0.908876    0.053068    1.458504
      7          1           0       -0.602035    1.341576    0.282161
      8          8           0       -0.071089   -0.580365   -0.320533
      9          6           0        1.250813   -0.620835    0.196326
     10          1           0        1.704653   -1.518645   -0.229404
     11          1           0        1.216319   -0.751991    1.289817
     12          6           0        2.082003    0.604426   -0.163998
     13          1           0        3.100288    0.499363    0.221224
     14          1           0        1.656190    1.518314    0.261762
     15          1           0        2.134973    0.725005   -1.249256
 ---------------------------------------------------------------------

 SCF Done:  E(RB3LYP) =  -233.666303686     A.U. after    9 cycles

 The electronic state is 1-A.
 Alpha  occ. eigenvalues --  -19.14022 -10.22600 -10.22598 -10.17369 -10.17297
 Alpha  occ. eigenvalues --   -1.02375  -0.76820  -0.72488  -0.63070  -0.58807
 Alpha  occ. eigenvalues --   -0.48873  -0.46768  -0.46194  -0.41242  -0.38950
 Alpha  occ. eigenvalues --   -0.38602  -0.37142  -0.35603  -0.34101  -0.30592
 Alpha  occ. eigenvalues --   -0.24921
 Alpha virt. eigenvalues --    0.09408   0.11852   0.12655   0.14245   0.15234
 Alpha virt. eigenvalues --    0.16817   0.17495   0.18359   0.19153   0.19539
 Alpha virt. eigenvalues --    0.22071   0.24105   0.25005   0.26709   0.50269

 Mulliken charges:
               1
     1  C   -0.455773
     2  H    0.148390
     3  H    0.153825
     4  H    0.154795
     5  C   -0.012672
     6  H    0.121818
     7  H    0.127178
     8  O   -0.479648
     9  C   -0.018539
    10  H    0.143572
    11  H    0.122978
    12  C   -0.461726
    13  H    0.148147
    14  H    0.153487
    15  H    0.154167
 Sum of Mulliken charges =   0.00000

 Dipole moment (field-independent basis, Debye):
    X=              0.4181    Y=              0.8251    Z=              1.0366  Tot=              1.3893
 Quadrupole moment (field-independent basis, Debye-Ang):
   XX=            -30.3719   YY=            -33.2389   ZZ=            -33.1205
   XY=             -1.2589   XZ=             -0.3065   YZ=             -0.4466

 Normal termination of Gaussian 09 at Fri Nov 13 03:26:17 2020.
