 Gaussian 09, Revision D.01,

 -----------------
 #p b3lyp/6-31G(d)
 -----------------

 ------------------------------------------
 SET_328_BBB285_conf1_geo_120_075.n.pdb.xyz
 ------------------------------------------
 Symbolic Z-matrix:
 Charge =  0 Multiplicity = 1

 SCF Done:  E(RB3LYP) =  -907.140156496     A.U. after   16 cycles
 Normal termination of Gaussian 09 at Fri Nov 13 03:28:01 2020.
 Gaussian 09:  AM64L-G09RevD.01 24-Apr-2013

 ----------------------------------------------------------------------
 #p b3lyp/6-31G(d) scrf=(iefpcm,read,solvent=n-Octanol) geom=allcheck g
 uess=read
 ----------------------------------------------------------------------

 Structure from the checkpoint file:  "SET_328_BBB285_conf1_geo_120_075.n.pdb.xyz.mst.n.o.chk"
 ------------------------------------------
 SET_328_BBB285_conf1_geo_120_075.n.pdb.xyz
 ------------------------------------------
 Charge =  0 Multiplicity = 1

                         Standard orientation:
 ---------------------------------------------------------------------
 Center     Atomic      Atomic             Coordinates (Angstroms)
 Number     Number       Type             X           Y           Z
 ---------------------------------------------------------------------
      1          7           0        4.604872    0.972307    1.054962
      2          1           0        5.570363    1.219171    1.222461
      3          1           0        3.894591    1.293797    1.696107
      4          6           0        4.293309    0.225504   -0.029358
      5          8           0        5.115070   -0.189844   -0.845174
      6          6           0        2.848550   -0.078121   -0.187283
      7          6           0        2.228390   -0.831477   -1.200644
      8          7           0        0.919000   -0.864406   -0.962789
      9          1           0        2.667003   -1.329815   -2.051493
     10          7           0        1.905068    0.344704    0.662137
     11          7           0        0.782367   -0.153176    0.161033
     12          6           0       -0.527289    0.125547    0.755063
     13          1           0       -0.313272    0.535062    1.740647
     14          8           0       -1.227724    1.074482   -0.016789
     15          6           0       -2.299687    0.455704   -0.768906
     16          6           0       -3.605447    1.097236   -0.318725
     17          8           0       -3.560681    2.500424   -0.527315
     18          1           0       -2.778513    2.816944   -0.046373
     19          1           0       -3.784518    0.851761    0.735075
     20          1           0       -4.433563    0.705605   -0.910668
     21          1           0       -2.131313    0.697791   -1.822400
     22          6           0       -2.184077   -1.057186   -0.511828
     23          8           0       -3.475040   -1.638020   -0.376123
     24          1           0       -3.414221   -2.577446   -0.612399
     25          1           0       -1.610478   -1.530315   -1.309261
     26          6           0       -1.393724   -1.134838    0.814841
     27          1           0       -0.780672   -2.039181    0.889141
     28          8           0       -2.277568   -1.015420    1.908966
     29          1           0       -3.117158   -1.406563    1.594270
 ---------------------------------------------------------------------

 SCF Done:  E(RB3LYP) =  -907.168382446     A.U. after   11 cycles

 The electronic state is 1-A.
 Alpha  occ. eigenvalues --  -19.17663 -19.17519 -19.15584 -19.14203 -19.11923
 Alpha  occ. eigenvalues --  -14.46142 -14.38974 -14.38553 -14.35873 -10.30209
 Alpha  occ. eigenvalues --  -10.29696 -10.25472 -10.25284 -10.24547 -10.23427
 Alpha  occ. eigenvalues --  -10.23297 -10.22758  -1.12837  -1.07430  -1.04930
 Alpha  occ. eigenvalues --   -1.03629  -1.02389  -1.01319  -0.91938  -0.90186
 Alpha  occ. eigenvalues --   -0.86557  -0.78341  -0.76297  -0.69406  -0.67395
 Alpha  occ. eigenvalues --   -0.64487  -0.61527  -0.59373  -0.58306  -0.56015
 Alpha  occ. eigenvalues --   -0.54917  -0.53217  -0.52697  -0.50960  -0.49718
 Alpha  occ. eigenvalues --   -0.49159  -0.48479  -0.47041  -0.45851  -0.44563
 Alpha  occ. eigenvalues --   -0.42419  -0.41584  -0.41525  -0.40997  -0.40264
 Alpha  occ. eigenvalues --   -0.38338  -0.35700  -0.35217  -0.34426  -0.33341
 Alpha  occ. eigenvalues --   -0.31454  -0.30928  -0.30616  -0.29568  -0.27951
 Alpha  occ. eigenvalues --   -0.27613  -0.27146  -0.26470  -0.26134
 Alpha virt. eigenvalues --   -0.03951  -0.00438   0.04554   0.08941   0.09700
 Alpha virt. eigenvalues --    0.10424   0.10753   0.11486   0.12709   0.13150
 Alpha virt. eigenvalues --    0.13390   0.14431   0.14626   0.15711   0.17163

 Mulliken charges:
               1
     1  N   -0.764678
     2  H    0.366595
     3  H    0.374801
     4  C    0.564681
     5  O   -0.553735
     6  C    0.234020
     7  C   -0.001113
     8  N   -0.278176
     9  H    0.186782
    10  N   -0.362298
    11  N   -0.053119
    12  C    0.257072
    13  H    0.191371
    14  O   -0.509712
    15  C    0.108364
    16  C   -0.030459
    17  O   -0.646102
    18  H    0.413439
    19  H    0.133622
    20  H    0.157510
    21  H    0.157700
    22  C    0.059769
    23  O   -0.649129
    24  H    0.440603
    25  H    0.180768
    26  C    0.097310
    27  H    0.155228
    28  O   -0.653843
    29  H    0.422728
 Sum of Mulliken charges =   0.00000

 Dipole moment (field-independent basis, Debye):
    X=             -1.4548    Y=             -2.9253    Z=              1.8385  Tot=              3.7489
 Quadrupole moment (field-independent basis, Debye-Ang):
   XX=           -111.8688   YY=            -90.1765   ZZ=            -97.0848
   XY=             23.3949   XZ=             14.6774   YZ=              8.1546

 Normal termination of Gaussian 09 at Fri Nov 13 03:29:55 2020.
