 Gaussian 09, Revision D.01,

 -----------------
 #p b3lyp/6-31G(d)
 -----------------

 -----------------------------------------
 SET_328_BBB87_conf1_geo_285_285.n.pdb.xyz
 -----------------------------------------
 Symbolic Z-matrix:
 Charge =  0 Multiplicity = 1

 SCF Done:  E(RB3LYP) =  -703.023386534     A.U. after   15 cycles
 Normal termination of Gaussian 09 at Fri Nov 13 03:27:09 2020.
 Gaussian 09:  AM64L-G09RevD.01 24-Apr-2013

 ----------------------------------------------------------------------
 #p b3lyp/6-31G(d) scrf=(iefpcm,read,solvent=n-Octanol) geom=allcheck g
 uess=read
 ----------------------------------------------------------------------

 Structure from the checkpoint file:  "SET_328_BBB87_conf1_geo_285_285.n.pdb.xyz.mst.n.o.chk"
 -----------------------------------------
 SET_328_BBB87_conf1_geo_285_285.n.pdb.xyz
 -----------------------------------------
 Charge =  0 Multiplicity = 1

                         Standard orientation:
 ---------------------------------------------------------------------
 Center     Atomic      Atomic             Coordinates (Angstroms)
 Number     Number       Type             X           Y           Z
 ---------------------------------------------------------------------
      1          7           0        2.444766   -0.867050   -0.727643
      2          1           0        3.269590   -0.950414   -1.317948
      3          1           0        1.650788   -1.019597   -1.346151
      4          6           0        2.384280    0.487099   -0.172372
      5          1           0        2.204745    1.274376   -0.919557
      6          1           0        3.350286    0.700987    0.295241
      7          6           0        1.302687    0.594137    0.918378
      8          1           0        1.363670    1.584453    1.379027
      9          1           0        1.508043   -0.154023    1.690405
     10          6           0       -0.094421    0.429453    0.395781
     11          7           0       -0.804442    1.390911   -0.126800
     12          6           0       -2.033259    0.936240   -0.550423
     13          1           0       -2.727114    1.635390   -1.001262
     14          6           0       -2.283920   -0.389721   -0.354402
     15          1           0       -3.171604   -0.953618   -0.599903
     16         16           0       -0.911430   -1.132989    0.398717
 ---------------------------------------------------------------------

 SCF Done:  E(RB3LYP) =  -703.035648817     A.U. after   10 cycles

 The electronic state is 1-A.
 Alpha  occ. eigenvalues --  -88.91323 -14.33424 -14.31145 -10.25400 -10.21886
 Alpha  occ. eigenvalues --  -10.21790 -10.21185 -10.19692  -7.97480  -5.93850
 Alpha  occ. eigenvalues --   -5.93506  -5.93215  -0.96149  -0.88043  -0.79610
 Alpha  occ. eigenvalues --   -0.77781  -0.71117  -0.62226  -0.58795  -0.53256
 Alpha  occ. eigenvalues --   -0.50060  -0.48916  -0.47128  -0.42756  -0.41873
 Alpha  occ. eigenvalues --   -0.41264  -0.36990  -0.36686  -0.36293  -0.35680
 Alpha  occ. eigenvalues --   -0.28277  -0.27386  -0.24477  -0.23545
 Alpha virt. eigenvalues --   -0.02352   0.02175   0.04859   0.09248   0.09888
 Alpha virt. eigenvalues --    0.12569   0.13322   0.14851   0.15903   0.16957
 Alpha virt. eigenvalues --    0.17201   0.19730   0.22139   0.23131   0.25624

 Mulliken charges:
               1
     1  N   -0.744900
     2  H    0.318712
     3  H    0.316137
     4  C   -0.137687
     5  H    0.136550
     6  H    0.151017
     7  C   -0.299872
     8  H    0.170086
     9  H    0.162546
    10  C    0.079021
    11  N   -0.418427
    12  C    0.039349
    13  H    0.159181
    14  C   -0.355375
    15  H    0.193618
    16  S    0.230044
 Sum of Mulliken charges =   0.00000

 Dipole moment (field-independent basis, Debye):
    X=              0.2156    Y=             -0.4213    Z=             -1.2227  Tot=              1.3111
 Quadrupole moment (field-independent basis, Debye-Ang):
   XX=            -45.0607   YY=            -59.1848   ZZ=            -52.3201
   XY=              3.7556   XZ=             -0.1976   YZ=              1.8058

 Normal termination of Gaussian 09 at Fri Nov 13 03:27:34 2020.
