 Gaussian 09, Revision D.01,

 -----------------
 #p b3lyp/6-31G(d)
 -----------------

 ------------------------------------------
 SET_328_BBB315_conf1_geo_060_075.n.pdb.xyz
 ------------------------------------------
 Symbolic Z-matrix:
 Charge =  0 Multiplicity = 1

 SCF Done:  E(RB3LYP) =  -513.826266228     A.U. after   15 cycles
 Normal termination of Gaussian 09 at Fri Nov 13 03:26:51 2020.
 Gaussian 09:  AM64L-G09RevD.01 24-Apr-2013

 ----------------------------------------------------------------------
 #p b3lyp/6-31G(d) scrf=(iefpcm,read,solvent=n-Octanol) geom=allcheck g
 uess=read
 ----------------------------------------------------------------------

 Structure from the checkpoint file:  "SET_328_BBB315_conf1_geo_060_075.n.pdb.xyz.mst.n.o.chk"
 ------------------------------------------
 SET_328_BBB315_conf1_geo_060_075.n.pdb.xyz
 ------------------------------------------
 Charge =  0 Multiplicity = 1

                         Standard orientation:
 ---------------------------------------------------------------------
 Center     Atomic      Atomic             Coordinates (Angstroms)
 Number     Number       Type             X           Y           Z
 ---------------------------------------------------------------------
      1          7           0       -3.389772    0.597306    1.338795
      2          1           0       -3.741104    1.455217    0.912763
      3          1           0       -2.431429    0.805296    1.615892
      4          6           0       -3.377092   -0.467937    0.333680
      5          1           0       -4.412360   -0.655741    0.029157
      6          1           0       -3.014190   -1.384312    0.813014
      7          6           0       -2.530843   -0.205669   -0.932963
      8          1           0       -2.887120    0.707491   -1.421612
      9          1           0       -2.688016   -1.031302   -1.636687
     10          6           0       -1.066134   -0.086966   -0.642819
     11          6           0       -0.306530    1.067442   -0.590862
     12          1           0       -0.547136    2.101801   -0.777359
     13          7           0        0.967493    0.666497   -0.247275
     14          6           0        2.125111    1.381443   -0.061976
     15          1           0        2.058309    2.453186   -0.200675
     16          6           0        3.270361    0.720058    0.280533
     17          1           0        4.181564    1.285391    0.427337
     18          6           0        3.261951   -0.693497    0.440519
     19          1           0        4.178547   -1.203437    0.712553
     20          6           0        2.104768   -1.409279    0.253457
     21          1           0        2.066434   -2.484843    0.366905
     22          6           0        0.915300   -0.732415   -0.100504
     23          7           0       -0.312700   -1.190634   -0.336617
 ---------------------------------------------------------------------

 SCF Done:  E(RB3LYP) =  -513.842090513     A.U. after   11 cycles

 The electronic state is 1-A.
 Alpha  occ. eigenvalues --  -14.41484 -14.30844 -14.30709 -10.24878 -10.24143
 Alpha  occ. eigenvalues --  -10.21211 -10.21127 -10.20312 -10.20295 -10.20165
 Alpha  occ. eigenvalues --  -10.20145 -10.18275  -1.02994  -0.90553  -0.87398
 Alpha  occ. eigenvalues --   -0.83151  -0.77203  -0.74574  -0.71782  -0.64602
 Alpha  occ. eigenvalues --   -0.62438  -0.61483  -0.56862  -0.52865  -0.50246
 Alpha  occ. eigenvalues --   -0.48930  -0.47750  -0.46203  -0.45944  -0.44490
 Alpha  occ. eigenvalues --   -0.42694  -0.41208  -0.40466  -0.38500  -0.37163
 Alpha  occ. eigenvalues --   -0.35625  -0.34008  -0.33613  -0.32047  -0.27246
 Alpha  occ. eigenvalues --   -0.24420  -0.22813  -0.21004
 Alpha virt. eigenvalues --   -0.03207   0.00574   0.06242   0.09359   0.09721
 Alpha virt. eigenvalues --    0.12168   0.13495   0.14206   0.14468   0.15426
 Alpha virt. eigenvalues --    0.16232   0.17006   0.17261   0.18011   0.18985

 Mulliken charges:
               1
     1  N   -0.735096
     2  H    0.304937
     3  H    0.305348
     4  C   -0.143481
     5  H    0.141878
     6  H    0.152191
     7  C   -0.343841
     8  H    0.141238
     9  H    0.149149
    10  C    0.229437
    11  C   -0.048259
    12  H    0.169401
    13  N   -0.470911
    14  C    0.068024
    15  H    0.184298
    16  C   -0.194490
    17  H    0.160381
    18  C   -0.128687
    19  H    0.154510
    20  C   -0.190193
    21  H    0.158645
    22  C    0.513863
    23  N   -0.578343
 Sum of Mulliken charges =   0.00000

 Dipole moment (field-independent basis, Debye):
    X=              3.0062    Y=              3.7497    Z=             -1.0940  Tot=              4.9289
 Quadrupole moment (field-independent basis, Debye-Ang):
   XX=            -64.7529   YY=            -64.2471   ZZ=            -76.1308
   XY=             -2.0333   XZ=              8.9729   YZ=             -1.9691

 Normal termination of Gaussian 09 at Fri Nov 13 03:27:54 2020.
