 Gaussian 09, Revision D.01,

 -----------------
 #p b3lyp/6-31G(d)
 -----------------

 -----------------------------------------
 SET_328_BBB23_conf1_geo_195_165.n.pdb.xyz
 -----------------------------------------
 Symbolic Z-matrix:
 Charge =  0 Multiplicity = 1

 SCF Done:  E(RB3LYP) =  -237.082952215     A.U. after   11 cycles
 Normal termination of Gaussian 09 at Fri Nov 13 03:26:09 2020.
 Gaussian 09:  AM64L-G09RevD.01 24-Apr-2013

 ----------------------------------------------------------------------
 #p b3lyp/6-31G(d) scrf=(iefpcm,read,solvent=n-Octanol) geom=allcheck g
 uess=read
 ----------------------------------------------------------------------

 Structure from the checkpoint file:  "SET_328_BBB23_conf1_geo_195_165.n.pdb.xyz.mst.n.o.chk"
 -----------------------------------------
 SET_328_BBB23_conf1_geo_195_165.n.pdb.xyz
 -----------------------------------------
 Charge =  0 Multiplicity = 1

                         Standard orientation:
 ---------------------------------------------------------------------
 Center     Atomic      Atomic             Coordinates (Angstroms)
 Number     Number       Type             X           Y           Z
 ---------------------------------------------------------------------
      1          6           0       -2.577521   -0.158053   -0.291296
      2          1           0       -2.581353   -0.235522   -1.384544
      3          1           0       -2.742218    0.892070   -0.032892
      4          1           0       -3.431138   -0.728421    0.083507
      5          6           0       -1.265667   -0.684475    0.293848
      6          1           0       -1.170610   -1.752471    0.055138
      7          1           0       -1.304996   -0.622865    1.390033
      8          6           0       -0.000167    0.041579   -0.202112
      9          6           0        0.007186    1.519663    0.212965
     10          1           0       -0.017288    1.615067    1.304756
     11          1           0       -0.857825    2.058161   -0.186679
     12          1           0        0.906906    2.027432   -0.142398
     13          1           0        0.001103   -0.004495   -1.301787
     14          6           0        1.262609   -0.687627    0.297468
     15          1           0        1.165859   -1.756238    0.067163
     16          1           0        1.304108   -0.616501    1.392126
     17          6           0        2.572185   -0.163188   -0.293545
     18          1           0        2.722201    0.894001   -0.058855
     19          1           0        2.580732   -0.262038   -1.386031
     20          1           0        3.432773   -0.715580    0.096487
 ---------------------------------------------------------------------

 SCF Done:  E(RB3LYP) =  -237.087494651     A.U. after    7 cycles

 The electronic state is 1-A.
 Alpha  occ. eigenvalues --  -10.18006 -10.17361 -10.17345 -10.16883 -10.16870
 Alpha  occ. eigenvalues --  -10.16649  -0.80815  -0.74501  -0.70362  -0.64828
 Alpha  occ. eigenvalues --   -0.59338  -0.54969  -0.46175  -0.45156  -0.42674
 Alpha  occ. eigenvalues --   -0.41199  -0.39284  -0.38435  -0.36906  -0.35831
 Alpha  occ. eigenvalues --   -0.34677  -0.33110  -0.31391  -0.30798  -0.30312
 Alpha virt. eigenvalues --    0.08686   0.12056   0.12295   0.12742   0.15161
 Alpha virt. eigenvalues --    0.15693   0.16587   0.17351   0.17490   0.18529
 Alpha virt. eigenvalues --    0.18752   0.20589   0.22973   0.23297   0.25036

 Mulliken charges:
               1
     1  C   -0.451940
     2  H    0.141329
     3  H    0.146806
     4  H    0.142291
     5  C   -0.247389
     6  H    0.127699
     7  H    0.126692
     8  C   -0.056672
     9  C   -0.457502
    10  H    0.137992
    11  H    0.144707
    12  H    0.145253
    13  H    0.115135
    14  C   -0.247550
    15  H    0.128174
    16  H    0.127033
    17  C   -0.452396
    18  H    0.147177
    19  H    0.141234
    20  H    0.141926
 Sum of Mulliken charges =   0.00000

 Dipole moment (field-independent basis, Debye):
    X=              0.0008    Y=             -0.0514    Z=             -0.0137  Tot=              0.0532
 Quadrupole moment (field-independent basis, Debye-Ang):
   XX=            -42.0824   YY=            -41.5611   ZZ=            -41.2138
   XY=              0.0082   XZ=              0.0064   YZ=              0.1499

 Normal termination of Gaussian 09 at Fri Nov 13 03:26:31 2020.
