 Gaussian 09, Revision D.01,

 -----------------
 #p b3lyp/6-31G(d)
 -----------------

 -----------------------------------------
 SET_328_BBB23_conf1_geo_300_300.n.pdb.xyz
 -----------------------------------------
 Symbolic Z-matrix:
 Charge =  0 Multiplicity = 1

 SCF Done:  E(RB3LYP) =  -237.081643262     A.U. after   12 cycles
 Normal termination of Gaussian 09 at Fri Nov 13 03:26:13 2020.
 Gaussian 09:  AM64L-G09RevD.01 24-Apr-2013

 ----------------------------------------------------------------------
 #p b3lyp/6-31G(d) scrf=(iefpcm,read,solvent=n-Octanol) geom=allcheck g
 uess=read
 ----------------------------------------------------------------------

 Structure from the checkpoint file:  "SET_328_BBB23_conf1_geo_300_300.n.pdb.xyz.mst.n.o.chk"
 -----------------------------------------
 SET_328_BBB23_conf1_geo_300_300.n.pdb.xyz
 -----------------------------------------
 Charge =  0 Multiplicity = 1

                         Standard orientation:
 ---------------------------------------------------------------------
 Center     Atomic      Atomic             Coordinates (Angstroms)
 Number     Number       Type             X           Y           Z
 ---------------------------------------------------------------------
      1          6           0        2.227773   -0.516404    0.075446
      2          1           0        3.076806   -0.602880   -0.610803
      3          1           0        1.841522   -1.525309    0.250805
      4          1           0        2.610488   -0.140962    1.030993
      5          6           0        1.148040    0.411073   -0.491663
      6          1           0        0.808066    0.023731   -1.460946
      7          1           0        1.591870    1.394323   -0.698097
      8          6           0       -0.071471    0.608558    0.434452
      9          6           0       -1.012656    1.690660   -0.117903
     10          1           0       -0.486570    2.643414   -0.246249
     11          1           0       -1.858088    1.862395    0.556217
     12          1           0       -1.421416    1.405334   -1.093291
     13          1           0        0.311237    0.966952    1.401327
     14          6           0       -0.825795   -0.710087    0.720845
     15          1           0       -1.615009   -0.505952    1.454972
     16          1           0       -0.139704   -1.414066    1.204967
     17          6           0       -1.447816   -1.386167   -0.507405
     18          1           0       -1.967003   -2.305683   -0.221775
     19          1           0       -0.686540   -1.652957   -1.249071
     20          1           0       -2.174118   -0.734141   -1.001680
 ---------------------------------------------------------------------

 SCF Done:  E(RB3LYP) =  -237.086189560     A.U. after    7 cycles

 The electronic state is 1-A.
 Alpha  occ. eigenvalues --  -10.18041 -10.17354 -10.17335 -10.16915 -10.16852
 Alpha  occ. eigenvalues --  -10.16706  -0.80721  -0.73896  -0.71073  -0.63568
 Alpha  occ. eigenvalues --   -0.61236  -0.53439  -0.46713  -0.45210  -0.42011
 Alpha  occ. eigenvalues --   -0.41035  -0.40150  -0.37754  -0.37302  -0.35944
 Alpha  occ. eigenvalues --   -0.34332  -0.33630  -0.31049  -0.30577  -0.30215
 Alpha virt. eigenvalues --    0.08154   0.11574   0.11969   0.13840   0.15616
 Alpha virt. eigenvalues --    0.15965   0.16203   0.16684   0.17265   0.19957
 Alpha virt. eigenvalues --    0.20088   0.21415   0.21983   0.23198   0.24038

 Mulliken charges:
               1
     1  C   -0.452959
     2  H    0.141686
     3  H    0.147755
     4  H    0.141820
     5  C   -0.249922
     6  H    0.131733
     7  H    0.128054
     8  C   -0.059125
     9  C   -0.453933
    10  H    0.139368
    11  H    0.139121
    12  H    0.143439
    13  H    0.116215
    14  C   -0.255903
    15  H    0.128080
    16  H    0.133477
    17  C   -0.454797
    18  H    0.142289
    19  H    0.146674
    20  H    0.146930
 Sum of Mulliken charges =   0.00000

 Dipole moment (field-independent basis, Debye):
    X=              0.0268    Y=             -0.0046    Z=              0.0476  Tot=              0.0548
 Quadrupole moment (field-independent basis, Debye-Ang):
   XX=            -41.6825   YY=            -41.6074   ZZ=            -41.4305
   XY=              0.2368   XZ=             -0.2215   YZ=              0.1250

 Normal termination of Gaussian 09 at Fri Nov 13 03:26:34 2020.
