 Gaussian 09, Revision D.01,

 -----------------
 #p b3lyp/6-31G(d)
 -----------------

 ------------------------------------------
 SET_328_BBB315_conf1_geo_180_270.n.pdb.xyz
 ------------------------------------------
 Symbolic Z-matrix:
 Charge =  0 Multiplicity = 1

 SCF Done:  E(RB3LYP) =  -513.825939353     A.U. after   15 cycles
 Normal termination of Gaussian 09 at Fri Nov 13 03:26:49 2020.
 Gaussian 09:  AM64L-G09RevD.01 24-Apr-2013

 ----------------------------------------------------------------------
 #p b3lyp/6-31G(d) scrf=(iefpcm,read,solvent=n-Octanol) geom=allcheck g
 uess=read
 ----------------------------------------------------------------------

 Structure from the checkpoint file:  "SET_328_BBB315_conf1_geo_180_270.n.pdb.xyz.mst.n.o.chk"
 ------------------------------------------
 SET_328_BBB315_conf1_geo_180_270.n.pdb.xyz
 ------------------------------------------
 Charge =  0 Multiplicity = 1

                         Standard orientation:
 ---------------------------------------------------------------------
 Center     Atomic      Atomic             Coordinates (Angstroms)
 Number     Number       Type             X           Y           Z
 ---------------------------------------------------------------------
      1          7           0        4.667263   -0.258522    0.461944
      2          1           0        4.995079    0.686285    0.267694
      3          1           0        4.922472   -0.808637   -0.359920
      4          6           0        3.210818   -0.248079    0.601823
      5          1           0        2.959544    0.339744    1.491749
      6          1           0        2.876910   -1.270491    0.798985
      7          6           0        2.423716    0.306544   -0.606493
      8          1           0        2.699764   -0.272782   -1.496316
      9          1           0        2.725967    1.343526   -0.789284
     10          6           0        0.939826    0.239467   -0.412779
     11          6           0        0.072046    1.293373   -0.196251
     12          1           0        0.225165    2.359020   -0.147036
     13          7           0       -1.175815    0.729648   -0.038904
     14          6           0       -2.403064    1.296091    0.192995
     15          1           0       -2.429372    2.374437    0.274626
     16          6           0       -3.501102    0.490462    0.307103
     17          1           0       -4.468033    0.943762    0.490810
     18          6           0       -3.371512   -0.921134    0.184154
     19          1           0       -4.251242   -1.548257    0.276556
     20          6           0       -2.141439   -1.488383   -0.048916
     21          1           0       -2.009668   -2.558610   -0.148196
     22          6           0       -1.001015   -0.661182   -0.167025
     23          7           0        0.277664   -0.961261   -0.392659
 ---------------------------------------------------------------------

 SCF Done:  E(RB3LYP) =  -513.841966498     A.U. after   11 cycles

 The electronic state is 1-A.
 Alpha  occ. eigenvalues --  -14.41399 -14.30831 -14.30772 -10.24794 -10.24035
 Alpha  occ. eigenvalues --  -10.21163 -10.20981 -10.20240 -10.20228 -10.20114
 Alpha  occ. eigenvalues --  -10.20088 -10.18274  -1.02920  -0.90444  -0.87468
 Alpha  occ. eigenvalues --   -0.83060  -0.77285  -0.74535  -0.71592  -0.64342
 Alpha  occ. eigenvalues --   -0.62237  -0.61408  -0.57149  -0.52825  -0.50265
 Alpha  occ. eigenvalues --   -0.48745  -0.48005  -0.46152  -0.45977  -0.44318
 Alpha  occ. eigenvalues --   -0.42868  -0.40665  -0.40001  -0.38337  -0.37208
 Alpha  occ. eigenvalues --   -0.36252  -0.34037  -0.33219  -0.31947  -0.27258
 Alpha  occ. eigenvalues --   -0.24609  -0.22642  -0.20806
 Alpha virt. eigenvalues --   -0.03109   0.00671   0.06523   0.08949   0.09608
 Alpha virt. eigenvalues --    0.11982   0.13553   0.14104   0.14354   0.15454
 Alpha virt. eigenvalues --    0.15804   0.16946   0.17750   0.18622   0.19268

 Mulliken charges:
               1
     1  N   -0.733561
     2  H    0.306972
     3  H    0.307437
     4  C   -0.139483
     5  H    0.140095
     6  H    0.154326
     7  C   -0.347700
     8  H    0.147299
     9  H    0.139722
    10  C    0.231805
    11  C   -0.044273
    12  H    0.168809
    13  N   -0.470349
    14  C    0.067742
    15  H    0.183618
    16  C   -0.194947
    17  H    0.159655
    18  C   -0.129379
    19  H    0.153970
    20  C   -0.191224
    21  H    0.157864
    22  C    0.513902
    23  N   -0.582300
 Sum of Mulliken charges =   0.00000

 Dipole moment (field-independent basis, Debye):
    X=             -2.7330    Y=              3.5172    Z=             -0.7881  Tot=              4.5234
 Quadrupole moment (field-independent basis, Debye-Ang):
   XX=            -62.5998   YY=            -63.8374   ZZ=            -74.6124
   XY=              4.0290   XZ=             -9.3657   YZ=              1.1087

 Normal termination of Gaussian 09 at Fri Nov 13 03:27:49 2020.
