 Gaussian 09, Revision D.01,

 -----------------
 #p b3lyp/6-31G(d)
 -----------------

 ------------------------------------------
 SET_328_BBB277_conf1_geo_210_060.n.pdb.xyz
 ------------------------------------------
 Symbolic Z-matrix:
 Charge =  0 Multiplicity = 1

 SCF Done:  E(RB3LYP) =  -899.148345489     A.U. after   15 cycles
 Normal termination of Gaussian 09 at Fri Nov 13 03:28:03 2020.
 Gaussian 09:  AM64L-G09RevD.01 24-Apr-2013

 ----------------------------------------------------------------------
 #p b3lyp/6-31G(d) scrf=(iefpcm,read,solvent=n-Octanol) geom=allcheck g
 uess=read
 ----------------------------------------------------------------------

 Structure from the checkpoint file:  "SET_328_BBB277_conf1_geo_210_060.n.pdb.xyz.mst.n.o.chk"
 ------------------------------------------
 SET_328_BBB277_conf1_geo_210_060.n.pdb.xyz
 ------------------------------------------
 Charge =  0 Multiplicity = 1

                         Standard orientation:
 ---------------------------------------------------------------------
 Center     Atomic      Atomic             Coordinates (Angstroms)
 Number     Number       Type             X           Y           Z
 ---------------------------------------------------------------------
      1          6           0        3.007619    2.364512   -0.247372
      2          1           0        3.563365    2.471927   -1.184710
      3          1           0        3.708645    2.583872    0.563212
      4          1           0        2.213206    3.111768   -0.229762
      5          6           0        2.438543    0.983753   -0.112094
      6          6           0        3.353309   -0.151503   -0.116640
      7          7           0        2.720884   -1.396533    0.012762
      8          6           0        1.369521   -1.666349    0.133433
      9          8           0        0.931457   -2.806092    0.224201
     10          1           0        3.323884   -2.211628    0.005538
     11          8           0        4.573655   -0.085381   -0.220533
     12          6           0        1.115219    0.739832    0.014431
     13          1           0        0.385247    1.539142    0.023871
     14          7           0        0.572173   -0.522849    0.152875
     15          6           0       -0.883790   -0.693614    0.205046
     16          8           0       -1.435340   -0.218246   -1.020691
     17          1           0       -1.036293   -1.766108    0.294892
     18          6           0       -1.582241    0.088628    1.339737
     19          1           0       -0.886368    0.494974    2.073361
     20          1           0       -2.289879   -0.571701    1.838750
     21          6           0       -2.354461    1.183630    0.622680
     22          9           0       -1.544880    2.331621    0.496935
     23          1           0       -3.267576    1.495051    1.129451
     24          6           0       -2.583198    0.606463   -0.772639
     25          1           0       -2.581760    1.405696   -1.518424
     26          6           0       -3.875298   -0.184440   -0.903868
     27          1           0       -3.874007   -0.684567   -1.881927
     28          1           0       -4.723059    0.516526   -0.881044
     29          8           0       -3.945685   -1.122126    0.161154
     30          1           0       -4.706930   -1.704585    0.005586
 ---------------------------------------------------------------------

 SCF Done:  E(RB3LYP) =  -899.172017867     A.U. after   11 cycles

 The electronic state is 1-A.
 Alpha  occ. eigenvalues --  -24.68979 -19.16570 -19.15624 -19.13044 -19.12568
 Alpha  occ. eigenvalues --  -14.39983 -14.38628 -10.33732 -10.30197 -10.28486
 Alpha  occ. eigenvalues --  -10.27520 -10.25036 -10.24788 -10.24120 -10.20478
 Alpha  occ. eigenvalues --  -10.19970 -10.18713  -1.19296  -1.07854  -1.05914
 Alpha  occ. eigenvalues --   -1.03940  -1.02559  -0.97374  -0.92651  -0.81630
 Alpha  occ. eigenvalues --   -0.80148  -0.77487  -0.71211  -0.69392  -0.67514
 Alpha  occ. eigenvalues --   -0.64864  -0.61226  -0.59579  -0.56679  -0.55067
 Alpha  occ. eigenvalues --   -0.53337  -0.52290  -0.50574  -0.50327  -0.48054
 Alpha  occ. eigenvalues --   -0.47443  -0.46191  -0.45190  -0.44319  -0.43743
 Alpha  occ. eigenvalues --   -0.42971  -0.42158  -0.41732  -0.40978  -0.40476
 Alpha  occ. eigenvalues --   -0.39160  -0.38938  -0.38361  -0.36798  -0.34876
 Alpha  occ. eigenvalues --   -0.34475  -0.34009  -0.33054  -0.29657  -0.28363
 Alpha  occ. eigenvalues --   -0.28219  -0.27387  -0.26129  -0.23416
 Alpha virt. eigenvalues --   -0.03365   0.01253   0.06572   0.07927   0.10321
 Alpha virt. eigenvalues --    0.10705   0.11768   0.12033   0.12632   0.12840
 Alpha virt. eigenvalues --    0.14148   0.14738   0.15274   0.16007   0.17565

 Mulliken charges:
               1
     1  C   -0.514457
     2  H    0.171628
     3  H    0.171439
     4  H    0.160464
     5  C    0.031691
     6  C    0.590994
     7  N   -0.706251
     8  C    0.792609
     9  O   -0.540793
    10  H    0.369597
    11  O   -0.536823
    12  C    0.039267
    13  H    0.195604
    14  N   -0.505476
    15  C    0.253292
    16  O   -0.505030
    17  H    0.189281
    18  C   -0.360266
    19  H    0.183811
    20  H    0.200750
    21  C    0.190418
    22  F   -0.325595
    23  H    0.165449
    24  C    0.075817
    25  H    0.169601
    26  C   -0.038559
    27  H    0.151297
    28  H    0.139356
    29  O   -0.639587
    30  H    0.430474
 Sum of Mulliken charges =   0.00000

 Dipole moment (field-independent basis, Debye):
    X=             -8.0214    Y=              1.8180    Z=              0.5152  Tot=              8.2410
 Quadrupole moment (field-independent basis, Debye-Ang):
   XX=            -91.4454   YY=           -102.2026   ZZ=            -95.1014
   XY=              2.8693   XZ=              4.0370   YZ=             -0.0607

 Normal termination of Gaussian 09 at Fri Nov 13 03:30:06 2020.
