 Gaussian 09, Revision D.01,

 -----------------
 #p b3lyp/6-31G(d)
 -----------------

 ----------------------------------------
 SET_328_BBB2_conf1_geo_240_060.n.pdb.xyz
 ----------------------------------------
 Symbolic Z-matrix:
 Charge =  0 Multiplicity = 1

 SCF Done:  E(RB3LYP) =  -1633.18996252     A.U. after   15 cycles
 Normal termination of Gaussian 09 at Fri Nov 13 03:29:52 2020.
 Gaussian 09:  AM64L-G09RevD.01 24-Apr-2013

 ----------------------------------------------------------------------
 #p b3lyp/6-31G(d) scrf=(iefpcm,read,solvent=n-Octanol) geom=allcheck g
 uess=read
 ----------------------------------------------------------------------

 Structure from the checkpoint file:  "SET_328_BBB2_conf1_geo_240_060.n.pdb.xyz.mst.n.o.chk"
 ----------------------------------------
 SET_328_BBB2_conf1_geo_240_060.n.pdb.xyz
 ----------------------------------------
 Charge =  0 Multiplicity = 1

                         Standard orientation:
 ---------------------------------------------------------------------
 Center     Atomic      Atomic             Coordinates (Angstroms)
 Number     Number       Type             X           Y           Z
 ---------------------------------------------------------------------
      1          6           0       -5.409595   -1.032257   -0.263920
      2          1           0       -5.152389   -2.024289   -0.666212
      3          1           0       -5.153602   -0.288521   -1.022859
      4          1           0       -6.492330   -0.999117   -0.114174
      5          7           0       -4.749641   -0.687822    0.995120
      6          1           0       -5.057542   -1.332827    1.720020
      7          6           0       -3.279008   -0.706183    0.966034
      8          6           0       -2.723398    0.475193    0.172177
      9          6           0       -1.503563    0.399110   -0.527414
     10          6           0       -1.046826    1.531480   -1.220630
     11          6           0       -1.765197    2.724479   -1.219025
     12          6           0       -2.965745    2.803040   -0.511193
     13          6           0       -3.433204    1.684727    0.173278
     14          1           0       -4.368741    1.716901    0.718831
     15          1           0       -3.534521    3.727731   -0.497385
     16          1           0       -1.388120    3.585100   -1.762656
     17          1           0       -0.108987    1.470149   -1.762926
     18          1           0       -2.977293   -0.553439    2.011246
     19          6           0       -2.651002   -2.033228    0.518184
     20          1           0       -3.027835   -2.312000   -0.471933
     21          1           0       -2.954334   -2.825035    1.211234
     22          6           0       -1.130558   -1.910849    0.474613
     23          1           0       -0.661825   -2.878721    0.268991
     24          1           0       -0.762359   -1.587044    1.456109
     25          6           0       -0.691781   -0.897129   -0.599990
     26          1           0       -0.899886   -1.357509   -1.575208
     27          6           0        0.812476   -0.681134   -0.548140
     28          6           0        1.408907    0.023624    0.503921
     29          1           0        0.799884    0.475669    1.277088
     30          6           0        2.791912    0.170430    0.574449
     31         17           0        3.473915    1.063512    1.915108
     32          6           0        3.609532   -0.389324   -0.414762
     33         17           0        5.349080   -0.224161   -0.364973
     34          6           0        3.025333   -1.090962   -1.468113
     35          1           0        3.661650   -1.518602   -2.232768
     36          6           0        1.641129   -1.232881   -1.529660
     37          1           0        1.198321   -1.781481   -2.354381
 ---------------------------------------------------------------------

 SCF Done:  E(RB3LYP) =  -1633.21042733     A.U. after   10 cycles

 The electronic state is 1-A.
 Alpha  occ. eigenvalues -- -101.55880-101.55847 -14.31654 -10.26694 -10.26547
 Alpha  occ. eigenvalues --  -10.21487 -10.21287 -10.21267 -10.21020 -10.20525
 Alpha  occ. eigenvalues --  -10.20498 -10.19600 -10.19581 -10.19106 -10.18786
 Alpha  occ. eigenvalues --  -10.18590 -10.18494 -10.18462 -10.17962 -10.17960
 Alpha  occ. eigenvalues --   -9.47497  -9.47467  -7.23907  -7.23876  -7.22927
 Alpha  occ. eigenvalues --   -7.22897  -7.22878  -7.22846  -0.91798  -0.90429
 Alpha  occ. eigenvalues --   -0.86406  -0.86110  -0.84318  -0.80931  -0.76951
 Alpha  occ. eigenvalues --   -0.75037  -0.73865  -0.73590  -0.70613  -0.66708
 Alpha  occ. eigenvalues --   -0.63179  -0.61908  -0.61102  -0.60255  -0.57841
 Alpha  occ. eigenvalues --   -0.54906  -0.51927  -0.50363  -0.49550  -0.48917
 Alpha  occ. eigenvalues --   -0.47232  -0.46617  -0.45297  -0.44245  -0.44047
 Alpha  occ. eigenvalues --   -0.43950  -0.42452  -0.41833  -0.41365  -0.40128
 Alpha  occ. eigenvalues --   -0.39631  -0.38803  -0.38240  -0.37786  -0.37470
 Alpha  occ. eigenvalues --   -0.36243  -0.35446  -0.35094  -0.34294  -0.34016
 Alpha  occ. eigenvalues --   -0.33212  -0.33039  -0.32261  -0.31178  -0.30845
 Alpha  occ. eigenvalues --   -0.26198  -0.24964  -0.24139  -0.23641  -0.21766
 Alpha virt. eigenvalues --   -0.02461  -0.02151  -0.00494   0.00063   0.00452
 Alpha virt. eigenvalues --    0.05913   0.08941   0.10264   0.10937   0.11087
 Alpha virt. eigenvalues --    0.11832   0.12992   0.13850   0.14570   0.15533

 Mulliken charges:
               1
     1  C   -0.313987
     2  H    0.131814
     3  H    0.157141
     4  H    0.150493
     5  N   -0.562159
     6  H    0.313318
     7  C   -0.033228
     8  C    0.079546
     9  C    0.102947
    10  C   -0.191769
    11  C   -0.141010
    12  C   -0.140320
    13  C   -0.182251
    14  H    0.147289
    15  H    0.134428
    16  H    0.135590
    17  H    0.133853
    18  H    0.146282
    19  C   -0.282744
    20  H    0.144931
    21  H    0.136795
    22  C   -0.276642
    23  H    0.144870
    24  H    0.143265
    25  C   -0.243343
    26  H    0.156946
    27  C    0.174689
    28  C   -0.172302
    29  H    0.165964
    30  C   -0.078479
    31  Cl  -0.001116
    32  C   -0.080911
    33  Cl  -0.001025
    34  C   -0.130883
    35  H    0.171291
    36  C   -0.193996
    37  H    0.154710
 Sum of Mulliken charges =   0.00000

 Dipole moment (field-independent basis, Debye):
    X=             -3.2876    Y=             -2.8800    Z=             -1.3104  Tot=              4.5628
 Quadrupole moment (field-independent basis, Debye-Ang):
   XX=           -139.6343   YY=           -125.0567   ZZ=           -126.9630
   XY=              3.9104   XZ=             -7.3057   YZ=             -0.6277

 Normal termination of Gaussian 09 at Fri Nov 13 03:33:16 2020.
