 Gaussian 09, Revision D.01,

 -----------------
 #p b3lyp/6-31G(d)
 -----------------

 -----------------------------------------
 SET_328_BBB87_conf1_geo_285_105.n.pdb.xyz
 -----------------------------------------
 Symbolic Z-matrix:
 Charge =  0 Multiplicity = 1

 SCF Done:  E(RB3LYP) =  -703.021132094     A.U. after   15 cycles
 Normal termination of Gaussian 09 at Fri Nov 13 03:26:46 2020.
 Gaussian 09:  AM64L-G09RevD.01 24-Apr-2013

 ----------------------------------------------------------------------
 #p b3lyp/6-31G(d) scrf=(iefpcm,read,solvent=n-Octanol) geom=allcheck g
 uess=read
 ----------------------------------------------------------------------

 Structure from the checkpoint file:  "SET_328_BBB87_conf1_geo_285_105.n.pdb.xyz.mst.n.o.chk"
 -----------------------------------------
 SET_328_BBB87_conf1_geo_285_105.n.pdb.xyz
 -----------------------------------------
 Charge =  0 Multiplicity = 1

                         Standard orientation:
 ---------------------------------------------------------------------
 Center     Atomic      Atomic             Coordinates (Angstroms)
 Number     Number       Type             X           Y           Z
 ---------------------------------------------------------------------
      1          7           0        2.415183    0.312008    1.151563
      2          1           0        2.761877    1.260839    1.004351
      3          1           0        3.103332   -0.144150    1.747261
      4          6           0        2.347802   -0.384124   -0.132492
      5          1           0        2.072939   -1.425188    0.062743
      6          1           0        3.298999   -0.407037   -0.687405
      7          6           0        1.296314    0.254759   -1.047048
      8          1           0        1.297096   -0.279988   -2.004345
      9          1           0        1.567386    1.292481   -1.263648
     10          6           0       -0.088300    0.282378   -0.476809
     11          7           0       -0.780969    1.366793   -0.269362
     12          6           0       -2.023954    1.076988    0.251597
     13          1           0       -2.703130    1.891246    0.474580
     14          6           0       -2.300192   -0.241508    0.449481
     15          1           0       -3.197434   -0.693895    0.846297
     16         16           0       -0.939411   -1.198555   -0.038976
 ---------------------------------------------------------------------

 SCF Done:  E(RB3LYP) =  -703.034525073     A.U. after   11 cycles

 The electronic state is 1-A.
 Alpha  occ. eigenvalues --  -88.90881 -14.33079 -14.31008 -10.25172 -10.21602
 Alpha  occ. eigenvalues --  -10.21522 -10.21248 -10.19750  -7.97068  -5.93445
 Alpha  occ. eigenvalues --   -5.93101  -5.92787  -0.95800  -0.88016  -0.79282
 Alpha  occ. eigenvalues --   -0.77771  -0.70896  -0.62472  -0.58097  -0.53799
 Alpha  occ. eigenvalues --   -0.49891  -0.48791  -0.45559  -0.44544  -0.41122
 Alpha  occ. eigenvalues --   -0.40026  -0.38420  -0.36724  -0.36293  -0.34769
 Alpha  occ. eigenvalues --   -0.27956  -0.27136  -0.23902  -0.23448
 Alpha virt. eigenvalues --   -0.01976   0.02395   0.05630   0.08440   0.10146
 Alpha virt. eigenvalues --    0.12747   0.13506   0.14083   0.16859   0.17160
 Alpha virt. eigenvalues --    0.18454   0.19153   0.22094   0.23629   0.23862

 Mulliken charges:
               1
     1  N   -0.730336
     2  H    0.309987
     3  H    0.316335
     4  C   -0.140423
     5  H    0.152618
     6  H    0.131273
     7  C   -0.334304
     8  H    0.168700
     9  H    0.171552
    10  C    0.131522
    11  N   -0.426410
    12  C    0.038130
    13  H    0.156744
    14  C   -0.353730
    15  H    0.191402
    16  S    0.216941
 Sum of Mulliken charges =   0.00000

 Dipole moment (field-independent basis, Debye):
    X=              1.7732    Y=             -1.1823    Z=             -0.1963  Tot=              2.1402
 Quadrupole moment (field-independent basis, Debye-Ang):
   XX=            -39.8196   YY=            -55.9550   ZZ=            -55.4930
   XY=              1.1692   XZ=             -1.6948   YZ=              0.3684

 Normal termination of Gaussian 09 at Fri Nov 13 03:27:15 2020.
