 Gaussian 09, Revision D.01,

 -----------------
 #p b3lyp/6-31G(d)
 -----------------

 ------------------------------------------
 SET_328_BBB212_conf1_geo_225_225.n.pdb.xyz
 ------------------------------------------
 Symbolic Z-matrix:
 Charge =  0 Multiplicity = 1

 SCF Done:  E(RB3LYP) =  -731.667298844     A.U. after   14 cycles
 Normal termination of Gaussian 09 at Fri Nov 13 03:28:25 2020.
 Gaussian 09:  AM64L-G09RevD.01 24-Apr-2013

 ----------------------------------------------------------------------
 #p b3lyp/6-31G(d) scrf=(iefpcm,read,solvent=n-Octanol) geom=allcheck g
 uess=read
 ----------------------------------------------------------------------

 Structure from the checkpoint file:  "SET_328_BBB212_conf1_geo_225_225.n.pdb.xyz.mst.n.o.chk"
 ------------------------------------------
 SET_328_BBB212_conf1_geo_225_225.n.pdb.xyz
 ------------------------------------------
 Charge =  0 Multiplicity = 1

                         Standard orientation:
 ---------------------------------------------------------------------
 Center     Atomic      Atomic             Coordinates (Angstroms)
 Number     Number       Type             X           Y           Z
 ---------------------------------------------------------------------
      1          6           0        0.067846    2.360676   -1.233238
      2          1           0        0.993432    2.940431   -1.207437
      3          1           0       -0.770363    3.064153   -1.250419
      4          1           0        0.053632    1.787562   -2.163187
      5          6           0        0.002652    1.444486    0.004994
      6          6           0       -0.057729    2.355506    1.246126
      7          1           0       -0.975816    2.947973    1.219864
      8          1           0        0.786491    3.049800    1.269639
      9          1           0       -0.054523    1.781025    2.177023
     10          6           0        1.255975    0.560780    0.004896
     11          6           0        2.330963    0.761944    0.875091
     12          6           0        3.480856   -0.029276    0.814732
     13          6           0        3.578528   -1.048367   -0.133096
     14          8           0        4.671070   -1.862225   -0.246090
     15          1           0        5.330254   -1.609450    0.420258
     16          6           0        2.514558   -1.266809   -1.017403
     17          6           0        1.378283   -0.471355   -0.939619
     18          1           0        0.556405   -0.663175   -1.621948
     19          1           0        2.592784   -2.062930   -1.750545
     20          1           0        4.297917    0.149780    1.506164
     21          1           0        2.286076    1.546155    1.623120
     22          6           0       -1.256394    0.567709   -0.000625
     23          6           0       -2.310803    0.753583   -0.901861
     24          1           0       -2.238440    1.521381   -1.661999
     25          6           0       -3.464690   -0.027561   -0.854737
     26          1           0       -4.271747    0.126420   -1.563285
     27          6           0       -3.589211   -1.027345    0.112204
     28          8           0       -4.737780   -1.768209    0.117780
     29          1           0       -4.694728   -2.423229    0.831936
     30          6           0       -2.548649   -1.233659    1.023260
     31          1           0       -2.631439   -2.012196    1.776996
     32          6           0       -1.403373   -0.445439    0.958765
     33          1           0       -0.599108   -0.629464    1.663365
 ---------------------------------------------------------------------

 SCF Done:  E(RB3LYP) =  -731.691031518     A.U. after   10 cycles

 The electronic state is 1-A.
 Alpha  occ. eigenvalues --  -19.17511 -19.17480 -10.24610 -10.24594 -10.20457
 Alpha  occ. eigenvalues --  -10.18703 -10.18666 -10.18611 -10.18580 -10.18564
 Alpha  occ. eigenvalues --  -10.18543 -10.18517 -10.18511 -10.18281 -10.18207
 Alpha  occ. eigenvalues --  -10.17331 -10.17316  -1.05496  -1.05491  -0.86323
 Alpha  occ. eigenvalues --   -0.84373  -0.80463  -0.74542  -0.74504  -0.73019
 Alpha  occ. eigenvalues --   -0.71735  -0.68578  -0.63171  -0.61953  -0.60711
 Alpha  occ. eigenvalues --   -0.59584  -0.55495  -0.54024  -0.54002  -0.49577
 Alpha  occ. eigenvalues --   -0.47652  -0.46253  -0.45055  -0.44379  -0.44296
 Alpha  occ. eigenvalues --   -0.41957  -0.41885  -0.41370  -0.40618  -0.40377
 Alpha  occ. eigenvalues --   -0.40047  -0.39532  -0.37920  -0.37877  -0.37178
 Alpha  occ. eigenvalues --   -0.34779  -0.34494  -0.33780  -0.33540  -0.31891
 Alpha  occ. eigenvalues --   -0.31737  -0.31384  -0.25115  -0.24802  -0.22145
 Alpha  occ. eigenvalues --   -0.20771
 Alpha virt. eigenvalues --   -0.00497   0.00358   0.01198   0.01986   0.08421
 Alpha virt. eigenvalues --    0.08466   0.09322   0.10702   0.12402   0.13409
 Alpha virt. eigenvalues --    0.14114   0.14390   0.15806   0.15942   0.16137

 Mulliken charges:
               1
     1  C   -0.458048
     2  H    0.149289
     3  H    0.147698
     4  H    0.151100
     5  C   -0.049254
     6  C   -0.458198
     7  H    0.149481
     8  H    0.147466
     9  H    0.149957
    10  C    0.162064
    11  C   -0.212146
    12  C   -0.207472
    13  C    0.346135
    14  O   -0.662660
    15  H    0.430955
    16  C   -0.176059
    17  C   -0.191386
    18  H    0.137394
    19  H    0.137748
    20  H    0.135214
    21  H    0.135461
    22  C    0.160471
    23  C   -0.210309
    24  H    0.134859
    25  C   -0.177747
    26  H    0.136802
    27  C    0.346154
    28  O   -0.662601
    29  H    0.430875
    30  C   -0.206087
    31  H    0.136762
    32  C   -0.191652
    33  H    0.137733
 Sum of Mulliken charges =   0.00000

 Dipole moment (field-independent basis, Debye):
    X=              1.2960    Y=              0.0957    Z=              2.5441  Tot=              2.8568
 Quadrupole moment (field-independent basis, Debye-Ang):
   XX=            -92.7222   YY=            -95.6781   ZZ=            -95.2629
   XY=              6.0613   XZ=              4.0833   YZ=             -5.8358

 Normal termination of Gaussian 09 at Fri Nov 13 03:30:39 2020.
