 Gaussian 09, Revision D.01,

 -----------------
 #p b3lyp/6-31G(d)
 -----------------

 ------------------------------------------
 SET_328_BBB212_conf1_geo_060_045.n.pdb.xyz
 ------------------------------------------
 Symbolic Z-matrix:
 Charge =  0 Multiplicity = 1

 SCF Done:  E(RB3LYP) =  -731.666418758     A.U. after   14 cycles
 Normal termination of Gaussian 09 at Fri Nov 13 03:28:26 2020.
 Gaussian 09:  AM64L-G09RevD.01 24-Apr-2013

 ----------------------------------------------------------------------
 #p b3lyp/6-31G(d) scrf=(iefpcm,read,solvent=n-Octanol) geom=allcheck g
 uess=read
 ----------------------------------------------------------------------

 Structure from the checkpoint file:  "SET_328_BBB212_conf1_geo_060_045.n.pdb.xyz.mst.n.o.chk"
 ------------------------------------------
 SET_328_BBB212_conf1_geo_060_045.n.pdb.xyz
 ------------------------------------------
 Charge =  0 Multiplicity = 1

                         Standard orientation:
 ---------------------------------------------------------------------
 Center     Atomic      Atomic             Coordinates (Angstroms)
 Number     Number       Type             X           Y           Z
 ---------------------------------------------------------------------
      1          6           0        0.046412    2.401665   -1.215837
      2          1           0        0.939092    3.030981   -1.168477
      3          1           0       -0.829858    3.055206   -1.252125
      4          1           0        0.087198    1.827764   -2.144092
      5          6           0       -0.002149    1.477388    0.015425
      6          6           0       -0.059598    2.369944    1.267056
      7          1           0        0.812474    3.028664    1.325761
      8          1           0       -0.107452    1.780822    2.185813
      9          1           0       -0.954023    2.996297    1.226742
     10          6           0        1.255241    0.592875    0.005394
     11          6           0        1.492756   -0.255974   -1.084626
     12          6           0        2.620432   -1.067055   -1.152415
     13          6           0        3.553418   -1.050211   -0.108963
     14          8           0        4.680499   -1.821976   -0.109970
     15          1           0        4.705869   -2.354646   -0.921267
     16          6           0        3.337829   -0.214930    0.987473
     17          6           0        2.202206    0.593910    1.035442
     18          1           0        2.058866    1.237125    1.896222
     19          1           0        4.063736   -0.205079    1.794105
     20          1           0        2.775959   -1.713516   -2.011205
     21          1           0        0.776455   -0.283786   -1.898477
     22          6           0       -1.254792    0.586523    0.005589
     23          6           0       -1.457464   -0.330756    1.046233
     24          1           0       -0.715135   -0.412857    1.832965
     25          6           0       -2.584489   -1.146824    1.098210
     26          1           0       -2.713996   -1.847735    1.918552
     27          6           0       -3.549955   -1.063681    0.087606
     28          8           0       -4.677385   -1.836294    0.073731
     29          1           0       -4.681809   -2.413226    0.854422
     30          6           0       -3.367689   -0.160611   -0.959799
     31          1           0       -4.117411   -0.101557   -1.740860
     32          6           0       -2.233266    0.650648   -0.992049
     33          1           0       -2.118234    1.344232   -1.816606
 ---------------------------------------------------------------------

 SCF Done:  E(RB3LYP) =  -731.690321134     A.U. after   10 cycles

 The electronic state is 1-A.
 Alpha  occ. eigenvalues --  -19.17507 -19.17482 -10.24610 -10.24597 -10.20494
 Alpha  occ. eigenvalues --  -10.18703 -10.18693 -10.18651 -10.18643 -10.18620
 Alpha  occ. eigenvalues --  -10.18616 -10.18566 -10.18565 -10.18220 -10.18200
 Alpha  occ. eigenvalues --  -10.17332 -10.17315  -1.05527  -1.05479  -0.86329
 Alpha  occ. eigenvalues --   -0.84408  -0.80479  -0.74625  -0.74462  -0.73114
 Alpha  occ. eigenvalues --   -0.71679  -0.68737  -0.63427  -0.61527  -0.60449
 Alpha  occ. eigenvalues --   -0.59924  -0.55657  -0.54066  -0.54018  -0.49109
 Alpha  occ. eigenvalues --   -0.47837  -0.47203  -0.44510  -0.44438  -0.44391
 Alpha  occ. eigenvalues --   -0.42037  -0.41878  -0.41278  -0.40797  -0.40490
 Alpha  occ. eigenvalues --   -0.40124  -0.38909  -0.38205  -0.37506  -0.37381
 Alpha  occ. eigenvalues --   -0.35129  -0.34990  -0.33616  -0.33356  -0.31833
 Alpha  occ. eigenvalues --   -0.31785  -0.31351  -0.24991  -0.24963  -0.22277
 Alpha  occ. eigenvalues --   -0.20676
 Alpha virt. eigenvalues --   -0.00183  -0.00170   0.01030   0.02394   0.08414
 Alpha virt. eigenvalues --    0.08461   0.09121   0.10788   0.12504   0.12848
 Alpha virt. eigenvalues --    0.14113   0.14508   0.15596   0.15690   0.16172

 Mulliken charges:
               1
     1  C   -0.462423
     2  H    0.150106
     3  H    0.147956
     4  H    0.151565
     5  C   -0.064200
     6  C   -0.461405
     7  H    0.147488
     8  H    0.151322
     9  H    0.149705
    10  C    0.175947
    11  C   -0.195709
    12  C   -0.206207
    13  C    0.346317
    14  O   -0.662390
    15  H    0.431136
    16  C   -0.178208
    17  C   -0.212216
    18  H    0.135042
    19  H    0.136651
    20  H    0.137072
    21  H    0.137554
    22  C    0.177144
    23  C   -0.196025
    24  H    0.137694
    25  C   -0.206319
    26  H    0.137217
    27  C    0.346131
    28  O   -0.662933
    29  H    0.431431
    30  C   -0.177942
    31  H    0.136590
    32  C   -0.213019
    33  H    0.134927
 Sum of Mulliken charges =   0.00000

 Dipole moment (field-independent basis, Debye):
    X=              0.0497    Y=             -1.2120    Z=             -0.0507  Tot=              1.2141
 Quadrupole moment (field-independent basis, Debye-Ang):
   XX=           -104.7966   YY=            -91.6361   ZZ=            -91.3993
   XY=              0.0942   XZ=            -10.9211   YZ=             -0.1401

 Normal termination of Gaussian 09 at Fri Nov 13 03:30:38 2020.
