 Gaussian 09, Revision D.01,

 -----------------
 #p b3lyp/6-31G(d)
 -----------------

 -----------------------------------------
 SET_328_BBB65_conf1_geo_060_150.n.pdb.xyz
 -----------------------------------------
 Symbolic Z-matrix:
 Charge =  0 Multiplicity = 1

 SCF Done:  E(RB3LYP) =  -717.616355024     A.U. after   14 cycles
 Normal termination of Gaussian 09 at Fri Nov 13 03:30:59 2020.
 Gaussian 09:  AM64L-G09RevD.01 24-Apr-2013

 ----------------------------------------------------------------------
 #p b3lyp/6-31G(d) scrf=(iefpcm,read,solvent=n-Octanol) geom=allcheck g
 uess=read
 ----------------------------------------------------------------------

 Structure from the checkpoint file:  "SET_328_BBB65_conf1_geo_060_150.n.pdb.xyz.mst.n.o.chk"
 -----------------------------------------
 SET_328_BBB65_conf1_geo_060_150.n.pdb.xyz
 -----------------------------------------
 Charge =  0 Multiplicity = 1

                         Standard orientation:
 ---------------------------------------------------------------------
 Center     Atomic      Atomic             Coordinates (Angstroms)
 Number     Number       Type             X           Y           Z
 ---------------------------------------------------------------------
      1          6           0        2.068095    3.118516   -0.057238
      2          6           0        2.101089    2.218944    1.180123
      3          6           0        0.912721    1.250448    1.193779
      4          1           0        0.998720    0.603088    2.066402
      5          1           0       -0.021939    1.830313    1.310131
      6          1           0        3.030140    1.636009    1.187486
      7          1           0        2.084709    2.816958    2.097729
      8          1           0        1.207096    3.796978    0.010848
      9          1           0        2.963574    3.746984   -0.105692
     10          6           0        1.934974    2.259975   -1.316225
     11          1           0        2.851451    1.678696   -1.462616
     12          1           0        1.803025    2.887758   -2.204220
     13          6           0        0.751780    1.293205   -1.201453
     14          1           0        0.708484    0.671680   -2.094380
     15          1           0       -0.187588    1.874485   -1.167672
     16          7           0        0.891613    0.429735   -0.021207
     17          6           0       -0.008433   -0.768663    0.003662
     18          6           0        0.329031   -1.660403   -1.226148
     19          6           0        1.795425   -2.109539   -1.240014
     20          6           0        2.155404   -2.893107    0.022326
     21          6           0        1.790492   -2.099499    1.278833
     22          6           0        0.325731   -1.644741    1.246571
     23          1           0        0.081005   -1.125160    2.174195
     24          1           0       -0.333194   -2.519984    1.207242
     25          1           0        2.434236   -1.215946    1.350029
     26          1           0        1.967465   -2.703961    2.176360
     27          1           0        3.223309   -3.145975    0.024802
     28          1           0        1.610423   -3.846436    0.025663
     29          1           0        2.430251   -1.220690   -1.306779
     30          1           0        1.983796   -2.717135   -2.132276
     31          1           0        0.100556   -1.148799   -2.162029
     32          1           0       -0.330022   -2.536666   -1.190618
     33          6           0       -1.502493   -0.359416    0.013117
     34          6           0       -2.149154   -0.000503    1.209872
     35          1           0       -1.617096   -0.059479    2.151231
     36          6           0       -3.478974    0.424303    1.222810
     37          1           0       -3.945603    0.689630    2.166565
     38          6           0       -4.205573    0.502798    0.035632
     39          1           0       -5.240713    0.830329    0.044327
     40          6           0       -3.584335    0.153272   -1.162721
     41          1           0       -4.134116    0.206220   -2.098462
     42          6           0       -2.253517   -0.268878   -1.169664
     43          1           0       -1.802846   -0.537317   -2.119393
 ---------------------------------------------------------------------

 SCF Done:  E(RB3LYP) =  -717.631383292     A.U. after    9 cycles

 The electronic state is 1-A.
 Alpha  occ. eigenvalues --  -14.31665 -10.22183 -10.19626 -10.19574 -10.18993
 Alpha  occ. eigenvalues --  -10.18654 -10.18638 -10.18544 -10.18392 -10.18370
 Alpha  occ. eigenvalues --  -10.17503 -10.17390 -10.17385 -10.17348 -10.17313
 Alpha  occ. eigenvalues --  -10.17103 -10.17081 -10.16933  -0.91794  -0.84898
 Alpha  occ. eigenvalues --   -0.82108  -0.78240  -0.75307  -0.75042  -0.73878
 Alpha  occ. eigenvalues --   -0.72946  -0.70987  -0.63860  -0.62489  -0.60731
 Alpha  occ. eigenvalues --   -0.60358  -0.58419  -0.57082  -0.55504  -0.53290
 Alpha  occ. eigenvalues --   -0.51138  -0.48789  -0.46567  -0.45626  -0.45218
 Alpha  occ. eigenvalues --   -0.44477  -0.44143  -0.42811  -0.42046  -0.41838
 Alpha  occ. eigenvalues --   -0.41459  -0.41228  -0.40013  -0.39161  -0.37712
 Alpha  occ. eigenvalues --   -0.36674  -0.36299  -0.35573  -0.35406  -0.34269
 Alpha  occ. eigenvalues --   -0.34019  -0.33809  -0.32980  -0.32259  -0.31744
 Alpha  occ. eigenvalues --   -0.31001  -0.30370  -0.29950  -0.28254  -0.24633
 Alpha  occ. eigenvalues --   -0.24302  -0.20176
 Alpha virt. eigenvalues --    0.00064   0.00207   0.07650   0.09894   0.10265
 Alpha virt. eigenvalues --    0.11167   0.11207   0.12598   0.13142   0.13690
 Alpha virt. eigenvalues --    0.15060   0.15541   0.15722   0.16239   0.16690

 Mulliken charges:
               1
     1  C   -0.263216
     2  C   -0.261230
     3  C   -0.126908
     4  H    0.140162
     5  H    0.116635
     6  H    0.136322
     7  H    0.130059
     8  H    0.128898
     9  H    0.132437
    10  C   -0.260892
    11  H    0.136686
    12  H    0.130028
    13  C   -0.126343
    14  H    0.139679
    15  H    0.117829
    16  N   -0.413984
    17  C    0.142703
    18  C   -0.300262
    19  C   -0.253603
    20  C   -0.259901
    21  C   -0.255753
    22  C   -0.302566
    23  H    0.141290
    24  H    0.137261
    25  H    0.147083
    26  H    0.126108
    27  H    0.126655
    28  H    0.125006
    29  H    0.147652
    30  H    0.124346
    31  H    0.141728
    32  H    0.135368
    33  C    0.160262
    34  C   -0.188060
    35  H    0.133740
    36  C   -0.147614
    37  H    0.135426
    38  C   -0.139673
    39  H    0.135437
    40  C   -0.146536
    41  H    0.135414
    42  C   -0.190279
    43  H    0.132603
 Sum of Mulliken charges =   0.00000

 Dipole moment (field-independent basis, Debye):
    X=             -0.0480    Y=              0.2662    Z=              0.0448  Tot=              0.2742
 Quadrupole moment (field-independent basis, Debye-Ang):
   XX=           -109.6189   YY=           -111.9850   ZZ=           -105.5690
   XY=             -0.8724   XZ=              0.4058   YZ=              0.6568

 Normal termination of Gaussian 09 at Fri Nov 13 03:34:28 2020.
