 Gaussian 09, Revision D.01,

 -----------------
 #p b3lyp/6-31G(d)
 -----------------

 ------------------------------------------
 SET_328_BBB315_conf1_geo_300_105.n.pdb.xyz
 ------------------------------------------
 Symbolic Z-matrix:
 Charge =  0 Multiplicity = 1

 SCF Done:  E(RB3LYP) =  -513.826996087     A.U. after   15 cycles
 Normal termination of Gaussian 09 at Fri Nov 13 03:26:51 2020.
 Gaussian 09:  AM64L-G09RevD.01 24-Apr-2013

 ----------------------------------------------------------------------
 #p b3lyp/6-31G(d) scrf=(iefpcm,read,solvent=n-Octanol) geom=allcheck g
 uess=read
 ----------------------------------------------------------------------

 Structure from the checkpoint file:  "SET_328_BBB315_conf1_geo_300_105.n.pdb.xyz.mst.n.o.chk"
 ------------------------------------------
 SET_328_BBB315_conf1_geo_300_105.n.pdb.xyz
 ------------------------------------------
 Charge =  0 Multiplicity = 1

                         Standard orientation:
 ---------------------------------------------------------------------
 Center     Atomic      Atomic             Coordinates (Angstroms)
 Number     Number       Type             X           Y           Z
 ---------------------------------------------------------------------
      1          7           0        3.437290    1.314747    0.089054
      2          1           0        3.907284    1.877742    0.795788
      3          1           0        2.474110    1.653212    0.035241
      4          6           0        3.389993   -0.081531    0.533827
      5          1           0        3.017054   -0.214002    1.563269
      6          1           0        4.409822   -0.487010    0.512375
      7          6           0        2.510632   -0.912898   -0.412531
      8          1           0        2.678093   -1.978886   -0.227813
      9          1           0        2.835498   -0.704826   -1.440081
     10          6           0        1.046578   -0.619877   -0.273346
     11          6           0        0.030467   -1.528399   -0.051104
     12          1           0        0.032113   -2.600043    0.063567
     13          7           0       -1.133659   -0.789787    0.013848
     14          6           0       -2.439190   -1.165648    0.213007
     15          1           0       -2.622357   -2.223914    0.344098
     16          6           0       -3.413707   -0.208654    0.234705
     17          1           0       -4.440203   -0.510931    0.392103
     18          6           0       -3.080526    1.160782    0.053900
     19          1           0       -3.865291    1.908263    0.074132
     20          6           0       -1.774971    1.538085   -0.146218
     21          1           0       -1.486651    2.571880   -0.288462
     22          6           0       -0.761036    0.554612   -0.171259
     23          7           0        0.555096    0.659280   -0.347202
 ---------------------------------------------------------------------

 SCF Done:  E(RB3LYP) =  -513.841891706     A.U. after   11 cycles

 The electronic state is 1-A.
 Alpha  occ. eigenvalues --  -14.41631 -14.31213 -14.29297 -10.25087 -10.24210
 Alpha  occ. eigenvalues --  -10.21399 -10.21152 -10.20392 -10.20279 -10.20205
 Alpha  occ. eigenvalues --  -10.20044 -10.18401  -1.03137  -0.90795  -0.86409
 Alpha  occ. eigenvalues --   -0.83282  -0.77249  -0.74785  -0.71755  -0.64649
 Alpha  occ. eigenvalues --   -0.62009  -0.61649  -0.56560  -0.52945  -0.50490
 Alpha  occ. eigenvalues --   -0.48355  -0.47360  -0.46442  -0.45621  -0.44945
 Alpha  occ. eigenvalues --   -0.44102  -0.41092  -0.39129  -0.37428  -0.37150
 Alpha  occ. eigenvalues --   -0.35611  -0.35006  -0.33321  -0.32194  -0.27433
 Alpha  occ. eigenvalues --   -0.23950  -0.22296  -0.21065
 Alpha virt. eigenvalues --   -0.03289   0.00470   0.06439   0.09319   0.10588
 Alpha virt. eigenvalues --    0.12112   0.13525   0.14300   0.15035   0.15872
 Alpha virt. eigenvalues --    0.16572   0.17316   0.17516   0.18175   0.19479

 Mulliken charges:
               1
     1  N   -0.761913
     2  H    0.300433
     3  H    0.325137
     4  C   -0.123815
     5  H    0.114908
     6  H    0.133596
     7  C   -0.338661
     8  H    0.145125
     9  H    0.158147
    10  C    0.244191
    11  C   -0.047508
    12  H    0.171158
    13  N   -0.472984
    14  C    0.069451
    15  H    0.185434
    16  C   -0.193772
    17  H    0.161051
    18  C   -0.128618
    19  H    0.155622
    20  C   -0.187492
    21  H    0.159830
    22  C    0.525169
    23  N   -0.594490
 Sum of Mulliken charges =   0.00000

 Dipole moment (field-independent basis, Debye):
    X=             -3.9256    Y=             -2.5510    Z=              1.9407  Tot=              5.0680
 Quadrupole moment (field-independent basis, Debye-Ang):
   XX=            -64.6713   YY=            -61.9733   ZZ=            -73.4303
   XY=             -2.6272   XZ=              4.3936   YZ=              2.0174

 Normal termination of Gaussian 09 at Fri Nov 13 03:27:52 2020.
