 Gaussian 09, Revision D.01,

 -----------------
 #p b3lyp/6-31G(d)
 -----------------

 -----------------------------------------
 SET_328_BBB23_conf1_geo_060_060.n.pdb.xyz
 -----------------------------------------
 Symbolic Z-matrix:
 Charge =  0 Multiplicity = 1

 SCF Done:  E(RB3LYP) =  -237.081280566     A.U. after   12 cycles
 Normal termination of Gaussian 09 at Fri Nov 13 03:26:14 2020.
 Gaussian 09:  AM64L-G09RevD.01 24-Apr-2013

 ----------------------------------------------------------------------
 #p b3lyp/6-31G(d) scrf=(iefpcm,read,solvent=n-Octanol) geom=allcheck g
 uess=read
 ----------------------------------------------------------------------

 Structure from the checkpoint file:  "SET_328_BBB23_conf1_geo_060_060.n.pdb.xyz.mst.n.o.chk"
 -----------------------------------------
 SET_328_BBB23_conf1_geo_060_060.n.pdb.xyz
 -----------------------------------------
 Charge =  0 Multiplicity = 1

                         Standard orientation:
 ---------------------------------------------------------------------
 Center     Atomic      Atomic             Coordinates (Angstroms)
 Number     Number       Type             X           Y           Z
 ---------------------------------------------------------------------
      1          6           0        1.452285   -1.367915   -0.508013
      2          1           0        2.166363   -0.698172   -0.996306
      3          1           0        0.694621   -1.635667   -1.251070
      4          1           0        1.985774   -2.283270   -0.234326
      5          6           0        0.821626   -0.710173    0.723120
      6          1           0        1.603672   -0.504523    1.461606
      7          1           0        0.133643   -1.420531    1.196628
      8          6           0        0.067555    0.601416    0.435186
      9          6           0        1.005002    1.679390   -0.113848
     10          1           0        1.836258    1.870217    0.572632
     11          1           0        0.471709    2.622687   -0.266849
     12          1           0        1.432344    1.379252   -1.074780
     13          1           0       -0.320003    0.963469    1.398522
     14          6           0       -1.141523    0.405802   -0.494371
     15          1           0       -0.793225    0.013963   -1.458908
     16          1           0       -1.575499    1.391026   -0.706500
     17          6           0       -2.224875   -0.515059    0.073378
     18          1           0       -2.616415   -0.125788    1.018901
     19          1           0       -1.833474   -1.517851    0.268631
     20          1           0       -3.066183   -0.615575   -0.620895
 ---------------------------------------------------------------------

 SCF Done:  E(RB3LYP) =  -237.085795056     A.U. after    7 cycles

 The electronic state is 1-A.
 Alpha  occ. eigenvalues --  -10.17880 -10.17273 -10.17269 -10.16890 -10.16814
 Alpha  occ. eigenvalues --  -10.16607  -0.80958  -0.73948  -0.71120  -0.63596
 Alpha  occ. eigenvalues --   -0.61293  -0.53407  -0.46864  -0.45319  -0.42089
 Alpha  occ. eigenvalues --   -0.41110  -0.40169  -0.37708  -0.37333  -0.35991
 Alpha  occ. eigenvalues --   -0.34361  -0.33609  -0.31015  -0.30590  -0.30242
 Alpha virt. eigenvalues --    0.08210   0.11570   0.11929   0.13811   0.15583
 Alpha virt. eigenvalues --    0.16078   0.16180   0.16747   0.17300   0.20093
 Alpha virt. eigenvalues --    0.20208   0.21554   0.22138   0.23420   0.24288

 Mulliken charges:
               1
     1  C   -0.455785
     2  H    0.147129
     3  H    0.147219
     4  H    0.142015
     5  C   -0.255006
     6  H    0.128544
     7  H    0.133181
     8  C   -0.059479
     9  C   -0.453739
    10  H    0.138684
    11  H    0.139354
    12  H    0.143650
    13  H    0.115796
    14  C   -0.249631
    15  H    0.131456
    16  H    0.128102
    17  C   -0.452959
    18  H    0.142090
    19  H    0.147907
    20  H    0.141472
 Sum of Mulliken charges =   0.00000

 Dipole moment (field-independent basis, Debye):
    X=             -0.0253    Y=             -0.0013    Z=              0.0479  Tot=              0.0542
 Quadrupole moment (field-independent basis, Debye-Ang):
   XX=            -41.7221   YY=            -41.6227   ZZ=            -41.4349
   XY=             -0.2446   XZ=              0.2171   YZ=              0.1376

 Normal termination of Gaussian 09 at Fri Nov 13 03:26:36 2020.
