 Gaussian 09, Revision D.01,

 -----------------
 #p b3lyp/6-31G(d)
 -----------------

 ------------------------------------------
 SET_328_BBB315_conf1_geo_180_090.n.pdb.xyz
 ------------------------------------------
 Symbolic Z-matrix:
 Charge =  0 Multiplicity = 1

 SCF Done:  E(RB3LYP) =  -513.825934423     A.U. after   15 cycles
 Normal termination of Gaussian 09 at Fri Nov 13 03:26:49 2020.
 Gaussian 09:  AM64L-G09RevD.01 24-Apr-2013

 ----------------------------------------------------------------------
 #p b3lyp/6-31G(d) scrf=(iefpcm,read,solvent=n-Octanol) geom=allcheck g
 uess=read
 ----------------------------------------------------------------------

 Structure from the checkpoint file:  "SET_328_BBB315_conf1_geo_180_090.n.pdb.xyz.mst.n.o.chk"
 ------------------------------------------
 SET_328_BBB315_conf1_geo_180_090.n.pdb.xyz
 ------------------------------------------
 Charge =  0 Multiplicity = 1

                         Standard orientation:
 ---------------------------------------------------------------------
 Center     Atomic      Atomic             Coordinates (Angstroms)
 Number     Number       Type             X           Y           Z
 ---------------------------------------------------------------------
      1          7           0       -4.667903   -0.254090    0.464420
      2          1           0       -4.925160   -0.801542   -0.353531
      3          1           0       -4.992083    0.692461    0.270326
      4          6           0       -3.210212   -0.248748    0.604065
      5          1           0       -2.879874   -1.273341    0.802326
      6          1           0       -2.955528    0.340726    1.492886
      7          6           0       -2.422954    0.300730   -0.607837
      8          1           0       -2.726607    1.337091   -0.795780
      9          1           0       -2.699029   -0.281793   -1.496364
     10          6           0       -0.940047    0.237161   -0.415946
     11          6           0       -0.073677    1.293008   -0.199162
     12          1           0       -0.229200    2.358261   -0.149628
     13          7           0        1.175683    0.730640   -0.040457
     14          6           0        2.403855    1.297260    0.193597
     15          1           0        2.428892    2.374563    0.276083
     16          6           0        3.499898    0.490775    0.308766
     17          1           0        4.464705    0.942234    0.494259
     18          6           0        3.371002   -0.919878    0.186934
     19          1           0        4.250317   -1.545526    0.281209
     20          6           0        2.141660   -1.487455   -0.048430
     21          1           0        2.009087   -2.557659   -0.146904
     22          6           0        1.001857   -0.660491   -0.168469
     23          7           0       -0.275467   -0.962214   -0.394817
 ---------------------------------------------------------------------

 SCF Done:  E(RB3LYP) =  -513.841954857     A.U. after   11 cycles

 The electronic state is 1-A.
 Alpha  occ. eigenvalues --  -14.41389 -14.30805 -14.30757 -10.24775 -10.24021
 Alpha  occ. eigenvalues --  -10.21161 -10.20993 -10.20274 -10.20214 -10.20100
 Alpha  occ. eigenvalues --  -10.20045 -10.18286  -1.02881  -0.90436  -0.87474
 Alpha  occ. eigenvalues --   -0.83069  -0.77303  -0.74538  -0.71587  -0.64342
 Alpha  occ. eigenvalues --   -0.62235  -0.61420  -0.57140  -0.52823  -0.50272
 Alpha  occ. eigenvalues --   -0.48761  -0.48026  -0.46148  -0.45967  -0.44320
 Alpha  occ. eigenvalues --   -0.42868  -0.40666  -0.40001  -0.38334  -0.37222
 Alpha  occ. eigenvalues --   -0.36265  -0.34034  -0.33231  -0.31942  -0.27250
 Alpha  occ. eigenvalues --   -0.24614  -0.22640  -0.20802
 Alpha virt. eigenvalues --   -0.03113   0.00689   0.06515   0.08971   0.09641
 Alpha virt. eigenvalues --    0.12000   0.13575   0.14092   0.14365   0.15448
 Alpha virt. eigenvalues --    0.15810   0.16949   0.17771   0.18586   0.19292

 Mulliken charges:
               1
     1  N   -0.733791
     2  H    0.308328
     3  H    0.306798
     4  C   -0.139542
     5  H    0.154092
     6  H    0.140163
     7  C   -0.348209
     8  H    0.139565
     9  H    0.147293
    10  C    0.232206
    11  C   -0.044333
    12  H    0.168785
    13  N   -0.471513
    14  C    0.068044
    15  H    0.183599
    16  C   -0.194682
    17  H    0.159449
    18  C   -0.129093
    19  H    0.153890
    20  C   -0.191199
    21  H    0.157774
    22  C    0.514469
    23  N   -0.582095
 Sum of Mulliken charges =   0.00000

 Dipole moment (field-independent basis, Debye):
    X=              2.7271    Y=              3.5131    Z=             -0.7811  Tot=              4.5154
 Quadrupole moment (field-independent basis, Debye-Ang):
   XX=            -62.5946   YY=            -63.8348   ZZ=            -74.6138
   XY=             -4.0037   XZ=              9.3887   YZ=              1.0911

 Normal termination of Gaussian 09 at Fri Nov 13 03:27:49 2020.
