 Gaussian 09, Revision D.01,

 -----------------
 #p b3lyp/6-31G(d)
 -----------------

 -----------------------------------------
 SET_328_BBB87_conf1_geo_075_240.n.pdb.xyz
 -----------------------------------------
 Symbolic Z-matrix:
 Charge =  0 Multiplicity = 1

 SCF Done:  E(RB3LYP) =  -703.024689562     A.U. after   15 cycles
 Normal termination of Gaussian 09 at Fri Nov 13 03:26:45 2020.
 Gaussian 09:  AM64L-G09RevD.01 24-Apr-2013

 ----------------------------------------------------------------------
 #p b3lyp/6-31G(d) scrf=(iefpcm,read,solvent=n-Octanol) geom=allcheck g
 uess=read
 ----------------------------------------------------------------------

 Structure from the checkpoint file:  "SET_328_BBB87_conf1_geo_075_240.n.pdb.xyz.mst.n.o.chk"
 -----------------------------------------
 SET_328_BBB87_conf1_geo_075_240.n.pdb.xyz
 -----------------------------------------
 Charge =  0 Multiplicity = 1

                         Standard orientation:
 ---------------------------------------------------------------------
 Center     Atomic      Atomic             Coordinates (Angstroms)
 Number     Number       Type             X           Y           Z
 ---------------------------------------------------------------------
      1          7           0       -2.832367    0.768412   -0.322017
      2          1           0       -2.073354    1.448144   -0.275094
      3          1           0       -3.637275    1.197229    0.138051
      4          6           0       -2.412320   -0.403933    0.444830
      5          1           0       -3.233194   -1.129848    0.444093
      6          1           0       -2.174654   -0.193968    1.501008
      7          6           0       -1.196578   -1.067380   -0.205446
      8          1           0       -1.419444   -1.224822   -1.266945
      9          1           0       -1.029111   -2.054007    0.235984
     10          6           0        0.059093   -0.252088   -0.082336
     11          7           0        0.102240    1.051623   -0.029683
     12          6           0        1.397444    1.513556    0.061411
     13          1           0        1.574752    2.580858    0.115130
     14          6           0        2.370718    0.560681    0.075606
     15          1           0        3.440779    0.690864    0.141996
     16         16           0        1.647015   -1.009982   -0.021045
 ---------------------------------------------------------------------

 SCF Done:  E(RB3LYP) =  -703.036197680     A.U. after   11 cycles

 The electronic state is 1-A.
 Alpha  occ. eigenvalues --  -88.91550 -14.33925 -14.29847 -10.25856 -10.22157
 Alpha  occ. eigenvalues --  -10.22038 -10.20732 -10.19897  -7.97735  -5.94109
 Alpha  occ. eigenvalues --   -5.93763  -5.93460  -0.96582  -0.87237  -0.79907
 Alpha  occ. eigenvalues --   -0.77940  -0.71209  -0.61943  -0.59255  -0.53395
 Alpha  occ. eigenvalues --   -0.50479  -0.48071  -0.46903  -0.42627  -0.41849
 Alpha  occ. eigenvalues --   -0.41355  -0.37171  -0.36903  -0.36297  -0.35620
 Alpha  occ. eigenvalues --   -0.28643  -0.27740  -0.24368  -0.22866
 Alpha virt. eigenvalues --   -0.02503   0.01743   0.04813   0.09575   0.10518
 Alpha virt. eigenvalues --    0.12022   0.13503   0.15896   0.16457   0.17102
 Alpha virt. eigenvalues --    0.18106   0.19731   0.21704   0.23206   0.25921

 Mulliken charges:
               1
     1  N   -0.756236
     2  H    0.324781
     3  H    0.305282
     4  C   -0.128254
     5  H    0.143130
     6  H    0.123871
     7  C   -0.310828
     8  H    0.180613
     9  H    0.162796
    10  C    0.098666
    11  N   -0.428883
    12  C    0.051476
    13  H    0.163083
    14  C   -0.361604
    15  H    0.197042
    16  S    0.235065
 Sum of Mulliken charges =   0.00000

 Dipole moment (field-independent basis, Debye):
    X=              1.3012    Y=             -0.3578    Z=              1.4356  Tot=              1.9703
 Quadrupole moment (field-independent basis, Debye-Ang):
   XX=            -49.0670   YY=            -51.0500   ZZ=            -57.9413
   XY=              2.9907   XZ=             -4.2991   YZ=              1.2992

 Normal termination of Gaussian 09 at Fri Nov 13 03:27:12 2020.
