 Gaussian 09, Revision D.01,

 -----------------
 #p b3lyp/6-31G(d)
 -----------------

 -----------------------------------------
 SET_328_BBB87_conf1_geo_180_090.n.pdb.xyz
 -----------------------------------------
 Symbolic Z-matrix:
 Charge =  0 Multiplicity = 1

 SCF Done:  E(RB3LYP) =  -703.022553356     A.U. after   15 cycles
 Normal termination of Gaussian 09 at Fri Nov 13 03:26:44 2020.
 Gaussian 09:  AM64L-G09RevD.01 24-Apr-2013

 ----------------------------------------------------------------------
 #p b3lyp/6-31G(d) scrf=(iefpcm,read,solvent=n-Octanol) geom=allcheck g
 uess=read
 ----------------------------------------------------------------------

 Structure from the checkpoint file:  "SET_328_BBB87_conf1_geo_180_090.n.pdb.xyz.mst.n.o.chk"
 -----------------------------------------
 SET_328_BBB87_conf1_geo_180_090.n.pdb.xyz
 -----------------------------------------
 Charge =  0 Multiplicity = 1

                         Standard orientation:
 ---------------------------------------------------------------------
 Center     Atomic      Atomic             Coordinates (Angstroms)
 Number     Number       Type             X           Y           Z
 ---------------------------------------------------------------------
      1          7           0       -3.591875    0.012206   -0.081631
      2          1           0       -3.772534   -0.987653   -0.040084
      3          1           0       -4.214354    0.371246   -0.803602
      4          6           0       -2.202935    0.236776   -0.488225
      5          1           0       -2.072126    1.302567   -0.694167
      6          1           0       -1.904728   -0.305789   -1.399815
      7          6           0       -1.255910   -0.156728    0.660205
      8          1           0       -1.389950   -1.216348    0.900679
      9          1           0       -1.534286    0.415950    1.551301
     10          6           0        0.184272    0.110793    0.334972
     11          7           0        0.716061    1.299219    0.262449
     12          6           0        2.044633    1.234343   -0.094425
     13          1           0        2.610844    2.151825   -0.186377
     14          6           0        2.551449   -0.015040   -0.303438
     15          1           0        3.555739   -0.299625   -0.580312
     16         16           0        1.307690   -1.192063   -0.041743
 ---------------------------------------------------------------------

 SCF Done:  E(RB3LYP) =  -703.035362539     A.U. after   11 cycles

 The electronic state is 1-A.
 Alpha  occ. eigenvalues --  -88.91392 -14.33431 -14.31085 -10.25490 -10.21932
 Alpha  occ. eigenvalues --  -10.21846 -10.21068 -10.19754  -7.97568  -5.93937
 Alpha  occ. eigenvalues --   -5.93594  -5.93300  -0.96187  -0.87977  -0.79679
 Alpha  occ. eigenvalues --   -0.78009  -0.70847  -0.62048  -0.58941  -0.53835
 Alpha  occ. eigenvalues --   -0.50305  -0.48516  -0.45897  -0.44139  -0.41589
 Alpha  occ. eigenvalues --   -0.40563  -0.38134  -0.36788  -0.36401  -0.34847
 Alpha  occ. eigenvalues --   -0.28337  -0.27397  -0.24285  -0.23672
 Alpha virt. eigenvalues --   -0.02317   0.01812   0.04953   0.08698   0.10430
 Alpha virt. eigenvalues --    0.12580   0.13561   0.14154   0.15917   0.16664
 Alpha virt. eigenvalues --    0.18388   0.19301   0.22276   0.23730   0.24702

 Mulliken charges:
               1
     1  N   -0.743708
     2  H    0.311434
     3  H    0.317010
     4  C   -0.130172
     5  H    0.157903
     6  H    0.127393
     7  C   -0.303603
     8  H    0.154431
     9  H    0.177223
    10  C    0.083425
    11  N   -0.418732
    12  C    0.040254
    13  H    0.159808
    14  C   -0.354952
    15  H    0.194403
    16  S    0.227882
 Sum of Mulliken charges =   0.00000

 Dipole moment (field-independent basis, Debye):
    X=              0.1561    Y=             -1.8904    Z=             -1.6940  Tot=              2.5431
 Quadrupole moment (field-independent basis, Debye-Ang):
   XX=            -45.2291   YY=            -55.3639   ZZ=            -55.9124
   XY=              4.1320   XZ=              3.7636   YZ=             -1.5263

 Normal termination of Gaussian 09 at Fri Nov 13 03:27:11 2020.
