 Gaussian 09, Revision D.01,

 -----------------
 #p b3lyp/6-31G(d)
 -----------------

 ------------------------------------------
 SET_328_BBB282_conf1_geo_000_090.n.pdb.xyz
 ------------------------------------------
 Symbolic Z-matrix:
 Charge =  0 Multiplicity = 1

 SCF Done:  E(RB3LYP) =  -799.721111242     A.U. after   16 cycles
 Normal termination of Gaussian 09 at Fri Nov 13 03:28:06 2020.
 Gaussian 09:  AM64L-G09RevD.01 24-Apr-2013

 ----------------------------------------------------------------------
 #p b3lyp/6-31G(d) scrf=(iefpcm,read,solvent=n-Octanol) geom=allcheck g
 uess=read
 ----------------------------------------------------------------------

 Structure from the checkpoint file:  "SET_328_BBB282_conf1_geo_000_090.n.pdb.xyz.mst.n.o.chk"
 ------------------------------------------
 SET_328_BBB282_conf1_geo_000_090.n.pdb.xyz
 ------------------------------------------
 Charge =  0 Multiplicity = 1

                         Standard orientation:
 ---------------------------------------------------------------------
 Center     Atomic      Atomic             Coordinates (Angstroms)
 Number     Number       Type             X           Y           Z
 ---------------------------------------------------------------------
      1          6           0       -1.117498    3.245569    0.911030
      2          1           0       -0.259733    3.333016    1.583270
      3          1           0       -1.885707    2.638832    1.395512
      4          1           0       -1.524493    4.246550    0.745435
      5          6           0       -0.711705    2.634465   -0.424822
      6          1           0        0.045191    3.242677   -0.921422
      7          1           0       -1.572369    2.537524   -1.083299
      8          7           0       -0.124634    1.288282   -0.277812
      9          6           0        1.212340    1.137385   -0.232300
     10          1           0        1.794264    2.043542   -0.345437
     11          6           0        1.875231   -0.058106   -0.062722
     12          6           0        3.350168    0.058025   -0.056490
     13          8           0        4.001914   -1.104464    0.124207
     14          1           0        4.952633   -0.880620    0.108012
     15          8           0        3.945883    1.116549   -0.199363
     16          6           0        1.114922   -1.298826    0.087195
     17          8           0        1.591910   -2.426436    0.246143
     18          6           0       -0.353059   -1.097532    0.027355
     19          6           0       -1.227334   -2.185704    0.141972
     20          1           0       -0.794082   -3.170969    0.273662
     21          6           0       -2.595356   -1.981895    0.081959
     22          1           0       -3.290371   -2.808833    0.166064
     23          6           0       -3.082504   -0.672266   -0.092476
     24          6           0       -4.558395   -0.387862   -0.144307
     25          1           0       -4.789353    0.281882   -0.977665
     26          1           0       -4.880804    0.115316    0.773120
     27          1           0       -5.138454   -1.306214   -0.251923
     28          7           0       -2.265582    0.379915   -0.203894
     29          6           0       -0.947289    0.167532   -0.146609
 ---------------------------------------------------------------------

 SCF Done:  E(RB3LYP) =  -799.742813865     A.U. after   11 cycles

 The electronic state is 1-A.
 Alpha  occ. eigenvalues --  -19.18935 -19.13141 -19.11469 -14.41445 -14.34318
 Alpha  occ. eigenvalues --  -10.32141 -10.28121 -10.27063 -10.26140 -10.24911
 Alpha  occ. eigenvalues --  -10.23765 -10.21597 -10.20966 -10.20515 -10.20389
 Alpha  occ. eigenvalues --  -10.18885 -10.18678  -1.10108  -1.02372  -1.01294
 Alpha  occ. eigenvalues --   -1.00567  -0.94981  -0.83344  -0.80598  -0.80172
 Alpha  occ. eigenvalues --   -0.76223  -0.72418  -0.68840  -0.66212  -0.64248
 Alpha  occ. eigenvalues --   -0.61745  -0.60143  -0.55728  -0.53657  -0.52595
 Alpha  occ. eigenvalues --   -0.48893  -0.48040  -0.47956  -0.47003  -0.45357
 Alpha  occ. eigenvalues --   -0.45189  -0.44380  -0.44275  -0.43211  -0.41490
 Alpha  occ. eigenvalues --   -0.40603  -0.40156  -0.39430  -0.39125  -0.38338
 Alpha  occ. eigenvalues --   -0.37951  -0.37477  -0.36360  -0.35454  -0.31408
 Alpha  occ. eigenvalues --   -0.29372  -0.28122  -0.27750  -0.27021  -0.24091
 Alpha  occ. eigenvalues --   -0.23068
 Alpha virt. eigenvalues --   -0.06123  -0.04744  -0.00374   0.02526   0.08778
 Alpha virt. eigenvalues --    0.09861   0.10395   0.10530   0.12173   0.12587
 Alpha virt. eigenvalues --    0.14346   0.15282   0.16051   0.16378   0.16651

 Mulliken charges:
               1
     1  C   -0.451987
     2  H    0.160813
     3  H    0.176141
     4  H    0.165719
     5  C   -0.150635
     6  H    0.175100
     7  H    0.193772
     8  N   -0.488526
     9  C    0.060630
    10  H    0.206088
    11  C   -0.062758
    12  C    0.552804
    13  O   -0.568166
    14  H    0.428131
    15  O   -0.524381
    16  C    0.381824
    17  O   -0.549346
    18  C    0.039417
    19  C   -0.137749
    20  H    0.172246
    21  C   -0.183189
    22  H    0.156594
    23  C    0.316550
    24  C   -0.512711
    25  H    0.178275
    26  H    0.182336
    27  H    0.167107
    28  N   -0.567345
    29  C    0.483244
 Sum of Mulliken charges =   0.00000

 Dipole moment (field-independent basis, Debye):
    X=             -5.5659    Y=              3.2952    Z=             -0.3068  Tot=              6.4755
 Quadrupole moment (field-independent basis, Debye-Ang):
   XX=            -89.8484   YY=            -96.1926   ZZ=            -96.8315
   XY=              4.0507   XZ=             -0.0688   YZ=              0.3455

 Normal termination of Gaussian 09 at Fri Nov 13 03:30:04 2020.
