 Gaussian 09, Revision D.01,

 -----------------
 #p b3lyp/6-31G(d)
 -----------------

 ------------------------------------------
 SET_328_BBB282_conf1_geo_000_270.n.pdb.xyz
 ------------------------------------------
 Symbolic Z-matrix:
 Charge =  0 Multiplicity = 1

 SCF Done:  E(RB3LYP) =  -799.721116516     A.U. after   16 cycles
 Normal termination of Gaussian 09 at Fri Nov 13 03:28:07 2020.
 Gaussian 09:  AM64L-G09RevD.01 24-Apr-2013

 ----------------------------------------------------------------------
 #p b3lyp/6-31G(d) scrf=(iefpcm,read,solvent=n-Octanol) geom=allcheck g
 uess=read
 ----------------------------------------------------------------------

 Structure from the checkpoint file:  "SET_328_BBB282_conf1_geo_000_270.n.pdb.xyz.mst.n.o.chk"
 ------------------------------------------
 SET_328_BBB282_conf1_geo_000_270.n.pdb.xyz
 ------------------------------------------
 Charge =  0 Multiplicity = 1

                         Standard orientation:
 ---------------------------------------------------------------------
 Center     Atomic      Atomic             Coordinates (Angstroms)
 Number     Number       Type             X           Y           Z
 ---------------------------------------------------------------------
      1          6           0        1.092166    3.260118    0.914868
      2          1           0        0.222537    3.349840    1.571581
      3          1           0        1.498928    4.261616    0.748577
      4          1           0        1.853796    2.658794    1.417284
      5          6           0        0.710680    2.638353   -0.424119
      6          1           0        1.583003    2.538963   -1.065992
      7          1           0       -0.037354    3.242329   -0.938665
      8          7           0        0.124865    1.291524   -0.278206
      9          6           0       -1.211910    1.137800   -0.234321
     10          1           0       -1.795236    2.042840   -0.349019
     11          6           0       -1.873225   -0.058129   -0.064117
     12          6           0       -3.346479    0.049873   -0.058949
     13          8           0       -3.990628   -1.118501    0.114096
     14          1           0       -4.942544   -0.900156    0.097897
     15          8           0       -3.949866    1.105516   -0.197754
     16          6           0       -1.110831   -1.296369    0.087691
     17          8           0       -1.581263   -2.425703    0.248156
     18          6           0        0.355833   -1.091903    0.029424
     19          6           0        1.225093   -2.181104    0.149834
     20          1           0        0.781699   -3.159693    0.285346
     21          6           0        2.592986   -1.979931    0.093410
     22          1           0        3.287805   -2.806767    0.183559
     23          6           0        3.083207   -0.672613   -0.086759
     24          6           0        4.559209   -0.394177   -0.156478
     25          1           0        4.813726    0.076742   -1.111121
     26          1           0        5.142029   -1.311310   -0.053071
     27          1           0        4.855912    0.300447    0.634355
     28          7           0        2.267989    0.381879   -0.201997
     29          6           0        0.949898    0.171755   -0.146366
 ---------------------------------------------------------------------

 SCF Done:  E(RB3LYP) =  -799.742768777     A.U. after   11 cycles

 The electronic state is 1-A.
 Alpha  occ. eigenvalues --  -19.18922 -19.13130 -19.11474 -14.41456 -14.34315
 Alpha  occ. eigenvalues --  -10.32123 -10.28112 -10.27034 -10.26170 -10.24907
 Alpha  occ. eigenvalues --  -10.23760 -10.21530 -10.20891 -10.20502 -10.20382
 Alpha  occ. eigenvalues --  -10.18884 -10.18720  -1.10077  -1.02386  -1.01323
 Alpha  occ. eigenvalues --   -1.00531  -0.94977  -0.83369  -0.80628  -0.80179
 Alpha  occ. eigenvalues --   -0.76237  -0.72421  -0.68865  -0.66225  -0.64254
 Alpha  occ. eigenvalues --   -0.61748  -0.60144  -0.55746  -0.53673  -0.52612
 Alpha  occ. eigenvalues --   -0.48875  -0.48049  -0.47962  -0.47016  -0.45370
 Alpha  occ. eigenvalues --   -0.45187  -0.44367  -0.44262  -0.43226  -0.41465
 Alpha  occ. eigenvalues --   -0.40617  -0.40157  -0.39440  -0.39165  -0.38350
 Alpha  occ. eigenvalues --   -0.37950  -0.37478  -0.36385  -0.35460  -0.31392
 Alpha  occ. eigenvalues --   -0.29372  -0.28116  -0.27733  -0.27021  -0.24097
 Alpha  occ. eigenvalues --   -0.23088
 Alpha virt. eigenvalues --   -0.06147  -0.04733  -0.00373   0.02546   0.08799
 Alpha virt. eigenvalues --    0.09831   0.10350   0.10666   0.12093   0.12625
 Alpha virt. eigenvalues --    0.14267   0.15384   0.15973   0.16315   0.16814

 Mulliken charges:
               1
     1  C   -0.451737
     2  H    0.161058
     3  H    0.165916
     4  H    0.175453
     5  C   -0.151743
     6  H    0.194554
     7  H    0.175304
     8  N   -0.489172
     9  C    0.060848
    10  H    0.205874
    11  C   -0.061427
    12  C    0.552168
    13  O   -0.568109
    14  H    0.428008
    15  O   -0.525323
    16  C    0.382586
    17  O   -0.548790
    18  C    0.037319
    19  C   -0.135861
    20  H    0.172354
    21  C   -0.184645
    22  H    0.156573
    23  C    0.316503
    24  C   -0.511964
    25  H    0.180315
    26  H    0.166469
    27  H    0.180646
    28  N   -0.567802
    29  C    0.484625
 Sum of Mulliken charges =   0.00000

 Dipole moment (field-independent basis, Debye):
    X=              5.5466    Y=              3.3039    Z=             -0.3538  Tot=              6.4658
 Quadrupole moment (field-independent basis, Debye-Ang):
   XX=            -90.0457   YY=            -96.1157   ZZ=            -96.7896
   XY=             -3.8961   XZ=             -0.0794   YZ=              0.3219

 Normal termination of Gaussian 09 at Fri Nov 13 03:30:11 2020.
