 Gaussian 09, Revision D.01,

 -----------------
 #p b3lyp/6-31G(d)
 -----------------

 -----------------------------------------
 SET_328_BBB23_conf1_geo_195_300.n.pdb.xyz
 -----------------------------------------
 Symbolic Z-matrix:
 Charge =  0 Multiplicity = 1

 SCF Done:  E(RB3LYP) =  -237.081759986     A.U. after   12 cycles
 Normal termination of Gaussian 09 at Fri Nov 13 03:26:12 2020.
 Gaussian 09:  AM64L-G09RevD.01 24-Apr-2013

 ----------------------------------------------------------------------
 #p b3lyp/6-31G(d) scrf=(iefpcm,read,solvent=n-Octanol) geom=allcheck g
 uess=read
 ----------------------------------------------------------------------

 Structure from the checkpoint file:  "SET_328_BBB23_conf1_geo_195_300.n.pdb.xyz.mst.n.o.chk"
 -----------------------------------------
 SET_328_BBB23_conf1_geo_195_300.n.pdb.xyz
 -----------------------------------------
 Charge =  0 Multiplicity = 1

                         Standard orientation:
 ---------------------------------------------------------------------
 Center     Atomic      Atomic             Coordinates (Angstroms)
 Number     Number       Type             X           Y           Z
 ---------------------------------------------------------------------
      1          6           0        2.442707   -0.415096   -0.101989
      2          1           0        3.039151   -1.231281   -0.519841
      3          1           0        2.795560   -0.233687    0.919716
      4          1           0        2.656820    0.483875   -0.689916
      5          6           0        0.952269   -0.761644   -0.114885
      6          1           0        0.802445   -1.705737    0.425421
      7          1           0        0.631969   -0.950264   -1.148134
      8          6           0        0.042822    0.307681    0.514173
      9          6           0        0.065611    1.624592   -0.270249
     10          1           0       -0.279990    1.482799   -1.300843
     11          1           0        1.073527    2.047449   -0.316791
     12          1           0       -0.583882    2.371241    0.198065
     13          1           0        0.438687    0.517338    1.519113
     14          6           0       -1.394687   -0.213711    0.711689
     15          1           0       -1.970407    0.545397    1.257251
     16          1           0       -1.357628   -1.096235    1.363193
     17          6           0       -2.144460   -0.577114   -0.571514
     18          1           0       -3.151115   -0.939347   -0.342292
     19          1           0       -1.630134   -1.365192   -1.131689
     20          1           0       -2.250577    0.285396   -1.236598
 ---------------------------------------------------------------------

 SCF Done:  E(RB3LYP) =  -237.086319543     A.U. after    7 cycles

 The electronic state is 1-A.
 Alpha  occ. eigenvalues --  -10.17949 -10.17344 -10.17302 -10.16904 -10.16799
 Alpha  occ. eigenvalues --  -10.16642  -0.80840  -0.74257  -0.70570  -0.64436
 Alpha  occ. eigenvalues --   -0.60554  -0.53659  -0.46141  -0.44665  -0.43803
 Alpha  occ. eigenvalues --   -0.41582  -0.38350  -0.37905  -0.37361  -0.36182
 Alpha  occ. eigenvalues --   -0.35051  -0.33006  -0.31061  -0.30703  -0.30146
 Alpha virt. eigenvalues --    0.08449   0.11658   0.12417   0.12881   0.15118
 Alpha virt. eigenvalues --    0.16099   0.16194   0.17372   0.17814   0.18660
 Alpha virt. eigenvalues --    0.19206   0.21270   0.22459   0.23412   0.24178

 Mulliken charges:
               1
     1  C   -0.451813
     2  H    0.141987
     3  H    0.141193
     4  H    0.146283
     5  C   -0.248973
     6  H    0.127546
     7  H    0.131639
     8  C   -0.057121
     9  C   -0.456119
    10  H    0.142513
    11  H    0.144590
    12  H    0.139324
    13  H    0.115754
    14  C   -0.252378
    15  H    0.126907
    16  H    0.127584
    17  C   -0.453716
    18  H    0.141706
    19  H    0.146819
    20  H    0.146273
 Sum of Mulliken charges =   0.00000

 Dipole moment (field-independent basis, Debye):
    X=              0.0028    Y=             -0.0302    Z=              0.0560  Tot=              0.0636
 Quadrupole moment (field-independent basis, Debye-Ang):
   XX=            -41.9405   YY=            -41.4847   ZZ=            -41.3359
   XY=             -0.1586   XZ=             -0.1221   YZ=              0.0266

 Normal termination of Gaussian 09 at Fri Nov 13 03:26:33 2020.
