 Gaussian 09, Revision D.01,

 -----------------
 #p b3lyp/6-31G(d)
 -----------------

 ------------------------------------------
 SET_328_BBB315_conf1_geo_285_285.n.pdb.xyz
 ------------------------------------------
 Symbolic Z-matrix:
 Charge =  0 Multiplicity = 1

 SCF Done:  E(RB3LYP) =  -513.826101592     A.U. after   15 cycles
 Normal termination of Gaussian 09 at Fri Nov 13 03:26:51 2020.
 Gaussian 09:  AM64L-G09RevD.01 24-Apr-2013

 ----------------------------------------------------------------------
 #p b3lyp/6-31G(d) scrf=(iefpcm,read,solvent=n-Octanol) geom=allcheck g
 uess=read
 ----------------------------------------------------------------------

 Structure from the checkpoint file:  "SET_328_BBB315_conf1_geo_285_285.n.pdb.xyz.mst.n.o.chk"
 ------------------------------------------
 SET_328_BBB315_conf1_geo_285_285.n.pdb.xyz
 ------------------------------------------
 Charge =  0 Multiplicity = 1

                         Standard orientation:
 ---------------------------------------------------------------------
 Center     Atomic      Atomic             Coordinates (Angstroms)
 Number     Number       Type             X           Y           Z
 ---------------------------------------------------------------------
      1          7           0        3.366583    0.633487    1.244882
      2          1           0        3.934341    0.378261    2.053588
      3          1           0        2.418788    0.742152    1.601041
      4          6           0        3.385616   -0.469657    0.277001
      5          1           0        3.037704   -1.431365    0.685191
      6          1           0        4.419360   -0.612522   -0.049135
      7          6           0        2.528872   -0.128316   -0.948522
      8          1           0        2.683086   -0.902258   -1.708892
      9          1           0        2.877169    0.821053   -1.366336
     10          6           0        1.065587   -0.038759   -0.639539
     11          6           0        0.290845    1.103157   -0.562288
     12          1           0        0.518582    2.145068   -0.718052
     13          7           0       -0.977698    0.676135   -0.228739
     14          6           0       -2.142783    1.371014   -0.025768
     15          1           0       -2.089055    2.445020   -0.138488
     16          6           0       -3.281312    0.688371    0.299970
     17          1           0       -4.196976    1.241507    0.459254
     18          6           0       -3.254903   -0.729874    0.425999
     19          1           0       -4.165251   -1.258249    0.684834
     20          6           0       -2.087977   -1.425084    0.221446
     21          1           0       -2.035367   -2.502510    0.309437
     22          6           0       -0.907085   -0.724226   -0.114420
     23          7           0        0.327750   -1.159037   -0.361245
 ---------------------------------------------------------------------

 SCF Done:  E(RB3LYP) =  -513.841139536     A.U. after   11 cycles

 The electronic state is 1-A.
 Alpha  occ. eigenvalues --  -14.41421 -14.30774 -14.30467 -10.24828 -10.24074
 Alpha  occ. eigenvalues --  -10.21111 -10.21012 -10.20287 -10.20168 -10.20145
 Alpha  occ. eigenvalues --  -10.20119 -10.18195  -1.02970  -0.90521  -0.87194
 Alpha  occ. eigenvalues --   -0.83090  -0.77199  -0.74554  -0.71848  -0.64543
 Alpha  occ. eigenvalues --   -0.62191  -0.61420  -0.56374  -0.52776  -0.50024
 Alpha  occ. eigenvalues --   -0.48665  -0.47762  -0.46615  -0.45645  -0.45025
 Alpha  occ. eigenvalues --   -0.43781  -0.41208  -0.39136  -0.37336  -0.37193
 Alpha  occ. eigenvalues --   -0.35695  -0.34821  -0.33133  -0.31988  -0.27160
 Alpha  occ. eigenvalues --   -0.23961  -0.22980  -0.20915
 Alpha virt. eigenvalues --   -0.03156   0.00611   0.06388   0.09443   0.09960
 Alpha virt. eigenvalues --    0.12132   0.13454   0.14192   0.14930   0.15759
 Alpha virt. eigenvalues --    0.16389   0.17093   0.17323   0.17972   0.18914

 Mulliken charges:
               1
     1  N   -0.747315
     2  H    0.310688
     3  H    0.306448
     4  C   -0.132562
     5  H    0.130691
     6  H    0.139157
     7  C   -0.325585
     8  H    0.150435
     9  H    0.146330
    10  C    0.220626
    11  C   -0.042864
    12  H    0.171108
    13  N   -0.470187
    14  C    0.067925
    15  H    0.184222
    16  C   -0.194817
    17  H    0.160109
    18  C   -0.129331
    19  H    0.154215
    20  C   -0.190559
    21  H    0.158026
    22  C    0.512924
    23  N   -0.579682
 Sum of Mulliken charges =   0.00000

 Dipole moment (field-independent basis, Debye):
    X=             -2.5976    Y=              1.9096    Z=              1.0466  Tot=              3.3896
 Quadrupole moment (field-independent basis, Debye-Ang):
   XX=            -61.6539   YY=            -68.2815   ZZ=            -69.2583
   XY=             -4.8298   XZ=              0.0334   YZ=             -2.5962

 Normal termination of Gaussian 09 at Fri Nov 13 03:27:53 2020.
