 Gaussian 09, Revision D.01,

 -----------------
 #p b3lyp/6-31G(d)
 -----------------

 ------------------------------------------
 SET_328_BBB212_conf1_geo_315_300.n.pdb.xyz
 ------------------------------------------
 Symbolic Z-matrix:
 Charge =  0 Multiplicity = 1

 SCF Done:  E(RB3LYP) =  -731.667263563     A.U. after   14 cycles
 Normal termination of Gaussian 09 at Fri Nov 13 03:28:29 2020.
 Gaussian 09:  AM64L-G09RevD.01 24-Apr-2013

 ----------------------------------------------------------------------
 #p b3lyp/6-31G(d) scrf=(iefpcm,read,solvent=n-Octanol) geom=allcheck g
 uess=read
 ----------------------------------------------------------------------

 Structure from the checkpoint file:  "SET_328_BBB212_conf1_geo_315_300.n.pdb.xyz.mst.n.o.chk"
 ------------------------------------------
 SET_328_BBB212_conf1_geo_315_300.n.pdb.xyz
 ------------------------------------------
 Charge =  0 Multiplicity = 1

                         Standard orientation:
 ---------------------------------------------------------------------
 Center     Atomic      Atomic             Coordinates (Angstroms)
 Number     Number       Type             X           Y           Z
 ---------------------------------------------------------------------
      1          6           0       -0.041332    2.374885   -1.223031
      2          1           0       -0.948156    2.984170   -1.194314
      3          1           0       -0.046466    1.804964   -2.155682
      4          1           0        0.816409    3.052801   -1.241004
      5          6           0        0.004019    1.452825    0.014004
      6          6           0        0.054704    2.358375    1.265212
      7          1           0        0.966966    2.959255    1.245512
      8          1           0        0.051209    1.775396    2.188067
      9          1           0       -0.801358    3.039417    1.290300
     10          6           0        1.261007    0.563536    0.011691
     11          6           0        1.402540   -0.450917    0.973316
     12          6           0        2.536326   -1.251429    1.037521
     13          6           0        3.578143   -1.057932    0.121088
     14          8           0        4.668082   -1.875211    0.224717
     15          1           0        5.318715   -1.633931   -0.454050
     16          6           0        3.460524   -0.058939   -0.846465
     17          6           0        2.312810    0.737196   -0.891673
     18          1           0        2.250187    1.504996   -1.653337
     19          1           0        4.259334    0.099429   -1.567034
     20          1           0        2.630264   -2.031107    1.784927
     21          1           0        0.599085   -0.625698    1.683539
     22          6           0       -1.258435    0.571892   -0.000783
     23          6           0       -1.447436   -0.357564   -1.038584
     24          1           0       -0.681829   -0.465655   -1.799881
     25          6           0       -2.585939   -1.149130   -1.117411
     26          1           0       -2.718236   -1.861659   -1.923894
     27          6           0       -3.583857   -1.035602   -0.139904
     28          8           0       -4.681556   -1.840309   -0.263276
     29          1           0       -5.296992   -1.656874    0.463978
     30          6           0       -3.417620   -0.123765    0.902626
     31          1           0       -4.181906   -0.026027    1.668928
     32          6           0       -2.266091    0.666451    0.963634
     33          1           0       -2.165614    1.365395    1.784980
 ---------------------------------------------------------------------

 SCF Done:  E(RB3LYP) =  -731.691186501     A.U. after   10 cycles

 The electronic state is 1-A.
 Alpha  occ. eigenvalues --  -19.17519 -19.17510 -10.24632 -10.24623 -10.20605
 Alpha  occ. eigenvalues --  -10.18711 -10.18691 -10.18639 -10.18618 -10.18586
 Alpha  occ. eigenvalues --  -10.18570 -10.18568 -10.18560 -10.18307 -10.18280
 Alpha  occ. eigenvalues --  -10.17369 -10.17355  -1.05524  -1.05511  -0.86228
 Alpha  occ. eigenvalues --   -0.84366  -0.80375  -0.74602  -0.74438  -0.72979
 Alpha  occ. eigenvalues --   -0.71750  -0.68627  -0.62604  -0.62080  -0.61551
 Alpha  occ. eigenvalues --   -0.59165  -0.55348  -0.54034  -0.54002  -0.49991
 Alpha  occ. eigenvalues --   -0.46913  -0.46050  -0.45718  -0.44520  -0.44293
 Alpha  occ. eigenvalues --   -0.42049  -0.41900  -0.40799  -0.40609  -0.40338
 Alpha  occ. eigenvalues --   -0.40276  -0.39419  -0.38416  -0.37397  -0.37221
 Alpha  occ. eigenvalues --   -0.35040  -0.34736  -0.33697  -0.33330  -0.31879
 Alpha  occ. eigenvalues --   -0.31707  -0.31443  -0.25068  -0.24838  -0.22183
 Alpha  occ. eigenvalues --   -0.20780
 Alpha virt. eigenvalues --   -0.00388   0.00182   0.01131   0.02101   0.08406
 Alpha virt. eigenvalues --    0.08489   0.09249   0.10725   0.12438   0.13173
 Alpha virt. eigenvalues --    0.14187   0.14408   0.15702   0.15761   0.16147

 Mulliken charges:
               1
     1  C   -0.460914
     2  H    0.149804
     3  H    0.151425
     4  H    0.147714
     5  C   -0.055430
     6  C   -0.458851
     7  H    0.149712
     8  H    0.151457
     9  H    0.147497
    10  C    0.167925
    11  C   -0.193574
    12  C   -0.175292
    13  C    0.345930
    14  O   -0.662204
    15  H    0.431136
    16  C   -0.207383
    17  C   -0.213181
    18  H    0.135338
    19  H    0.135576
    20  H    0.137899
    21  H    0.136532
    22  C    0.165775
    23  C   -0.192102
    24  H    0.136570
    25  C   -0.175448
    26  H    0.138025
    27  C    0.346084
    28  O   -0.662135
    29  H    0.431176
    30  C   -0.207362
    31  H    0.135601
    32  C   -0.213218
    33  H    0.135919
 Sum of Mulliken charges =   0.00000

 Dipole moment (field-independent basis, Debye):
    X=              0.0491    Y=              1.6076    Z=              0.0915  Tot=              1.6110
 Quadrupole moment (field-independent basis, Debye-Ang):
   XX=            -80.3514   YY=           -102.9599   ZZ=            -95.3032
   XY=              0.7418   XZ=            -17.7203   YZ=             -0.3546

 Normal termination of Gaussian 09 at Fri Nov 13 03:30:45 2020.
