 Gaussian 09, Revision D.01,

 -----------------
 #p b3lyp/6-31G(d)
 -----------------

 ----------------------------------------------
 SET_328_BBB321_conf1.geo_030_015_045.n.pdb.xyz
 ----------------------------------------------
 Symbolic Z-matrix:
 Charge =  0 Multiplicity = 1

 SCF Done:  E(RB3LYP) =  -1212.29677740     A.U. after   16 cycles
 Normal termination of Gaussian 09 at Thu Jan 28 04:43:41 2021.
 Gaussian 09:  AM64L-G09RevD.01 24-Apr-2013

 ----------------------------------------------------------------------
 #p b3lyp/6-31G(d) scrf=(iefpcm,read,solvent=n-Octanol) geom=allcheck g
 uess=read
 ----------------------------------------------------------------------

 Structure from the checkpoint file:  "SET_328_BBB321_conf1.geo_030_015_045.n.pdb.xyz.mst.n.o.chk"
 ----------------------------------------------
 SET_328_BBB321_conf1.geo_030_015_045.n.pdb.xyz
 ----------------------------------------------
 Charge =  0 Multiplicity = 1

                         Standard orientation:
 ---------------------------------------------------------------------
 Center     Atomic      Atomic             Coordinates (Angstroms)
 Number     Number       Type             X           Y           Z
 ---------------------------------------------------------------------
      1          6           0        5.047134    2.914067    0.030939
      2          1           0        5.956936    2.399399    0.346263
      3          1           0        4.870311    3.765723    0.688790
      4          1           0        5.201641    3.303191   -0.981437
      5          6           0        3.811639    2.030545    0.038327
      6          8           0        2.682807    2.507415   -0.009105
      7          7           0        4.079397    0.684560    0.077855
      8          1           0        5.058751    0.426641    0.114561
      9          6           0        3.183401   -0.404280    0.054175
     10          6           0        3.742302   -1.690770    0.091448
     11          6           0        2.912692   -2.808214    0.069460
     12          6           0        1.528848   -2.663232    0.011251
     13          1           0        0.896235   -3.543376   -0.006071
     14          1           0        3.351484   -3.799578    0.097947
     15          1           0        4.820330   -1.812761    0.136200
     16          6           0        1.792851   -0.252601   -0.003603
     17          1           0        1.358901    0.735682   -0.031847
     18          6           0        0.959465   -1.380225   -0.025930
     19          6           0       -0.504986   -1.194283   -0.086095
     20          7           0       -1.015638    0.087179   -0.132129
     21          6           0       -1.433641   -2.200444   -0.102067
     22          1           0       -1.272722   -3.268616   -0.073800
     23         16           0       -3.037218   -1.552094   -0.177362
     24          6           0       -2.322726    0.117697   -0.171171
     25          7           0       -3.029009    1.265918   -0.300083
     26          6           0       -4.268116    1.438197    0.078200
     27          7           0       -4.841737    2.652260   -0.172179
     28          1           0       -4.349430    3.225319   -0.843878
     29          1           0       -5.850704    2.712669   -0.213423
     30          7           0       -5.067039    0.527808    0.719090
     31          1           0       -4.601465   -0.219930    1.219695
     32          1           0       -5.882216    0.887003    1.200147
 ---------------------------------------------------------------------

 SCF Done:  E(RB3LYP) =  -1212.33274927     A.U. after   11 cycles

 The electronic state is 1-A.
 Alpha  occ. eigenvalues --  -88.90006 -19.11753 -14.37589 -14.36458 -14.35783
 Alpha  occ. eigenvalues --  -14.31380 -14.31363 -10.31257 -10.29534 -10.27362
 Alpha  occ. eigenvalues --  -10.23509 -10.21845 -10.20513 -10.19867 -10.19143
 Alpha  occ. eigenvalues --  -10.19054 -10.19031 -10.18516 -10.17754  -7.96192
 Alpha  occ. eigenvalues --   -5.92573  -5.92241  -5.91884  -1.03668  -1.00121
 Alpha  occ. eigenvalues --   -0.95407  -0.94056  -0.88912  -0.87973  -0.84792
 Alpha  occ. eigenvalues --   -0.78563  -0.77273  -0.75599  -0.72238  -0.70729
 Alpha  occ. eigenvalues --   -0.64692  -0.62763  -0.61687  -0.59601  -0.57205
 Alpha  occ. eigenvalues --   -0.56230  -0.54513  -0.52483  -0.51377  -0.49126
 Alpha  occ. eigenvalues --   -0.48507  -0.47979  -0.47386  -0.45188  -0.44555
 Alpha  occ. eigenvalues --   -0.43456  -0.43242  -0.42406  -0.41355  -0.40522
 Alpha  occ. eigenvalues --   -0.40271  -0.40011  -0.39111  -0.37396  -0.35649
 Alpha  occ. eigenvalues --   -0.35296  -0.34301  -0.31481  -0.29615  -0.28362
 Alpha  occ. eigenvalues --   -0.27917  -0.27220  -0.25719  -0.25082  -0.23998
 Alpha  occ. eigenvalues --   -0.22206  -0.19387
 Alpha virt. eigenvalues --   -0.03292  -0.00930  -0.00720   0.02252   0.04099
 Alpha virt. eigenvalues --    0.06590   0.07399   0.07761   0.09565   0.10344
 Alpha virt. eigenvalues --    0.11848   0.12934   0.13059   0.13476   0.14075

 Mulliken charges:
               1
     1  C   -0.544629
     2  H    0.164246
     3  H    0.187859
     4  H    0.192381
     5  C    0.596876
     6  O   -0.518435
     7  N   -0.713511
     8  H    0.355135
     9  C    0.359294
    10  C   -0.205274
    11  C   -0.149415
    12  C   -0.196875
    13  H    0.132234
    14  H    0.141128
    15  H    0.139800
    16  C   -0.243308
    17  H    0.196788
    18  C    0.098024
    19  C    0.277859
    20  N   -0.494041
    21  C   -0.418104
    22  H    0.182883
    23  S    0.157244
    24  C    0.241146
    25  N   -0.530444
    26  C    0.644181
    27  N   -0.754910
    28  H    0.367455
    29  H    0.364957
    30  N   -0.763986
    31  H    0.363778
    32  H    0.369663
 Sum of Mulliken charges =   0.00000

 Dipole moment (field-independent basis, Debye):
    X=             -2.8364    Y=             -0.3911    Z=              1.5192  Tot=              3.2413
 Quadrupole moment (field-independent basis, Debye-Ang):
   XX=            -32.9179   YY=           -107.0805   ZZ=           -117.0089
   XY=            -15.3548   XZ=             -6.3182   YZ=             -3.0476

 Normal termination of Gaussian 09 at Thu Jan 28 04:46:38 2021.
