 Gaussian 09, Revision D.01,

 -----------------
 #p b3lyp/6-31G(d)
 -----------------

 ---------------------------------------------
 SET_328_BBB29_conf1.geo_135_285_180.n.pdb.xyz
 ---------------------------------------------
 Symbolic Z-matrix:
 Charge =  0 Multiplicity = 1

 SCF Done:  E(RB3LYP) =  -1548.50899917     A.U. after   16 cycles
 Normal termination of Gaussian 09 at Sun Jan 24 23:16:55 2021.
 Gaussian 09:  AM64L-G09RevD.01 24-Apr-2013

 ----------------------------------------------------------------------
 #p b3lyp/6-31G(d) scrf=(iefpcm,read,solvent=n-Octanol) geom=allcheck g
 uess=read
 ----------------------------------------------------------------------

 Structure from the checkpoint file:  "SET_328_BBB29_conf1.geo_135_285_180.n.pdb.xyz.mst.n.o.chk"
 ---------------------------------------------
 SET_328_BBB29_conf1.geo_135_285_180.n.pdb.xyz
 ---------------------------------------------
 Charge =  0 Multiplicity = 1

                         Standard orientation:
 ---------------------------------------------------------------------
 Center     Atomic      Atomic             Coordinates (Angstroms)
 Number     Number       Type             X           Y           Z
 ---------------------------------------------------------------------
      1          7           0        2.796885    3.492911    1.645133
      2          1           0        2.772777    3.521396    2.663563
      3          1           0        2.757322    4.466483    1.346674
      4          6           0        1.608115    2.789722    1.153036
      5          1           0        0.655609    3.273968    1.431219
      6          1           0        1.590069    1.792016    1.598313
      7          6           0        1.663039    2.639244   -0.364206
      8          1           0        2.611475    2.167359   -0.638187
      9          1           0        1.652809    3.626492   -0.841811
     10          6           0        0.474666    1.851399   -0.921044
     11          1           0        0.507720    1.823497   -2.018446
     12          1           0       -0.442342    2.371629   -0.643171
     13          7           0        0.378505    0.501998   -0.354085
     14          6           0       -0.890574   -0.022736   -0.035411
     15          6           0       -2.071104    0.488969   -0.595403
     16          1           0       -2.040688    1.282312   -1.329304
     17          6           0       -3.302219   -0.036306   -0.211703
     18         17           0       -4.761859    0.649557   -0.913000
     19          6           0       -3.409218   -1.092500    0.683646
     20          1           0       -4.379111   -1.487395    0.961810
     21          6           0       -2.234047   -1.633463    1.204802
     22          1           0       -2.284777   -2.469199    1.894987
     23          6           0       -0.990902   -1.101049    0.869115
     24         16           0        0.492916   -1.716887    1.634879
     25          6           0        1.587229   -1.535669    0.241256
     26          6           0        1.433096   -0.414621   -0.595642
     27          6           0        2.334445   -0.246886   -1.657161
     28          1           0        2.226919    0.600243   -2.320906
     29          6           0        3.371934   -1.158086   -1.857208
     30          1           0        4.064915   -0.999229   -2.677212
     31          6           0        3.511675   -2.266489   -1.026227
     32          1           0        4.315049   -2.978459   -1.185680
     33          6           0        2.604295   -2.462021    0.015067
     34          1           0        2.686890   -3.324819    0.666249
 ---------------------------------------------------------------------

 SCF Done:  E(RB3LYP) =  -1548.53156231     A.U. after   11 cycles

 The electronic state is 1-A.
 Alpha  occ. eigenvalues -- -101.55289 -88.89631 -14.37384 -14.30665 -10.25719
 Alpha  occ. eigenvalues --  -10.25041 -10.24132 -10.22960 -10.22696 -10.22525
 Alpha  occ. eigenvalues --  -10.20856 -10.20674 -10.20308 -10.20092 -10.19955
 Alpha  occ. eigenvalues --  -10.19622 -10.19537 -10.19205 -10.18296  -9.46922
 Alpha  occ. eigenvalues --   -7.95673  -7.23310  -7.22354  -7.22323  -5.92174
 Alpha  occ. eigenvalues --   -5.91823  -5.91173  -0.97497  -0.89432  -0.87442
 Alpha  occ. eigenvalues --   -0.86257  -0.84935  -0.80079  -0.77760  -0.76745
 Alpha  occ. eigenvalues --   -0.74660  -0.73465  -0.68853  -0.67104  -0.63412
 Alpha  occ. eigenvalues --   -0.61815  -0.60791  -0.58375  -0.56708  -0.54191
 Alpha  occ. eigenvalues --   -0.51599  -0.49120  -0.48808  -0.48181  -0.47415
 Alpha  occ. eigenvalues --   -0.46857  -0.46089  -0.44951  -0.44346  -0.43051
 Alpha  occ. eigenvalues --   -0.41803  -0.41242  -0.41034  -0.39953  -0.38928
 Alpha  occ. eigenvalues --   -0.38393  -0.36951  -0.36695  -0.35538  -0.35148
 Alpha  occ. eigenvalues --   -0.34633  -0.34195  -0.32844  -0.31816  -0.30795
 Alpha  occ. eigenvalues --   -0.29324  -0.26329  -0.25404  -0.23279  -0.23110
 Alpha  occ. eigenvalues --   -0.19529
 Alpha virt. eigenvalues --   -0.02256  -0.01801  -0.00877   0.00306   0.02173
 Alpha virt. eigenvalues --    0.03706   0.07506   0.08877   0.09649   0.11764
 Alpha virt. eigenvalues --    0.12754   0.13371   0.13782   0.13918   0.14344

 Mulliken charges:
               1
     1  N   -0.744887
     2  H    0.312265
     3  H    0.305960
     4  C   -0.133821
     5  H    0.115027
     6  H    0.161930
     7  C   -0.272533
     8  H    0.158805
     9  H    0.142877
    10  C   -0.165290
    11  H    0.159234
    12  H    0.166695
    13  N   -0.576295
    14  C    0.313652
    15  C   -0.172970
    16  H    0.170288
    17  C   -0.088198
    18  Cl  -0.035838
    19  C   -0.127920
    20  H    0.162770
    21  C   -0.183611
    22  H    0.162976
    23  C   -0.121191
    24  S    0.151600
    25  C   -0.127533
    26  C    0.305424
    27  C   -0.165930
    28  H    0.151133
    29  C   -0.156906
    30  H    0.146432
    31  C   -0.126387
    32  H    0.143845
    33  C   -0.184712
    34  H    0.153109
 Sum of Mulliken charges =   0.00000

 Dipole moment (field-independent basis, Debye):
    X=              1.0892    Y=              1.7067    Z=             -0.6251  Tot=              2.1189
 Quadrupole moment (field-independent basis, Debye-Ang):
   XX=           -133.2298   YY=           -111.1521   ZZ=           -120.1681
   XY=              0.4050   XZ=             -7.8350   YZ=             -1.1532

 Normal termination of Gaussian 09 at Sun Jan 24 23:20:43 2021.
