 Gaussian 09, Revision D.01,

 -----------------
 #p b3lyp/6-31G(d)
 -----------------

 ----------------------------------------------
 SET_328_BBB324_conf1.geo_180_120_300.n.pdb.xyz
 ----------------------------------------------
 Symbolic Z-matrix:
 Charge =  0 Multiplicity = 1

 SCF Done:  E(RB3LYP) =  -1692.24411093     A.U. after   16 cycles
 Normal termination of Gaussian 09 at Thu Jan 28 05:05:32 2021.
 Gaussian 09:  AM64L-G09RevD.01 24-Apr-2013

 ----------------------------------------------------------------------
 #p b3lyp/6-31G(d) scrf=(iefpcm,read,solvent=n-Octanol) geom=allcheck g
 uess=read
 ----------------------------------------------------------------------

 Structure from the checkpoint file:  "SET_328_BBB324_conf1.geo_180_120_300.n.pdb.xyz.mst.n.o.chk"
 ----------------------------------------------
 SET_328_BBB324_conf1.geo_180_120_300.n.pdb.xyz
 ----------------------------------------------
 Charge =  0 Multiplicity = 1

                         Standard orientation:
 ---------------------------------------------------------------------
 Center     Atomic      Atomic             Coordinates (Angstroms)
 Number     Number       Type             X           Y           Z
 ---------------------------------------------------------------------
      1          6           0        0.423263   -2.367234   -1.231825
      2          1           0       -0.106111   -3.064676   -0.577629
      3          1           0        1.093972   -2.911711   -1.891780
      4          1           0       -0.311036   -1.818194   -1.830282
      5          7           0        1.225498   -1.453793   -0.428643
      6          6           0        0.519990   -0.589151    0.520568
      7          1           0        1.058956   -0.571935    1.473285
      8          1           0       -0.472235   -1.001320    0.693223
      9          6           0        0.385538    0.783600   -0.039191
     10          6           0       -0.660761    1.561724   -0.491052
     11          6           0       -2.074912    1.221834   -0.475394
     12          7           0       -3.017356    2.029581   -0.908853
     13          8           0       -4.193763    1.276589   -0.695583
     14          6           0       -3.816429    0.105153   -0.158980
     15          7           0       -2.532971    0.005866    0.002242
     16          6           0       -4.898562   -0.910432    0.166621
     17          6           0       -5.587487   -1.374226   -1.118074
     18          1           0       -6.032480   -0.533666   -1.654229
     19          1           0       -6.369977   -2.091335   -0.863295
     20          1           0       -4.864925   -1.865476   -1.772266
     21          8           0       -4.316046   -2.035923    0.787385
     22          1           0       -4.150631   -1.756795    1.707360
     23          6           0       -5.903252   -0.273592    1.137604
     24          8           0       -5.187272   -0.058049    2.347096
     25          1           0       -5.821838    0.080912    3.066721
     26          1           0       -6.730313   -0.978266    1.280358
     27          1           0       -6.300894    0.662688    0.728606
     28          7           0       -0.191354    2.767394   -0.985397
     29          6           0        1.107257    2.721439   -0.836219
     30          1           0        1.808775    3.485850   -1.132291
     31          7           0        1.523294    1.536043   -0.269396
     32          6           0        2.835780    1.174260    0.133226
     33          6           0        3.654783    2.165775    0.678597
     34          1           0        3.273403    3.175059    0.777400
     35          6           0        4.931679    1.843293    1.119308
     36          1           0        5.567724    2.611153    1.546238
     37          6           0        5.382491    0.526168    1.052582
     38          1           0        6.359127    0.249695    1.428173
     39          6           0        4.559897   -0.451614    0.500318
     40         17           0        5.173009   -2.093825    0.486222
     41          6           0        3.277235   -0.159674    0.004372
     42          6           0        2.516888   -1.208645   -0.788457
     43          8           0        3.082975   -1.793200   -1.708783
 ---------------------------------------------------------------------

 SCF Done:  E(RB3LYP) =  -1692.27456221     A.U. after   11 cycles

 The electronic state is 1-A.
 Alpha  occ. eigenvalues -- -101.55644 -19.24983 -19.16408 -19.15154 -19.12401
 Alpha  occ. eigenvalues --  -14.42079 -14.38954 -14.37914 -14.34625 -14.33615
 Alpha  occ. eigenvalues --  -10.30356 -10.29571 -10.27354 -10.27146 -10.27012
 Alpha  occ. eigenvalues --  -10.26721 -10.26004 -10.24519 -10.24434 -10.24334
 Alpha  occ. eigenvalues --  -10.23596 -10.23177 -10.21966 -10.21844 -10.21736
 Alpha  occ. eigenvalues --  -10.21656 -10.19047  -9.47274  -7.23690  -7.22708
 Alpha  occ. eigenvalues --   -7.22640  -1.16607  -1.05154  -1.05105  -1.04218
 Alpha  occ. eigenvalues --   -1.02009  -0.95141  -0.94590  -0.92577  -0.89894
 Alpha  occ. eigenvalues --   -0.87726  -0.84736  -0.80047  -0.79022  -0.78604
 Alpha  occ. eigenvalues --   -0.75379  -0.73075  -0.71011  -0.69839  -0.67614
 Alpha  occ. eigenvalues --   -0.66490  -0.65418  -0.63463  -0.60312  -0.58848
 Alpha  occ. eigenvalues --   -0.57832  -0.56700  -0.54708  -0.53610  -0.53321
 Alpha  occ. eigenvalues --   -0.52167  -0.51120  -0.49867  -0.49618  -0.49346
 Alpha  occ. eigenvalues --   -0.48747  -0.47532  -0.47334  -0.45894  -0.45286
 Alpha  occ. eigenvalues --   -0.44741  -0.43588  -0.42601  -0.42437  -0.42159
 Alpha  occ. eigenvalues --   -0.41879  -0.40990  -0.40569  -0.40068  -0.39753
 Alpha  occ. eigenvalues --   -0.39192  -0.38827  -0.38694  -0.37746  -0.36411
 Alpha  occ. eigenvalues --   -0.36052  -0.35139  -0.34369  -0.33884  -0.32128
 Alpha  occ. eigenvalues --   -0.31480  -0.30535  -0.29624  -0.29276  -0.28926
 Alpha  occ. eigenvalues --   -0.28098  -0.27790  -0.25982  -0.25841  -0.25119
 Alpha  occ. eigenvalues --   -0.23603
 Alpha virt. eigenvalues --   -0.04952  -0.04372  -0.03176   0.00121   0.01693
 Alpha virt. eigenvalues --    0.02194   0.02808   0.06925   0.07694   0.10015
 Alpha virt. eigenvalues --    0.10504   0.11113   0.11404   0.11694   0.11987

 Mulliken charges:
               1
     1  C   -0.327480
     2  H    0.174350
     3  H    0.197460
     4  H    0.174017
     5  N   -0.395343
     6  C   -0.267792
     7  H    0.192827
     8  H    0.228946
     9  C    0.320064
    10  C    0.121687
    11  C    0.418942
    12  N   -0.243443
    13  O   -0.384778
    14  C    0.604319
    15  N   -0.547975
    16  C    0.214632
    17  C   -0.462740
    18  H    0.169749
    19  H    0.170786
    20  H    0.174584
    21  O   -0.653622
    22  H    0.420534
    23  C   -0.050629
    24  O   -0.648626
    25  H    0.436271
    26  H    0.154077
    27  H    0.154483
    28  N   -0.512832
    29  C    0.213442
    30  H    0.191519
    31  N   -0.560730
    32  C    0.282610
    33  C   -0.154965
    34  H    0.173931
    35  C   -0.136760
    36  H    0.172990
    37  C   -0.127057
    38  H    0.175818
    39  C   -0.131311
    40  Cl   0.007788
    41  C    0.050941
    42  C    0.534606
    43  O   -0.525287
 Sum of Mulliken charges =   0.00000

 Dipole moment (field-independent basis, Debye):
    X=             -2.5687    Y=              0.7667    Z=              6.0761  Tot=              6.6412
 Quadrupole moment (field-independent basis, Debye-Ang):
   XX=           -119.1484   YY=           -169.8589   ZZ=           -156.1518
   XY=             31.1640   XZ=             -2.1566   YZ=              4.5105

 Normal termination of Gaussian 09 at Thu Jan 28 05:12:42 2021.
