 Gaussian 09, Revision D.01,

 -----------------
 #p b3lyp/6-31G(d)
 -----------------

 ----------------------------------------------
 SET_328_BBB301_conf1.geo_165_105_270.n.pdb.xyz
 ----------------------------------------------
 Symbolic Z-matrix:
 Charge =  0 Multiplicity = 1

 SCF Done:  E(RB3LYP) =  -788.419988394     A.U. after   14 cycles
 Normal termination of Gaussian 09 at Mon Jan 25 16:27:10 2021.
 Gaussian 09:  AM64L-G09RevD.01 24-Apr-2013

 ----------------------------------------------------------------------
 #p b3lyp/6-31G(d) scrf=(iefpcm,read,solvent=n-Octanol) geom=allcheck g
 uess=read
 ----------------------------------------------------------------------

 Structure from the checkpoint file:  "SET_328_BBB301_conf1.geo_165_105_270.n.pdb.xyz.mst.n.o.chk"
 ----------------------------------------------
 SET_328_BBB301_conf1.geo_165_105_270.n.pdb.xyz
 ----------------------------------------------
 Charge =  0 Multiplicity = 1

                         Standard orientation:
 ---------------------------------------------------------------------
 Center     Atomic      Atomic             Coordinates (Angstroms)
 Number     Number       Type             X           Y           Z
 ---------------------------------------------------------------------
      1          6           0       -3.712280    1.680709   -1.125656
      2          1           0       -4.569940    1.942999   -1.752262
      3          1           0       -2.836446    1.609030   -1.776567
      4          1           0       -3.540519    2.492715   -0.414053
      5          6           0       -3.974842    0.366017   -0.378879
      6          6           0       -5.225875    0.524133    0.492551
      7          1           0       -5.433999   -0.395479    1.050197
      8          1           0       -6.104351    0.748231   -0.118273
      9          1           0       -5.088063    1.332738    1.213372
     10          6           0       -4.197518   -0.777654   -1.385935
     11          1           0       -4.399643   -1.718200   -0.862737
     12          1           0       -3.322047   -0.929615   -2.024407
     13          1           0       -5.050831   -0.567536   -2.038019
     14          7           0       -2.853117    0.109102    0.550596
     15          1           0       -3.078913   -0.709003    1.114889
     16          6           0       -1.543398   -0.124758   -0.045856
     17          1           0       -1.223495    0.774424   -0.580157
     18          1           0       -1.517866   -0.956627   -0.770569
     19          6           0       -0.521594   -0.425296    1.050962
     20          8           0       -0.975631   -1.624331    1.686447
     21          1           0       -0.388646   -1.800540    2.438662
     22          1           0       -0.549617    0.411382    1.762420
     23          6           0        0.885375   -0.562282    0.503752
     24          6           0        1.726500    0.548170    0.425308
     25          1           0        1.391782    1.512948    0.792096
     26          6           0        3.015511    0.472893   -0.103310
     27          6           0        3.888256    1.714129   -0.163183
     28          8           0        3.441423    2.762343    0.680154
     29          1           0        3.501874    2.444934    1.596623
     30          1           0        3.885158    2.137713   -1.174130
     31          1           0        4.934682    1.454183    0.066819
     32          6           0        3.471491   -0.772675   -0.572865
     33          8           0        4.716748   -0.966486   -1.111293
     34          1           0        5.208043   -0.131839   -1.151875
     35          6           0        2.646062   -1.897703   -0.491567
     36          1           0        3.028706   -2.845462   -0.850019
     37          6           0        1.364941   -1.791561    0.039522
     38          1           0        0.729859   -2.667654    0.112299
 ---------------------------------------------------------------------

 SCF Done:  E(RB3LYP) =  -788.446650841     A.U. after   10 cycles

 The electronic state is 1-A.
 Alpha  occ. eigenvalues --  -19.18023 -19.15427 -19.14569 -14.30348 -10.25012
 Alpha  occ. eigenvalues --  -10.24570 -10.23433 -10.21344 -10.19808 -10.19506
 Alpha  occ. eigenvalues --  -10.18707 -10.18689 -10.18513 -10.18471 -10.16613
 Alpha  occ. eigenvalues --  -10.16578 -10.16533  -1.05945  -1.02688  -1.01862
 Alpha  occ. eigenvalues --   -0.89719  -0.85326  -0.78506  -0.76632  -0.75413
 Alpha  occ. eigenvalues --   -0.69890  -0.68537  -0.68071  -0.67987  -0.61836
 Alpha  occ. eigenvalues --   -0.60525  -0.57993  -0.54646  -0.54413  -0.52532
 Alpha  occ. eigenvalues --   -0.50435  -0.48183  -0.47134  -0.46384  -0.44924
 Alpha  occ. eigenvalues --   -0.44558  -0.43682  -0.43296  -0.42555  -0.41750
 Alpha  occ. eigenvalues --   -0.40860  -0.40045  -0.38930  -0.38597  -0.37550
 Alpha  occ. eigenvalues --   -0.37032  -0.36825  -0.35851  -0.35481  -0.34592
 Alpha  occ. eigenvalues --   -0.33690  -0.32993  -0.32906  -0.32004  -0.31355
 Alpha  occ. eigenvalues --   -0.28271  -0.27360  -0.24743  -0.21699  -0.21268
 Alpha virt. eigenvalues --   -0.00308   0.00737   0.06521   0.08033   0.08339
 Alpha virt. eigenvalues --    0.09438   0.11914   0.12561   0.12804   0.13368
 Alpha virt. eigenvalues --    0.13889   0.14520   0.15081   0.15858   0.16304

 Mulliken charges:
               1
     1  C   -0.446012
     2  H    0.140410
     3  H    0.143416
     4  H    0.146172
     5  C    0.218855
     6  C   -0.448749
     7  H    0.136292
     8  H    0.140851
     9  H    0.146945
    10  C   -0.450408
    11  H    0.136761
    12  H    0.144987
    13  H    0.139650
    14  N   -0.584145
    15  H    0.306519
    16  C   -0.112703
    17  H    0.143782
    18  H    0.121351
    19  C    0.061852
    20  O   -0.654104
    21  H    0.413623
    22  H    0.126125
    23  C    0.125133
    24  C   -0.260128
    25  H    0.138382
    26  C    0.075796
    27  C   -0.111929
    28  O   -0.626743
    29  H    0.416137
    30  H    0.174112
    31  H    0.135527
    32  C    0.275290
    33  O   -0.662366
    34  H    0.433260
    35  C   -0.172115
    36  H    0.139594
    37  C   -0.192177
    38  H    0.140755
 Sum of Mulliken charges =   0.00000

 Dipole moment (field-independent basis, Debye):
    X=              2.2429    Y=              0.1426    Z=              1.1042  Tot=              2.5040
 Quadrupole moment (field-independent basis, Debye-Ang):
   XX=            -91.8462   YY=           -109.4216   ZZ=            -97.1447
   XY=              5.1192   XZ=              5.0783   YZ=             -2.3644

 Normal termination of Gaussian 09 at Mon Jan 25 16:30:01 2021.
