 Gaussian 09, Revision D.01,

 -----------------
 #p b3lyp/6-31G(d)
 -----------------

 ----------------------------------------------
 SET_328_BBB324_conf1.geo_180_315_180.n.pdb.xyz
 ----------------------------------------------
 Symbolic Z-matrix:
 Charge =  0 Multiplicity = 1

 SCF Done:  E(RB3LYP) =  -1692.24099842     A.U. after   17 cycles
 Normal termination of Gaussian 09 at Thu Jan 28 05:07:38 2021.
 Gaussian 09:  AM64L-G09RevD.01 24-Apr-2013

 ----------------------------------------------------------------------
 #p b3lyp/6-31G(d) scrf=(iefpcm,read,solvent=n-Octanol) geom=allcheck g
 uess=read
 ----------------------------------------------------------------------

 Structure from the checkpoint file:  "SET_328_BBB324_conf1.geo_180_315_180.n.pdb.xyz.mst.n.o.chk"
 ----------------------------------------------
 SET_328_BBB324_conf1.geo_180_315_180.n.pdb.xyz
 ----------------------------------------------
 Charge =  0 Multiplicity = 1

                         Standard orientation:
 ---------------------------------------------------------------------
 Center     Atomic      Atomic             Coordinates (Angstroms)
 Number     Number       Type             X           Y           Z
 ---------------------------------------------------------------------
      1          6           0        0.267181   -2.218015   -1.264869
      2          1           0        0.884159   -2.756523   -1.979779
      3          1           0       -0.457406   -1.597594   -1.802694
      4          1           0       -0.274678   -2.926041   -0.632968
      5          7           0        1.144961   -1.393544   -0.443483
      6          6           0        0.521384   -0.522622    0.555283
      7          1           0        1.100868   -0.560731    1.481864
      8          1           0       -0.480982   -0.893291    0.765164
      9          6           0        0.439751    0.875024    0.045592
     10          6           0       -0.570839    1.731098   -0.342616
     11          6           0       -2.002911    1.486525   -0.292764
     12          7           0       -2.898032    2.378378   -0.654784
     13          8           0       -4.120372    1.707596   -0.437923
     14          6           0       -3.817063    0.489966    0.025814
     15          7           0       -2.537832    0.286457    0.142116
     16          6           0       -4.933936   -0.441352    0.402803
     17          6           0       -5.423435   -0.116388    1.826761
     18          1           0       -4.607629   -0.184690    2.551962
     19          1           0       -6.200842   -0.833143    2.104749
     20          1           0       -5.840243    0.891771    1.853487
     21          8           0       -5.979336   -0.245193   -0.542333
     22          1           0       -6.524053   -1.052008   -0.468535
     23          6           0       -4.441127   -1.894677    0.301751
     24          8           0       -5.597889   -2.700471    0.498804
     25          1           0       -5.438642   -3.567537    0.098166
     26          1           0       -3.672760   -2.096604    1.056074
     27          1           0       -4.008052   -2.057071   -0.690414
     28          7           0       -0.044289    2.925369   -0.803310
     29          6           0        1.253481    2.796197   -0.698246
     30          1           0        1.991580    3.531059   -0.984483
     31          7           0        1.613000    1.567506   -0.192531
     32          6           0        2.913053    1.117524    0.160259
     33          6           0        3.801079    2.046597    0.708291
     34          1           0        3.477716    3.070496    0.842540
     35          6           0        5.068894    1.640853    1.104757
     36          1           0        5.758549    2.359290    1.533068
     37          6           0        5.441885    0.303387    0.989231
     38          1           0        6.411900   -0.037301    1.330640
     39          6           0        4.551811   -0.611117    0.432394
     40         17           0        5.070575   -2.282429    0.355065
     41          6           0        3.275480   -0.233500   -0.019303
     42          6           0        2.440133   -1.211692   -0.826669
     43          8           0        2.950993   -1.795030   -1.778775
 ---------------------------------------------------------------------

 SCF Done:  E(RB3LYP) =  -1692.27242227     A.U. after   11 cycles

 The electronic state is 1-A.
 Alpha  occ. eigenvalues -- -101.55741 -19.25337 -19.16411 -19.15177 -19.12578
 Alpha  occ. eigenvalues --  -14.42237 -14.39221 -14.38125 -14.35270 -14.33738
 Alpha  occ. eigenvalues --  -10.30525 -10.30194 -10.27445 -10.27152 -10.27120
 Alpha  occ. eigenvalues --  -10.27057 -10.26130 -10.24673 -10.24634 -10.24453
 Alpha  occ. eigenvalues --  -10.23699 -10.23392 -10.22043 -10.21940 -10.21921
 Alpha  occ. eigenvalues --  -10.21824 -10.18593  -9.47372  -7.23788  -7.22806
 Alpha  occ. eigenvalues --   -7.22738  -1.17081  -1.05353  -1.04901  -1.04417
 Alpha  occ. eigenvalues --   -1.01922  -0.95382  -0.95116  -0.92790  -0.90057
 Alpha  occ. eigenvalues --   -0.88068  -0.84855  -0.80175  -0.78942  -0.78542
 Alpha  occ. eigenvalues --   -0.75508  -0.73377  -0.71225  -0.69925  -0.68008
 Alpha  occ. eigenvalues --   -0.66445  -0.66043  -0.63568  -0.60200  -0.59127
 Alpha  occ. eigenvalues --   -0.57992  -0.57200  -0.54651  -0.53671  -0.53524
 Alpha  occ. eigenvalues --   -0.51722  -0.50867  -0.49843  -0.49441  -0.48944
 Alpha  occ. eigenvalues --   -0.48424  -0.47679  -0.47282  -0.46688  -0.45436
 Alpha  occ. eigenvalues --   -0.45223  -0.43752  -0.43046  -0.42761  -0.42550
 Alpha  occ. eigenvalues --   -0.42376  -0.42011  -0.40761  -0.39904  -0.39812
 Alpha  occ. eigenvalues --   -0.39448  -0.38833  -0.38350  -0.37910  -0.36277
 Alpha  occ. eigenvalues --   -0.36191  -0.35623  -0.34579  -0.33580  -0.32237
 Alpha  occ. eigenvalues --   -0.31781  -0.30966  -0.29868  -0.29330  -0.29028
 Alpha  occ. eigenvalues --   -0.27981  -0.27725  -0.26101  -0.25987  -0.25305
 Alpha  occ. eigenvalues --   -0.23809
 Alpha virt. eigenvalues --   -0.05077  -0.04531  -0.03387  -0.00278   0.01500
 Alpha virt. eigenvalues --    0.02080   0.02704   0.05766   0.08707   0.09433
 Alpha virt. eigenvalues --    0.09977   0.10721   0.11594   0.11873   0.12505

 Mulliken charges:
               1
     1  C   -0.330011
     2  H    0.199792
     3  H    0.174366
     4  H    0.172231
     5  N   -0.394294
     6  C   -0.267221
     7  H    0.195763
     8  H    0.220719
     9  C    0.320948
    10  C    0.121163
    11  C    0.421767
    12  N   -0.238645
    13  O   -0.369134
    14  C    0.615328
    15  N   -0.565657
    16  C    0.208640
    17  C   -0.462118
    18  H    0.158686
    19  H    0.176290
    20  H    0.169520
    21  O   -0.664201
    22  H    0.422748
    23  C   -0.042901
    24  O   -0.648732
    25  H    0.435820
    26  H    0.151050
    27  H    0.152883
    28  N   -0.511642
    29  C    0.214173
    30  H    0.192882
    31  N   -0.558933
    32  C    0.283474
    33  C   -0.155104
    34  H    0.174525
    35  C   -0.136298
    36  H    0.173724
    37  C   -0.127110
    38  H    0.176338
    39  C   -0.131131
    40  Cl   0.009015
    41  C    0.049286
    42  C    0.535578
    43  O   -0.523576
 Sum of Mulliken charges =   0.00000

 Dipole moment (field-independent basis, Debye):
    X=              1.5914    Y=             -3.4558    Z=              4.9598  Tot=              6.2510
 Quadrupole moment (field-independent basis, Debye-Ang):
   XX=           -153.9047   YY=           -159.0105   ZZ=           -164.2967
   XY=             48.7664   XZ=              8.2437   YZ=              6.3058

 Normal termination of Gaussian 09 at Thu Jan 28 05:15:12 2021.
