 Gaussian 09, Revision D.01,

 -----------------
 #p b3lyp/6-31G(d)
 -----------------

 ----------------------------------------------
 SET_328_BBB321_conf1.geo_180_210_255.n.pdb.xyz
 ----------------------------------------------
 Symbolic Z-matrix:
 Charge =  0 Multiplicity = 1

 SCF Done:  E(RB3LYP) =  -1212.31297785     A.U. after   15 cycles
 Normal termination of Gaussian 09 at Thu Jan 28 04:51:18 2021.
 Gaussian 09:  AM64L-G09RevD.01 24-Apr-2013

 ----------------------------------------------------------------------
 #p b3lyp/6-31G(d) scrf=(iefpcm,read,solvent=n-Octanol) geom=allcheck g
 uess=read
 ----------------------------------------------------------------------

 Structure from the checkpoint file:  "SET_328_BBB321_conf1.geo_180_210_255.n.pdb.xyz.mst.n.o.chk"
 ----------------------------------------------
 SET_328_BBB321_conf1.geo_180_210_255.n.pdb.xyz
 ----------------------------------------------
 Charge =  0 Multiplicity = 1

                         Standard orientation:
 ---------------------------------------------------------------------
 Center     Atomic      Atomic             Coordinates (Angstroms)
 Number     Number       Type             X           Y           Z
 ---------------------------------------------------------------------
      1          6           0        6.414276    1.173080    0.369709
      2          1           0        6.979804    0.950962    1.278499
      3          1           0        5.992338    2.176869    0.453790
      4          1           0        7.118281    1.154127   -0.464124
      5          6           0        5.379674    0.082305    0.157507
      6          8           0        5.706761   -1.090711    0.012494
      7          7           0        4.079319    0.524235    0.146911
      8          1           0        3.943784    1.518718    0.276277
      9          6           0        2.893151   -0.221142   -0.022332
     10          6           0        2.880735   -1.612800   -0.213981
     11          6           0        1.655189   -2.261126   -0.364475
     12          6           0        0.452912   -1.559750   -0.330235
     13          1           0       -0.493467   -2.069007   -0.456393
     14          1           0        1.643391   -3.335825   -0.513448
     15          1           0        3.816494   -2.149568   -0.237993
     16          6           0        1.683745    0.483505    0.015580
     17          1           0        1.700619    1.556218    0.185440
     18          6           0        0.455929   -0.169721   -0.142585
     19          6           0       -0.811287    0.579569   -0.120516
     20          7           0       -2.004138   -0.115757   -0.007376
     21          6           0       -0.938171    1.939219   -0.215810
     22          1           0       -0.158755    2.676093   -0.335848
     23         16           0       -2.608946    2.404357   -0.163394
     24          6           0       -3.054142    0.685304   -0.013583
     25          7           0       -4.374479    0.405479    0.078603
     26          6           0       -4.794966   -0.842689    0.199251
     27          7           0       -6.145785   -1.050283    0.170609
     28          1           0       -6.514298   -1.877388    0.620663
     29          1           0       -6.702579   -0.214358    0.289737
     30          7           0       -4.004733   -1.928621    0.333987
     31          1           0       -4.384832   -2.859048    0.228717
     32          1           0       -3.005300   -1.771696    0.218707
 ---------------------------------------------------------------------

 SCF Done:  E(RB3LYP) =  -1212.34484996     A.U. after   12 cycles

 The electronic state is 1-A.
 Alpha  occ. eigenvalues --  -88.90083 -19.12081 -14.37904 -14.35553 -14.35429
 Alpha  occ. eigenvalues --  -14.32373 -14.30985 -10.30791 -10.29872 -10.27519
 Alpha  occ. eigenvalues --  -10.23879 -10.22303 -10.20678 -10.20320 -10.19344
 Alpha  occ. eigenvalues --  -10.19249 -10.19049 -10.18397 -10.18393  -7.96260
 Alpha  occ. eigenvalues --   -5.92650  -5.92315  -5.91941  -1.04033  -0.99994
 Alpha  occ. eigenvalues --   -0.95491  -0.94348  -0.88437  -0.87724  -0.85012
 Alpha  occ. eigenvalues --   -0.78796  -0.77377  -0.76023  -0.72497  -0.70876
 Alpha  occ. eigenvalues --   -0.64487  -0.62568  -0.62361  -0.59036  -0.58105
 Alpha  occ. eigenvalues --   -0.55878  -0.54408  -0.53653  -0.51374  -0.49672
 Alpha  occ. eigenvalues --   -0.48642  -0.47493  -0.47378  -0.45427  -0.44636
 Alpha  occ. eigenvalues --   -0.43859  -0.43397  -0.42640  -0.41004  -0.40655
 Alpha  occ. eigenvalues --   -0.40290  -0.40054  -0.39178  -0.37346  -0.36280
 Alpha  occ. eigenvalues --   -0.35857  -0.34121  -0.31483  -0.29500  -0.28155
 Alpha  occ. eigenvalues --   -0.27842  -0.27497  -0.27013  -0.25607  -0.24681
 Alpha  occ. eigenvalues --   -0.22225  -0.19395
 Alpha virt. eigenvalues --   -0.03208  -0.01590  -0.00548   0.02615   0.03749
 Alpha virt. eigenvalues --    0.07319   0.07476   0.08001   0.09652   0.10297
 Alpha virt. eigenvalues --    0.11509   0.12598   0.12959   0.13319   0.14066

 Mulliken charges:
               1
     1  C   -0.544257
     2  H    0.192033
     3  H    0.164248
     4  H    0.191609
     5  C    0.601622
     6  O   -0.525114
     7  N   -0.712485
     8  H    0.357363
     9  C    0.350183
    10  C   -0.172567
    11  C   -0.157997
    12  C   -0.180518
    13  H    0.144588
    14  H    0.140589
    15  H    0.175578
    16  C   -0.272390
    17  H    0.138844
    18  C    0.113151
    19  C    0.281388
    20  N   -0.572993
    21  C   -0.424962
    22  H    0.181192
    23  S    0.198616
    24  C    0.300824
    25  N   -0.574983
    26  C    0.657696
    27  N   -0.760143
    28  H    0.361794
    29  H    0.364869
    30  N   -0.778732
    31  H    0.363610
    32  H    0.397343
 Sum of Mulliken charges =   0.00000

 Dipole moment (field-independent basis, Debye):
    X=             -3.9609    Y=             -0.2241    Z=              1.4574  Tot=              4.2265
 Quadrupole moment (field-independent basis, Debye-Ang):
   XX=            -87.5890   YY=           -101.3659   ZZ=           -120.6408
   XY=             44.6430   XZ=             -4.6927   YZ=             -0.4455

 Normal termination of Gaussian 09 at Thu Jan 28 04:54:24 2021.
