 Gaussian 09, Revision D.01,

 -----------------
 #p b3lyp/6-31G(d)
 -----------------

 ----------------------------------------------
 SET_328_BBB321_conf1.geo_165_210_300.n.pdb.xyz
 ----------------------------------------------
 Symbolic Z-matrix:
 Charge =  0 Multiplicity = 1

 SCF Done:  E(RB3LYP) =  -1212.31352095     A.U. after   16 cycles
 Normal termination of Gaussian 09 at Thu Jan 28 04:44:04 2021.
 Gaussian 09:  AM64L-G09RevD.01 24-Apr-2013

 ----------------------------------------------------------------------
 #p b3lyp/6-31G(d) scrf=(iefpcm,read,solvent=n-Octanol) geom=allcheck g
 uess=read
 ----------------------------------------------------------------------

 Structure from the checkpoint file:  "SET_328_BBB321_conf1.geo_165_210_300.n.pdb.xyz.mst.n.o.chk"
 ----------------------------------------------
 SET_328_BBB321_conf1.geo_165_210_300.n.pdb.xyz
 ----------------------------------------------
 Charge =  0 Multiplicity = 1

                         Standard orientation:
 ---------------------------------------------------------------------
 Center     Atomic      Atomic             Coordinates (Angstroms)
 Number     Number       Type             X           Y           Z
 ---------------------------------------------------------------------
      1          6           0       -6.282955   -0.873881    0.377120
      2          1           0       -6.524011   -1.287560    1.360248
      3          1           0       -6.660987   -1.572946   -0.372157
      4          1           0       -6.797608    0.082618    0.261379
      5          6           0       -4.772608   -0.781351    0.240864
      6          8           0       -4.064007   -1.783457    0.266509
      7          7           0       -4.292780    0.495975    0.097483
      8          1           0       -4.986472    1.232047    0.090510
      9          6           0       -2.960682    0.935474   -0.047503
     10          6           0       -2.753282    2.317101   -0.205334
     11          6           0       -1.459887    2.809675   -0.344823
     12          6           0       -0.364799    1.948592   -0.331865
     13          1           0        0.642182    2.329152   -0.448576
     14          1           0       -1.307502    3.876586   -0.465489
     15          1           0       -3.601146    2.996026   -0.216255
     16          6           0       -1.863604    0.068091   -0.029925
     17          1           0       -2.042162   -0.987596    0.111909
     18          6           0       -0.560241    0.568527   -0.178786
     19          6           0        0.596081   -0.347246   -0.179552
     20          7           0        1.874034    0.174124   -0.050850
     21          6           0        0.535514   -1.707172   -0.318116
     22          1           0       -0.337502   -2.326255   -0.463356
     23         16           0        2.127516   -2.396905   -0.283796
     24          6           0        2.802101   -0.762952   -0.079533
     25          7           0        4.147702   -0.671570    0.025445
     26          6           0        4.729841    0.491685    0.259033
     27          7           0        4.104050    1.687626    0.329137
     28          1           0        4.574374    2.481951    0.742187
     29          1           0        3.086599    1.654711    0.322061
     30          7           0        6.082393    0.483611    0.464560
     31          1           0        6.543103   -0.375810    0.196558
     32          1           0        6.602273    1.327581    0.259732
 ---------------------------------------------------------------------

 SCF Done:  E(RB3LYP) =  -1212.34511915     A.U. after   12 cycles

 The electronic state is 1-A.
 Alpha  occ. eigenvalues --  -88.89934 -19.12073 -14.37904 -14.35474 -14.35322
 Alpha  occ. eigenvalues --  -14.32251 -14.30925 -10.30681 -10.29854 -10.27357
 Alpha  occ. eigenvalues --  -10.23847 -10.22089 -10.20488 -10.20124 -10.19302
 Alpha  occ. eigenvalues --  -10.19259 -10.19236 -10.18417 -10.18384  -7.96116
 Alpha  occ. eigenvalues --   -5.92505  -5.92170  -5.91799  -1.03968  -0.99902
 Alpha  occ. eigenvalues --   -0.95383  -0.94375  -0.88326  -0.87636  -0.84966
 Alpha  occ. eigenvalues --   -0.78649  -0.77411  -0.75909  -0.72351  -0.70926
 Alpha  occ. eigenvalues --   -0.64257  -0.63607  -0.61202  -0.58471  -0.58006
 Alpha  occ. eigenvalues --   -0.56585  -0.54859  -0.52728  -0.51210  -0.49350
 Alpha  occ. eigenvalues --   -0.48315  -0.48163  -0.47224  -0.45407  -0.44616
 Alpha  occ. eigenvalues --   -0.43708  -0.43345  -0.42455  -0.40802  -0.40518
 Alpha  occ. eigenvalues --   -0.40210  -0.40130  -0.39139  -0.37358  -0.36241
 Alpha  occ. eigenvalues --   -0.35804  -0.34082  -0.31522  -0.29327  -0.27961
 Alpha  occ. eigenvalues --   -0.27813  -0.27391  -0.26967  -0.25568  -0.24671
 Alpha  occ. eigenvalues --   -0.22218  -0.19305
 Alpha virt. eigenvalues --   -0.03102  -0.01571  -0.00538   0.02800   0.04009
 Alpha virt. eigenvalues --    0.07156   0.07554   0.08128   0.09946   0.10393
 Alpha virt. eigenvalues --    0.11383   0.12645   0.13034   0.13718   0.14156

 Mulliken charges:
               1
     1  C   -0.544159
     2  H    0.192459
     3  H    0.191029
     4  H    0.164066
     5  C    0.601490
     6  O   -0.524570
     7  N   -0.713377
     8  H    0.356840
     9  C    0.346061
    10  C   -0.202543
    11  C   -0.146624
    12  C   -0.183784
    13  H    0.144779
    14  H    0.141550
    15  H    0.141970
    16  C   -0.242140
    17  H    0.179404
    18  C    0.101539
    19  C    0.280821
    20  N   -0.571716
    21  C   -0.422670
    22  H    0.186759
    23  S    0.198203
    24  C    0.299794
    25  N   -0.572777
    26  C    0.651783
    27  N   -0.775542
    28  H    0.362282
    29  H    0.393557
    30  N   -0.760128
    31  H    0.364415
    32  H    0.361228
 Sum of Mulliken charges =   0.00000

 Dipole moment (field-independent basis, Debye):
    X=              0.8295    Y=              7.1272    Z=              0.4275  Tot=              7.1880
 Quadrupole moment (field-independent basis, Debye-Ang):
   XX=            -49.1056   YY=           -109.6250   ZZ=           -121.0486
   XY=              6.7154   XZ=              0.8541   YZ=              2.7541

 Normal termination of Gaussian 09 at Thu Jan 28 04:47:19 2021.
