 Gaussian 09, Revision D.01,

 -----------------
 #p b3lyp/6-31G(d)
 -----------------

 ----------------------------------------------
 SET_328_BBB301_conf1.geo_165_300_090.n.pdb.xyz
 ----------------------------------------------
 Symbolic Z-matrix:
 Charge =  0 Multiplicity = 1

 SCF Done:  E(RB3LYP) =  -788.420831701     A.U. after   14 cycles
 Normal termination of Gaussian 09 at Mon Jan 25 16:27:22 2021.
 Gaussian 09:  AM64L-G09RevD.01 24-Apr-2013

 ----------------------------------------------------------------------
 #p b3lyp/6-31G(d) scrf=(iefpcm,read,solvent=n-Octanol) geom=allcheck g
 uess=read
 ----------------------------------------------------------------------

 Structure from the checkpoint file:  "SET_328_BBB301_conf1.geo_165_300_090.n.pdb.xyz.mst.n.o.chk"
 ----------------------------------------------
 SET_328_BBB301_conf1.geo_165_300_090.n.pdb.xyz
 ----------------------------------------------
 Charge =  0 Multiplicity = 1

                         Standard orientation:
 ---------------------------------------------------------------------
 Center     Atomic      Atomic             Coordinates (Angstroms)
 Number     Number       Type             X           Y           Z
 ---------------------------------------------------------------------
      1          6           0        3.597283    1.438383   -1.180750
      2          1           0        2.706886    1.273179   -1.793330
      3          1           0        4.403984    1.752062   -1.849816
      4          1           0        3.385826    2.254269   -0.482961
      5          6           0        4.008720    0.174198   -0.418625
      6          6           0        4.284759   -0.974005   -1.401082
      7          1           0        3.399957   -1.206879   -2.002329
      8          1           0        4.577967   -1.879935   -0.862753
      9          1           0        5.096901   -0.712638   -2.088364
     10          6           0        5.270995    0.467694    0.395655
     11          1           0        5.086188    1.272151    1.111832
     12          1           0        6.093785    0.766119   -0.260204
     13          1           0        5.593705   -0.419238    0.952470
     14          7           0        2.953250   -0.171451    0.564512
     15          1           0        3.316467   -0.897751    1.180744
     16          6           0        1.652013   -0.601579    0.045124
     17          1           0        1.633034   -1.632738   -0.336188
     18          1           0        1.375789    0.061747   -0.777768
     19          6           0        0.607502   -0.431860    1.174974
     20          8           0        0.799269    0.846100    1.757840
     21          1           0        1.764471    0.984320    1.633434
     22          1           0        0.791666   -1.221725    1.924558
     23          6           0       -0.808755   -0.579368    0.661715
     24          6           0       -1.538101    0.537061    0.237976
     25          1           0       -1.085259    1.518818    0.336007
     26          6           0       -2.825836    0.428216   -0.286114
     27          6           0       -3.596186    1.652855   -0.695734
     28          8           0       -4.476731    2.026281    0.371073
     29          1           0       -5.046309    2.735385    0.032950
     30          1           0       -4.165405    1.444205   -1.610080
     31          1           0       -2.886102    2.461833   -0.912816
     32          6           0       -3.401566   -0.849936   -0.392570
     33          8           0       -4.658422   -0.932907   -0.920531
     34          1           0       -4.926626   -1.866512   -0.965495
     35          6           0       -2.690413   -1.977359    0.025414
     36          1           0       -3.143019   -2.962055   -0.054719
     37          6           0       -1.408236   -1.837147    0.553889
     38          1           0       -0.872655   -2.723178    0.886938
 ---------------------------------------------------------------------

 SCF Done:  E(RB3LYP) =  -788.449287532     A.U. after   10 cycles

 The electronic state is 1-A.
 Alpha  occ. eigenvalues --  -19.17586 -19.13395 -19.12591 -14.32770 -10.24649
 Alpha  occ. eigenvalues --  -10.23205 -10.22618 -10.22414 -10.20707 -10.18983
 Alpha  occ. eigenvalues --  -10.18669 -10.18578 -10.18397 -10.18259 -10.17326
 Alpha  occ. eigenvalues --  -10.17242 -10.17231  -1.05628  -1.00884  -1.00366
 Alpha  occ. eigenvalues --   -0.91066  -0.85050  -0.78918  -0.76765  -0.75048
 Alpha  occ. eigenvalues --   -0.69975  -0.68772  -0.68483  -0.66802  -0.62997
 Alpha  occ. eigenvalues --   -0.60471  -0.56558  -0.55313  -0.53646  -0.50261
 Alpha  occ. eigenvalues --   -0.49881  -0.48350  -0.47852  -0.46849  -0.45571
 Alpha  occ. eigenvalues --   -0.44993  -0.43817  -0.43133  -0.42241  -0.41187
 Alpha  occ. eigenvalues --   -0.40753  -0.40128  -0.39523  -0.38513  -0.37952
 Alpha  occ. eigenvalues --   -0.37263  -0.36640  -0.36102  -0.35258  -0.34504
 Alpha  occ. eigenvalues --   -0.33748  -0.33149  -0.32669  -0.32073  -0.31140
 Alpha  occ. eigenvalues --   -0.26069  -0.25976  -0.24855  -0.23698  -0.21227
 Alpha virt. eigenvalues --   -0.00468   0.01279   0.07024   0.08139   0.09651
 Alpha virt. eigenvalues --    0.10437   0.11164   0.12386   0.12529   0.13443
 Alpha virt. eigenvalues --    0.13867   0.14063   0.15167   0.15727   0.16270

 Mulliken charges:
               1
     1  C   -0.445473
     2  H    0.147907
     3  H    0.147467
     4  H    0.150380
     5  C    0.212422
     6  C   -0.448778
     7  H    0.149146
     8  H    0.140990
     9  H    0.146445
    10  C   -0.453168
    11  H    0.152041
    12  H    0.149161
    13  H    0.141177
    14  N   -0.603141
    15  H    0.314655
    16  C   -0.150311
    17  H    0.136103
    18  H    0.154316
    19  C    0.080257
    20  O   -0.672688
    21  H    0.405091
    22  H    0.113257
    23  C    0.137165
    24  C   -0.245690
    25  H    0.141761
    26  C    0.118699
    27  C   -0.099168
    28  O   -0.637987
    29  H    0.410249
    30  H    0.136523
    31  H    0.125471
    32  C    0.304149
    33  O   -0.656911
    34  H    0.431731
    35  C   -0.203790
    36  H    0.136963
    37  C   -0.200164
    38  H    0.133745
 Sum of Mulliken charges =   0.00000

 Dipole moment (field-independent basis, Debye):
    X=              2.4763    Y=             -2.8940    Z=             -3.2467  Tot=              5.0048
 Quadrupole moment (field-independent basis, Debye-Ang):
   XX=            -86.1877   YY=            -89.3181   ZZ=           -108.0068
   XY=              2.0536   XZ=              8.5007   YZ=             -5.7934

 Normal termination of Gaussian 09 at Mon Jan 25 16:30:22 2021.
