 Gaussian 09, Revision D.01,

 -----------------
 #p b3lyp/6-31G(d)
 -----------------

 ----------------------------------------------
 SET_328_BBB301_conf1.geo_090_105_255.n.pdb.xyz
 ----------------------------------------------
 Symbolic Z-matrix:
 Charge =  0 Multiplicity = 1

 SCF Done:  E(RB3LYP) =  -788.423260538     A.U. after   14 cycles
 Normal termination of Gaussian 09 at Mon Jan 25 16:27:29 2021.
 Gaussian 09:  AM64L-G09RevD.01 24-Apr-2013

 ----------------------------------------------------------------------
 #p b3lyp/6-31G(d) scrf=(iefpcm,read,solvent=n-Octanol) geom=allcheck g
 uess=read
 ----------------------------------------------------------------------

 Structure from the checkpoint file:  "SET_328_BBB301_conf1.geo_090_105_255.n.pdb.xyz.mst.n.o.chk"
 ----------------------------------------------
 SET_328_BBB301_conf1.geo_090_105_255.n.pdb.xyz
 ----------------------------------------------
 Charge =  0 Multiplicity = 1

                         Standard orientation:
 ---------------------------------------------------------------------
 Center     Atomic      Atomic             Coordinates (Angstroms)
 Number     Number       Type             X           Y           Z
 ---------------------------------------------------------------------
      1          6           0        3.892732    0.060619    1.924645
      2          1           0        4.005425   -1.027689    1.934178
      3          1           0        3.106930    0.328848    2.638495
      4          1           0        4.825701    0.509774    2.271394
      5          6           0        3.545001    0.553345    0.514773
      6          6           0        3.373750    2.082404    0.523975
      7          1           0        4.304800    2.583504    0.806327
      8          1           0        2.598614    2.381437    1.238969
      9          1           0        3.079739    2.447983   -0.463173
     10          6           0        4.666261    0.150618   -0.455044
     11          1           0        5.616094    0.583126   -0.130193
     12          1           0        4.473542    0.503644   -1.471643
     13          1           0        4.771839   -0.937741   -0.484427
     14          7           0        2.290240   -0.136562    0.126574
     15          1           0        1.607289   -0.002051    0.871955
     16          6           0        1.671502    0.250394   -1.142795
     17          1           0        2.446253    0.249015   -1.912845
     18          1           0        1.211504    1.247510   -1.133496
     19          6           0        0.625808   -0.832091   -1.507158
     20          8           0        1.244422   -2.101158   -1.371825
     21          1           0        1.890001   -1.951817   -0.644908
     22          1           0        0.360191   -0.708505   -2.564527
     23          6           0       -0.643583   -0.720507   -0.664492
     24          6           0       -1.486807    0.393126   -0.768549
     25          1           0       -1.239821    1.193303   -1.465516
     26          6           0       -2.646592    0.527761   -0.005546
     27          6           0       -3.554572    1.721154   -0.179739
     28          8           0       -4.730096    1.429206   -0.940345
     29          1           0       -4.432896    1.084414   -1.797496
     30          1           0       -2.983035    2.539849   -0.640888
     31          1           0       -3.921492    2.065980    0.789787
     32          6           0       -2.973271   -0.499503    0.898864
     33          8           0       -4.102589   -0.338210    1.647756
     34          1           0       -4.192376   -1.088244    2.257916
     35          6           0       -2.149960   -1.619180    1.013920
     36          1           0       -2.410833   -2.411107    1.712643
     37          6           0       -0.999747   -1.726776    0.232716
     38          1           0       -0.366179   -2.602183    0.303329
 ---------------------------------------------------------------------

 SCF Done:  E(RB3LYP) =  -788.449856949     A.U. after   10 cycles

 The electronic state is 1-A.
 Alpha  occ. eigenvalues --  -19.17716 -19.13858 -19.13105 -14.32810 -10.24838
 Alpha  occ. eigenvalues --  -10.23575 -10.22928 -10.22523 -10.20953 -10.19071
 Alpha  occ. eigenvalues --  -10.18937 -10.18755 -10.18640 -10.18501 -10.17400
 Alpha  occ. eigenvalues --  -10.17288 -10.17280  -1.05834  -1.01287  -1.00861
 Alpha  occ. eigenvalues --   -0.91187  -0.85249  -0.78977  -0.76516  -0.75270
 Alpha  occ. eigenvalues --   -0.70274  -0.68800  -0.68597  -0.67163  -0.63371
 Alpha  occ. eigenvalues --   -0.60883  -0.57285  -0.55530  -0.54111  -0.50549
 Alpha  occ. eigenvalues --   -0.49622  -0.47959  -0.47345  -0.47286  -0.46087
 Alpha  occ. eigenvalues --   -0.44084  -0.43698  -0.43350  -0.42425  -0.42247
 Alpha  occ. eigenvalues --   -0.41520  -0.39979  -0.39679  -0.39194  -0.38182
 Alpha  occ. eigenvalues --   -0.37878  -0.36689  -0.36145  -0.35076  -0.34804
 Alpha  occ. eigenvalues --   -0.34022  -0.33635  -0.32668  -0.32085  -0.31286
 Alpha  occ. eigenvalues --   -0.26845  -0.26431  -0.24932  -0.23641  -0.21595
 Alpha virt. eigenvalues --   -0.00642   0.00899   0.07062   0.08125   0.09819
 Alpha virt. eigenvalues --    0.10480   0.11451   0.11806   0.11962   0.13253
 Alpha virt. eigenvalues --    0.13554   0.14194   0.14618   0.15398   0.15978

 Mulliken charges:
               1
     1  C   -0.453891
     2  H    0.152079
     3  H    0.140705
     4  H    0.150301
     5  C    0.213744
     6  C   -0.451366
     7  H    0.147443
     8  H    0.140292
     9  H    0.150077
    10  C   -0.446496
    11  H    0.147956
    12  H    0.148226
    13  H    0.150684
    14  N   -0.599473
    15  H    0.306551
    16  C   -0.156798
    17  H    0.158023
    18  H    0.140132
    19  C    0.069050
    20  O   -0.666117
    21  H    0.406029
    22  H    0.141697
    23  C    0.126100
    24  C   -0.260662
    25  H    0.130090
    26  C    0.090228
    27  C   -0.095243
    28  O   -0.631525
    29  H    0.402821
    30  H    0.128772
    31  H    0.155518
    32  C    0.304620
    33  O   -0.654705
    34  H    0.432517
    35  C   -0.198788
    36  H    0.137220
    37  C   -0.197763
    38  H    0.141953
 Sum of Mulliken charges =   0.00000

 Dipole moment (field-independent basis, Debye):
    X=              2.9020    Y=              1.0569    Z=              1.8203  Tot=              3.5850
 Quadrupole moment (field-independent basis, Debye-Ang):
   XX=           -112.4962   YY=           -105.4867   ZZ=            -95.1225
   XY=             13.2240   XZ=             -1.3196   YZ=             -9.9947

 Normal termination of Gaussian 09 at Mon Jan 25 16:30:32 2021.
