 Gaussian 09, Revision D.01,

 -----------------
 #p b3lyp/6-31G(d)
 -----------------

 ---------------------------------------------
 SET_328_BBB20_conf1.geo_120_180_180.n.pdb.xyz
 ---------------------------------------------
 Symbolic Z-matrix:
 Charge =  0 Multiplicity = 1

 SCF Done:  E(RB3LYP) =  -769.344207016     A.U. after   15 cycles
 Normal termination of Gaussian 09 at Sun Jan 24 22:53:06 2021.
 Gaussian 09:  AM64L-G09RevD.01 24-Apr-2013

 ----------------------------------------------------------------------
 #p b3lyp/6-31G(d) scrf=(iefpcm,read,solvent=n-Octanol) geom=allcheck g
 uess=read
 ----------------------------------------------------------------------

 Structure from the checkpoint file:  "SET_328_BBB20_conf1.geo_120_180_180.n.pdb.xyz.mst.n.o.chk"
 ---------------------------------------------
 SET_328_BBB20_conf1.geo_120_180_180.n.pdb.xyz
 ---------------------------------------------
 Charge =  0 Multiplicity = 1

                         Standard orientation:
 ---------------------------------------------------------------------
 Center     Atomic      Atomic             Coordinates (Angstroms)
 Number     Number       Type             X           Y           Z
 ---------------------------------------------------------------------
      1          7           0       -4.527772   -2.277770    1.038582
      2          1           0       -4.249233   -2.482895    1.999727
      3          1           0       -5.203407   -2.998700    0.795808
      4          6           0       -3.354291   -2.403525    0.167083
      5          1           0       -3.696068   -2.290930   -0.867671
      6          1           0       -2.858822   -3.387226    0.226446
      7          6           0       -2.336853   -1.311311    0.484894
      8          1           0       -2.000353   -1.407354    1.524569
      9          1           0       -2.825159   -0.337907    0.397735
     10          6           0       -1.113090   -1.380310   -0.428491
     11          1           0       -1.424428   -1.339686   -1.484213
     12          1           0       -0.627093   -2.347818   -0.295148
     13          7           0       -0.101392   -0.366169   -0.105612
     14          6           0        1.254696   -0.788140   -0.244522
     15          6           0        1.635995   -1.656773   -1.276618
     16          1           0        0.894028   -1.978367   -1.998174
     17          6           0        2.953142   -2.104446   -1.376107
     18          1           0        3.233752   -2.774619   -2.182813
     19          6           0        3.905403   -1.681144   -0.448414
     20          1           0        4.932048   -2.024239   -0.521631
     21          6           0        3.523336   -0.822855    0.582496
     22          1           0        4.250477   -0.502426    1.322969
     23          6           0        2.204975   -0.379397    0.706043
     24          6           0        1.772737    0.530346    1.814724
     25          1           0        2.568306    0.607149    2.560772
     26          1           0        0.889651    0.114116    2.313239
     27          6           0        1.450619    1.930357    1.292983
     28          1           0        2.346492    2.318991    0.792480
     29          1           0        1.276264    2.597111    2.145065
     30          6           0        0.263351    2.064541    0.356501
     31          6           0       -0.163306    3.378765    0.124460
     32          1           0        0.382914    4.176989    0.622484
     33          6           0       -1.249399    3.695302   -0.683847
     34          1           0       -1.549739    4.726774   -0.825748
     35          6           0       -1.944759    2.653384   -1.293744
     36          1           0       -2.797989    2.854202   -1.932331
     37          6           0       -1.539155    1.339301   -1.091465
     38          1           0       -2.086038    0.549513   -1.590123
     39          6           0       -0.438642    1.008387   -0.275015
 ---------------------------------------------------------------------

 SCF Done:  E(RB3LYP) =  -769.365581130     A.U. after   10 cycles

 The electronic state is 1-A.
 Alpha  occ. eigenvalues --  -14.35019 -14.30730 -10.22723 -10.22116 -10.21506
 Alpha  occ. eigenvalues --  -10.20392 -10.19189 -10.18928 -10.18791 -10.18718
 Alpha  occ. eigenvalues --  -10.18637 -10.18620 -10.18494 -10.18390 -10.18359
 Alpha  occ. eigenvalues --  -10.18190 -10.18130 -10.17929 -10.17663  -0.94904
 Alpha  occ. eigenvalues --   -0.87497  -0.85287  -0.84305  -0.79787  -0.76675
 Alpha  occ. eigenvalues --   -0.75316  -0.74964  -0.72208  -0.69894  -0.65923
 Alpha  occ. eigenvalues --   -0.64432  -0.60483  -0.59901  -0.58766  -0.57509
 Alpha  occ. eigenvalues --   -0.56295  -0.51504  -0.50742  -0.48376  -0.47742
 Alpha  occ. eigenvalues --   -0.47027  -0.46825  -0.46161  -0.45385  -0.43766
 Alpha  occ. eigenvalues --   -0.43238  -0.42880  -0.41367  -0.41065  -0.40179
 Alpha  occ. eigenvalues --   -0.38545  -0.38379  -0.37748  -0.36909  -0.36100
 Alpha  occ. eigenvalues --   -0.35251  -0.34905  -0.34156  -0.33640  -0.33478
 Alpha  occ. eigenvalues --   -0.33086  -0.32594  -0.28851  -0.24626  -0.24097
 Alpha  occ. eigenvalues --   -0.23548  -0.23305  -0.19356
 Alpha virt. eigenvalues --   -0.00452   0.00261   0.00573   0.01242   0.08402
 Alpha virt. eigenvalues --    0.09174   0.10252   0.10807   0.11292   0.12845
 Alpha virt. eigenvalues --    0.13417   0.13852   0.14139   0.14713   0.16154

 Mulliken charges:
               1
     1  N   -0.743660
     2  H    0.306416
     3  H    0.311784
     4  C   -0.135543
     5  H    0.139210
     6  H    0.119238
     7  C   -0.262991
     8  H    0.140164
     9  H    0.157374
    10  C   -0.153976
    11  H    0.142175
    12  H    0.160175
    13  N   -0.577669
    14  C    0.212704
    15  C   -0.165994
    16  H    0.142182
    17  C   -0.158046
    18  H    0.137470
    19  C   -0.133973
    20  H    0.134692
    21  C   -0.221880
    22  H    0.132264
    23  C    0.157066
    24  C   -0.349492
    25  H    0.143582
    26  H    0.158416
    27  C   -0.343776
    28  H    0.157508
    29  H    0.153822
    30  C    0.152833
    31  C   -0.211237
    32  H    0.127973
    33  C   -0.138094
    34  H    0.131329
    35  C   -0.159214
    36  H    0.134601
    37  C   -0.180132
    38  H    0.137627
    39  C    0.245071
 Sum of Mulliken charges =   0.00000

 Dipole moment (field-independent basis, Debye):
    X=              0.1552    Y=             -2.2834    Z=              0.4433  Tot=              2.3312
 Quadrupole moment (field-independent basis, Debye-Ang):
   XX=           -110.0335   YY=           -102.1087   ZZ=           -108.5063
   XY=              8.1571   XZ=              3.9982   YZ=              1.9990

 Normal termination of Gaussian 09 at Sun Jan 24 22:57:28 2021.
