 Gaussian 09, Revision D.01,

 -----------------
 #p b3lyp/6-31G(d)
 -----------------

 ----------------------------------------------
 SET_328_BBB256_conf1.geo_180_180_270.n.pdb.xyz
 ----------------------------------------------
 Symbolic Z-matrix:
 Charge =  0 Multiplicity = 1

 SCF Done:  E(RB3LYP) =  -421.568650819     A.U. after   14 cycles
 Normal termination of Gaussian 09 at Sun Jan 24 23:03:29 2021.
 Gaussian 09:  AM64L-G09RevD.01 24-Apr-2013

 ----------------------------------------------------------------------
 #p b3lyp/6-31G(d) scrf=(iefpcm,read,solvent=n-Octanol) geom=allcheck g
 uess=read
 ----------------------------------------------------------------------

 Structure from the checkpoint file:  "SET_328_BBB256_conf1.geo_180_180_270.n.pdb.xyz.mst.n.o.chk"
 ----------------------------------------------
 SET_328_BBB256_conf1.geo_180_180_270.n.pdb.xyz
 ----------------------------------------------
 Charge =  0 Multiplicity = 1

                         Standard orientation:
 ---------------------------------------------------------------------
 Center     Atomic      Atomic             Coordinates (Angstroms)
 Number     Number       Type             X           Y           Z
 ---------------------------------------------------------------------
      1          6           0       -4.117665   -0.186370   -0.706067
      2          1           0       -4.018475   -1.209514   -1.109295
      3          1           0       -4.041904    0.506785   -1.549689
      4          1           0       -5.118174   -0.084340   -0.276333
      5          7           0       -3.116829    0.161821    0.295863
      6          1           0       -3.256188   -0.424541    1.115325
      7          6           0       -1.754205   -0.032980   -0.187218
      8          1           0       -1.615418    0.607667   -1.066007
      9          1           0       -1.552514   -1.068569   -0.517345
     10          6           0       -0.734338    0.352969    0.889667
     11          1           0       -0.899584   -0.270334    1.774788
     12          1           0       -0.901040    1.392627    1.180030
     13          6           0        0.686128    0.162445    0.426208
     14          7           0        1.141415   -1.102997    0.384051
     15          6           0        2.390354   -1.306160   -0.050690
     16          1           0        2.724899   -2.340786   -0.068543
     17          6           0        3.247129   -0.284906   -0.460381
     18          1           0        4.250705   -0.512209   -0.799944
     19          6           0        2.773100    1.024659   -0.414786
     20          1           0        3.402471    1.854584   -0.719814
     21          6           0        1.473601    1.250535    0.034851
     22          1           0        1.068500    2.255708    0.087924
 ---------------------------------------------------------------------

 SCF Done:  E(RB3LYP) =  -421.580099237     A.U. after   10 cycles

 The electronic state is 1-A.
 Alpha  occ. eigenvalues --  -14.32777 -14.31372 -10.22694 -10.22178 -10.20663
 Alpha  occ. eigenvalues --  -10.20390 -10.19693 -10.19590 -10.19535 -10.18280
 Alpha  occ. eigenvalues --   -0.94048  -0.89727  -0.80089  -0.78793  -0.72811
 Alpha  occ. eigenvalues --   -0.66292  -0.62920  -0.61863  -0.58974  -0.51383
 Alpha  occ. eigenvalues --   -0.49335  -0.47452  -0.46549  -0.44487  -0.43500
 Alpha  occ. eigenvalues --   -0.41648  -0.40159  -0.39848  -0.39029  -0.36693
 Alpha  occ. eigenvalues --   -0.35544  -0.34655  -0.34190  -0.28418  -0.25544
 Alpha  occ. eigenvalues --   -0.25383  -0.21930
 Alpha virt. eigenvalues --   -0.02335  -0.00778   0.09343   0.09888   0.12380
 Alpha virt. eigenvalues --    0.12834   0.14205   0.14733   0.16039   0.16524
 Alpha virt. eigenvalues --    0.17712   0.18016   0.18482   0.19643   0.19967

 Mulliken charges:
               1
     1  C   -0.302769
     2  H    0.124248
     3  H    0.150668
     4  H    0.149967
     5  N   -0.559806
     6  H    0.309007
     7  C   -0.113602
     8  H    0.138910
     9  H    0.126880
    10  C   -0.328753
    11  H    0.151388
    12  H    0.150489
    13  C    0.291664
    14  N   -0.480399
    15  C    0.026908
    16  H    0.145182
    17  C   -0.148666
    18  H    0.149696
    19  C   -0.108550
    20  H    0.156470
    21  C   -0.175430
    22  H    0.146497
 Sum of Mulliken charges =   0.00000

 Dipole moment (field-independent basis, Debye):
    X=              1.1185    Y=              0.7011    Z=             -0.6747  Tot=              1.4825
 Quadrupole moment (field-independent basis, Debye-Ang):
   XX=            -51.2558   YY=            -59.4953   ZZ=            -60.7184
   XY=              4.6609   XZ=             -2.7063   YZ=             -0.7535

 Normal termination of Gaussian 09 at Sun Jan 24 23:04:14 2021.
