 Gaussian 09, Revision D.01,

 -----------------
 #p b3lyp/6-31G(d)
 -----------------

 --------------------------------------------
 SET_328_BBB6_conf1.geo_165_225_075.n.pdb.xyz
 --------------------------------------------
 Symbolic Z-matrix:
 Charge =  0 Multiplicity = 1

 SCF Done:  E(RB3LYP) =  -1096.39922704     A.U. after   15 cycles
 Normal termination of Gaussian 09 at Sun Jan 24 23:20:08 2021.
 Gaussian 09:  AM64L-G09RevD.01 24-Apr-2013

 ----------------------------------------------------------------------
 #p b3lyp/6-31G(d) scrf=(iefpcm,read,solvent=n-Octanol) geom=allcheck g
 uess=read
 ----------------------------------------------------------------------

 Structure from the checkpoint file:  "SET_328_BBB6_conf1.geo_165_225_075.n.pdb.xyz.mst.n.o.chk"
 --------------------------------------------
 SET_328_BBB6_conf1.geo_165_225_075.n.pdb.xyz
 --------------------------------------------
 Charge =  0 Multiplicity = 1

                         Standard orientation:
 ---------------------------------------------------------------------
 Center     Atomic      Atomic             Coordinates (Angstroms)
 Number     Number       Type             X           Y           Z
 ---------------------------------------------------------------------
      1          6           0        1.419218    1.601371    1.956902
      2          1           0        0.495785    2.186980    1.962714
      3          1           0        2.272038    2.282356    1.970968
      4          1           0        1.449023    0.994955    2.866463
      5          6           0        1.527336    0.689513    0.717438
      6          7           0        2.773335   -0.064031    0.769168
      7          6           0        3.442582   -0.384210   -0.517308
      8          6           0        2.508250   -1.054922   -1.547463
      9          1           0        1.669029   -0.402980   -1.810555
     10          1           0        2.098020   -1.989194   -1.153636
     11          1           0        3.044037   -1.284343   -2.473987
     12          6           0        4.023742    0.916440   -1.104957
     13          1           0        4.700785    1.389081   -0.388411
     14          1           0        3.234900    1.636188   -1.349899
     15          1           0        4.577082    0.712463   -2.027542
     16          6           0        4.593744   -1.342606   -0.165738
     17          1           0        5.185329   -1.584985   -1.052342
     18          1           0        4.208242   -2.283173    0.245891
     19          1           0        5.252936   -0.890364    0.580862
     20          1           0        2.566980   -0.936963    1.255050
     21          1           0        1.527116    1.320071   -0.174236
     22          6           0        0.296619   -0.229797    0.693279
     23          8           0        0.384779   -1.364335    1.146483
     24          6           0       -1.014031    0.276466    0.178772
     25          6           0       -2.123489   -0.573718    0.296214
     26          1           0       -1.991753   -1.546183    0.753841
     27          6           0       -3.356988   -0.153156   -0.173541
     28         17           0       -4.746047   -1.217715   -0.023492
     29          6           0       -3.522622    1.100253   -0.765266
     30          1           0       -4.497044    1.405244   -1.125144
     31          6           0       -2.417456    1.941921   -0.882453
     32          1           0       -2.534876    2.917201   -1.342344
     33          6           0       -1.168027    1.535089   -0.415479
     34          1           0       -0.319677    2.201834   -0.516748
 ---------------------------------------------------------------------

 SCF Done:  E(RB3LYP) =  -1096.41475670     A.U. after   10 cycles

 The electronic state is 1-A.
 Alpha  occ. eigenvalues -- -101.55668 -19.15115 -14.30915 -10.28291 -10.26428
 Alpha  occ. eigenvalues --  -10.22257 -10.22003 -10.21852 -10.21762 -10.21488
 Alpha  occ. eigenvalues --  -10.21404 -10.21310 -10.18132 -10.17011 -10.16967
 Alpha  occ. eigenvalues --  -10.16923  -9.47305  -7.23698  -7.22735  -7.22699
 Alpha  occ. eigenvalues --   -1.05077  -0.90587  -0.90229  -0.85010  -0.79649
 Alpha  occ. eigenvalues --   -0.77770  -0.75117  -0.72875  -0.68504  -0.68351
 Alpha  occ. eigenvalues --   -0.66597  -0.62235  -0.61741  -0.55936  -0.54606
 Alpha  occ. eigenvalues --   -0.53126  -0.49752  -0.48367  -0.46824  -0.45796
 Alpha  occ. eigenvalues --   -0.45141  -0.44383  -0.44213  -0.43080  -0.42706
 Alpha  occ. eigenvalues --   -0.41680  -0.40455  -0.39616  -0.38593  -0.38283
 Alpha  occ. eigenvalues --   -0.37851  -0.37335  -0.36667  -0.36330  -0.36079
 Alpha  occ. eigenvalues --   -0.34538  -0.33951  -0.32716  -0.32168  -0.31958
 Alpha  occ. eigenvalues --   -0.27349  -0.26565  -0.25952  -0.21856
 Alpha virt. eigenvalues --   -0.07008  -0.02327   0.02326   0.02674   0.07519
 Alpha virt. eigenvalues --    0.09519   0.11783   0.12549   0.13127   0.14440
 Alpha virt. eigenvalues --    0.14873   0.15601   0.15781   0.16114   0.16317

 Mulliken charges:
               1
     1  C   -0.440356
     2  H    0.147381
     3  H    0.165908
     4  H    0.157682
     5  C   -0.062829
     6  N   -0.569928
     7  C    0.213077
     8  C   -0.455491
     9  H    0.134865
    10  H    0.149842
    11  H    0.143425
    12  C   -0.439522
    13  H    0.149093
    14  H    0.140374
    15  H    0.142399
    16  C   -0.455729
    17  H    0.145288
    18  H    0.141822
    19  H    0.150582
    20  H    0.307897
    21  H    0.147206
    22  C    0.408194
    23  O   -0.497425
    24  C    0.080093
    25  C   -0.153968
    26  H    0.179573
    27  C   -0.074210
    28  Cl  -0.022837
    29  C   -0.119475
    30  H    0.174101
    31  C   -0.140361
    32  H    0.165825
    33  C   -0.176785
    34  H    0.164293
 Sum of Mulliken charges =   0.00000

 Dipole moment (field-independent basis, Debye):
    X=              0.0836    Y=              3.5270    Z=             -2.0076  Tot=              4.0592
 Quadrupole moment (field-independent basis, Debye-Ang):
   XX=           -106.8357   YY=           -100.1701   ZZ=           -104.4495
   XY=             -6.9321   XZ=             -0.4505   YZ=             -1.2871

 Normal termination of Gaussian 09 at Sun Jan 24 23:22:53 2021.
