 Gaussian 09, Revision D.01,

 -----------------
 #p b3lyp/6-31G(d)
 -----------------

 ----------------------------------------------
 SET_328_BBB301_conf1.geo_090_285_255.n.pdb.xyz
 ----------------------------------------------
 Symbolic Z-matrix:
 Charge =  0 Multiplicity = 1

 SCF Done:  E(RB3LYP) =  -788.426746019     A.U. after   14 cycles
 Normal termination of Gaussian 09 at Mon Jan 25 16:27:33 2021.
 Gaussian 09:  AM64L-G09RevD.01 24-Apr-2013

 ----------------------------------------------------------------------
 #p b3lyp/6-31G(d) scrf=(iefpcm,read,solvent=n-Octanol) geom=allcheck g
 uess=read
 ----------------------------------------------------------------------

 Structure from the checkpoint file:  "SET_328_BBB301_conf1.geo_090_285_255.n.pdb.xyz.mst.n.o.chk"
 ----------------------------------------------
 SET_328_BBB301_conf1.geo_090_285_255.n.pdb.xyz
 ----------------------------------------------
 Charge =  0 Multiplicity = 1

                         Standard orientation:
 ---------------------------------------------------------------------
 Center     Atomic      Atomic             Coordinates (Angstroms)
 Number     Number       Type             X           Y           Z
 ---------------------------------------------------------------------
      1          6           0        3.345990    2.238713   -0.445334
      2          1           0        3.168730    2.614143    0.566524
      3          1           0        2.525775    2.583994   -1.084829
      4          1           0        4.270269    2.682429   -0.821923
      5          6           0        3.437367    0.706397   -0.443961
      6          6           0        3.671959    0.196678   -1.879210
      7          1           0        2.872679    0.535676   -2.546887
      8          1           0        3.691891   -0.895953   -1.910401
      9          1           0        4.622159    0.561876   -2.280641
     10          6           0        4.591918    0.266716    0.471253
     11          1           0        4.721520   -0.820294    0.477556
     12          1           0        4.411937    0.595442    1.500443
     13          1           0        5.533204    0.704954    0.127751
     14          7           0        2.152788    0.211919    0.113870
     15          1           0        1.390285    0.655739   -0.397984
     16          6           0        1.925343   -1.233896    0.117939
     17          1           0        2.808101   -1.718940    0.541388
     18          1           0        1.751745   -1.667885   -0.876799
     19          6           0        0.729357   -1.519677    1.050463
     20          8           0        0.953873   -0.854568    2.280884
     21          1           0        1.445190   -0.046935    2.010380
     22          1           0        0.712341   -2.597180    1.264724
     23          6           0       -0.604035   -1.131612    0.416989
     24          6           0       -1.413642   -0.146981    0.992289
     25          1           0       -1.073240    0.324893    1.907406
     26          6           0       -2.639040    0.224277    0.437675
     27          6           0       -3.522890    1.278798    1.071261
     28          8           0       -3.871720    2.335465    0.180115
     29          1           0       -4.334515    1.907520   -0.560365
     30          1           0       -2.991319    1.741651    1.907140
     31          1           0       -4.430219    0.805672    1.480480
     32          6           0       -3.058208   -0.417071   -0.738897
     33          8           0       -4.272050   -0.025712   -1.253568
     34          1           0       -4.459198   -0.511007   -2.071578
     35          6           0       -2.268655   -1.401730   -1.334267
     36          1           0       -2.604251   -1.889803   -2.244050
     37          6           0       -1.051304   -1.754503   -0.753204
     38          1           0       -0.448381   -2.527555   -1.222838
 ---------------------------------------------------------------------

 SCF Done:  E(RB3LYP) =  -788.452080502     A.U. after   10 cycles

 The electronic state is 1-A.
 Alpha  occ. eigenvalues --  -19.18766 -19.13206 -19.13166 -14.32722 -10.25060
 Alpha  occ. eigenvalues --  -10.23572 -10.22931 -10.22535 -10.20910 -10.19243
 Alpha  occ. eigenvalues --  -10.19187 -10.19032 -10.18680 -10.18538 -10.17360
 Alpha  occ. eigenvalues --  -10.17283 -10.17265  -1.06569  -1.01385  -1.00451
 Alpha  occ. eigenvalues --   -0.91080  -0.85383  -0.79001  -0.76699  -0.75122
 Alpha  occ. eigenvalues --   -0.70486  -0.68736  -0.68634  -0.67037  -0.63280
 Alpha  occ. eigenvalues --   -0.61368  -0.57416  -0.55366  -0.54458  -0.50353
 Alpha  occ. eigenvalues --   -0.49765  -0.48295  -0.47540  -0.46845  -0.46205
 Alpha  occ. eigenvalues --   -0.44266  -0.43622  -0.43178  -0.42954  -0.42076
 Alpha  occ. eigenvalues --   -0.41536  -0.40712  -0.40093  -0.38887  -0.38138
 Alpha  occ. eigenvalues --   -0.37730  -0.36650  -0.36322  -0.35633  -0.35045
 Alpha  occ. eigenvalues --   -0.33834  -0.33521  -0.32671  -0.32163  -0.31421
 Alpha  occ. eigenvalues --   -0.26810  -0.25866  -0.24950  -0.23534  -0.21947
 Alpha virt. eigenvalues --   -0.00603   0.00893   0.07110   0.07236   0.10051
 Alpha virt. eigenvalues --    0.10861   0.11740   0.11937   0.12598   0.13510
 Alpha virt. eigenvalues --    0.13652   0.13850   0.15284   0.15587   0.16034

 Mulliken charges:
               1
     1  C   -0.454206
     2  H    0.152669
     3  H    0.140682
     4  H    0.149959
     5  C    0.215069
     6  C   -0.452147
     7  H    0.140402
     8  H    0.149639
     9  H    0.147415
    10  C   -0.446799
    11  H    0.147689
    12  H    0.150511
    13  H    0.147724
    14  N   -0.598634
    15  H    0.306399
    16  C   -0.155808
    17  H    0.157689
    18  H    0.138931
    19  C    0.070040
    20  O   -0.662939
    21  H    0.405647
    22  H    0.143337
    23  C    0.125240
    24  C   -0.265718
    25  H    0.138321
    26  C    0.127165
    27  C   -0.109828
    28  O   -0.653484
    29  H    0.418951
    30  H    0.150475
    31  H    0.137250
    32  C    0.292406
    33  O   -0.678123
    34  H    0.440423
    35  C   -0.193411
    36  H    0.141418
    37  C   -0.201903
    38  H    0.137548
 Sum of Mulliken charges =   0.00000

 Dipole moment (field-independent basis, Debye):
    X=              1.2395    Y=             -2.3990    Z=             -4.9132  Tot=              5.6064
 Quadrupole moment (field-independent basis, Debye-Ang):
   XX=            -92.8054   YY=           -107.2081   ZZ=           -101.3394
   XY=             11.1843   XZ=              7.6077   YZ=              5.8406

 Normal termination of Gaussian 09 at Mon Jan 25 16:30:38 2021.
