 Gaussian 09, Revision D.01,

 -----------------
 #p b3lyp/6-31G(d)
 -----------------

 ---------------------------------------------
 SET_328_BBB29_conf1.geo_090_075_180.n.pdb.xyz
 ---------------------------------------------
 Symbolic Z-matrix:
 Charge =  0 Multiplicity = 1

 SCF Done:  E(RB3LYP) =  -1548.50897434     A.U. after   16 cycles
 Normal termination of Gaussian 09 at Sun Jan 24 23:14:03 2021.
 Gaussian 09:  AM64L-G09RevD.01 24-Apr-2013

 ----------------------------------------------------------------------
 #p b3lyp/6-31G(d) scrf=(iefpcm,read,solvent=n-Octanol) geom=allcheck g
 uess=read
 ----------------------------------------------------------------------

 Structure from the checkpoint file:  "SET_328_BBB29_conf1.geo_090_075_180.n.pdb.xyz.mst.n.o.chk"
 ---------------------------------------------
 SET_328_BBB29_conf1.geo_090_075_180.n.pdb.xyz
 ---------------------------------------------
 Charge =  0 Multiplicity = 1

                         Standard orientation:
 ---------------------------------------------------------------------
 Center     Atomic      Atomic             Coordinates (Angstroms)
 Number     Number       Type             X           Y           Z
 ---------------------------------------------------------------------
      1          7           0       -0.949966    4.165440    1.682346
      2          1           0       -1.037269    5.039156    1.159896
      3          1           0       -0.530571    4.425449    2.573027
      4          6           0       -0.042673    3.263518    0.966396
      5          1           0        0.155382    2.404258    1.613225
      6          1           0        0.939516    3.711811    0.732030
      7          6           0       -0.689614    2.777886   -0.332130
      8          1           0       -0.911089    3.639057   -0.976754
      9          1           0       -1.648653    2.307570   -0.097647
     10          6           0        0.206188    1.831116   -1.140371
     11          1           0        1.158036    2.330704   -1.321924
     12          1           0       -0.237653    1.632541   -2.126708
     13          7           0        0.513194    0.580783   -0.434242
     14          6           0       -0.549339   -0.283740   -0.095320
     15          6           0       -1.796032   -0.203156   -0.731459
     16          1           0       -1.968335    0.517388   -1.518407
     17          6           0       -2.823111   -1.060653   -0.349928
     18         17           0       -4.380883   -0.915912   -1.153457
     19          6           0       -2.650744   -2.029932    0.631022
     20          1           0       -3.463643   -2.687127    0.908866
     21          6           0       -1.400426   -2.133180    1.240493
     22          1           0       -1.232235   -2.886114    2.000037
     23          6           0       -0.367222   -1.262251    0.902414
     24         16           0        1.181815   -1.314679    1.777643
     25          6           0        2.252839   -0.913279    0.409254
     26          6           0        1.812900    0.020909   -0.549228
     27          6           0        2.686276    0.356178   -1.596251
     28          1           0        2.362876    1.039051   -2.371727
     29          6           0        3.969947   -0.187283   -1.653570
     30          1           0        4.629834    0.100850   -2.465095
     31          6           0        4.397520   -1.104504   -0.695551
     32          1           0        5.392226   -1.532306   -0.744922
     33          6           0        3.524590   -1.480801    0.326441
     34          1           0        3.828367   -2.205477    1.072567
 ---------------------------------------------------------------------

 SCF Done:  E(RB3LYP) =  -1548.53174294     A.U. after   11 cycles

 The electronic state is 1-A.
 Alpha  occ. eigenvalues -- -101.55245 -88.89641 -14.37451 -14.30742 -10.25688
 Alpha  occ. eigenvalues --  -10.24932 -10.24321 -10.22940 -10.22753 -10.22599
 Alpha  occ. eigenvalues --  -10.20795 -10.20624 -10.20286 -10.20273 -10.20018
 Alpha  occ. eigenvalues --  -10.19709 -10.19601 -10.19249 -10.18460  -9.46877
 Alpha  occ. eigenvalues --   -7.95683  -7.23265  -7.22309  -7.22277  -5.92185
 Alpha  occ. eigenvalues --   -5.91835  -5.91183  -0.97420  -0.89388  -0.87510
 Alpha  occ. eigenvalues --   -0.86269  -0.84897  -0.80074  -0.77475  -0.77047
 Alpha  occ. eigenvalues --   -0.74667  -0.73409  -0.68837  -0.67164  -0.63402
 Alpha  occ. eigenvalues --   -0.61575  -0.61157  -0.58402  -0.56579  -0.54314
 Alpha  occ. eigenvalues --   -0.51626  -0.48944  -0.48802  -0.48500  -0.47318
 Alpha  occ. eigenvalues --   -0.46621  -0.46310  -0.44833  -0.44401  -0.43005
 Alpha  occ. eigenvalues --   -0.41893  -0.41264  -0.40975  -0.40085  -0.38888
 Alpha  occ. eigenvalues --   -0.38480  -0.36918  -0.36579  -0.35831  -0.35003
 Alpha  occ. eigenvalues --   -0.34719  -0.34265  -0.32900  -0.31765  -0.30812
 Alpha  occ. eigenvalues --   -0.29346  -0.26351  -0.25412  -0.23337  -0.23125
 Alpha  occ. eigenvalues --   -0.19536
 Alpha virt. eigenvalues --   -0.02255  -0.01766  -0.00976   0.00299   0.02222
 Alpha virt. eigenvalues --    0.03634   0.07548   0.08819   0.09681   0.11468
 Alpha virt. eigenvalues --    0.12548   0.13585   0.13882   0.13896   0.14296

 Mulliken charges:
               1
     1  N   -0.744446
     2  H    0.305972
     3  H    0.313020
     4  C   -0.131800
     5  H    0.157389
     6  H    0.116223
     7  C   -0.272079
     8  H    0.143367
     9  H    0.159473
    10  C   -0.165947
    11  H    0.168577
    12  H    0.158153
    13  N   -0.575954
    14  C    0.315305
    15  C   -0.165928
    16  H    0.168009
    17  C   -0.090023
    18  Cl  -0.035256
    19  C   -0.126465
    20  H    0.162668
    21  C   -0.183706
    22  H    0.162893
    23  C   -0.121691
    24  S    0.151513
    25  C   -0.128695
    26  C    0.303977
    27  C   -0.175430
    28  H    0.153682
    29  C   -0.155148
    30  H    0.146396
    31  C   -0.128089
    32  H    0.144263
    33  C   -0.183665
    34  H    0.153443
 Sum of Mulliken charges =   0.00000

 Dipole moment (field-independent basis, Debye):
    X=              3.0485    Y=              2.2781    Z=             -1.3302  Tot=              4.0315
 Quadrupole moment (field-independent basis, Debye-Ang):
   XX=           -127.7380   YY=           -110.6004   ZZ=           -121.8995
   XY=              3.3322   XZ=             -4.0489   YZ=             -6.2314

 Normal termination of Gaussian 09 at Sun Jan 24 23:17:56 2021.
