 Gaussian 09, Revision D.01,

 -----------------
 #p b3lyp/6-31G(d)
 -----------------

 ----------------------------------------------
 SET_328_BBB268_conf1.geo_180_090_255.n.pdb.xyz
 ----------------------------------------------
 Symbolic Z-matrix:
 Charge =  0 Multiplicity = 1

 SCF Done:  E(RB3LYP) =  -976.178100428     A.U. after   15 cycles
 Normal termination of Gaussian 09 at Sun Jan 24 23:13:45 2021.
 Gaussian 09:  AM64L-G09RevD.01 24-Apr-2013

 ----------------------------------------------------------------------
 #p b3lyp/6-31G(d) scrf=(iefpcm,read,solvent=n-Octanol) geom=allcheck g
 uess=read
 ----------------------------------------------------------------------

 Structure from the checkpoint file:  "SET_328_BBB268_conf1.geo_180_090_255.n.pdb.xyz.mst.n.o.chk"
 ----------------------------------------------
 SET_328_BBB268_conf1.geo_180_090_255.n.pdb.xyz
 ----------------------------------------------
 Charge =  0 Multiplicity = 1

                         Standard orientation:
 ---------------------------------------------------------------------
 Center     Atomic      Atomic             Coordinates (Angstroms)
 Number     Number       Type             X           Y           Z
 ---------------------------------------------------------------------
      1          6           0        1.137296    4.577930   -0.900139
      2          1           0        1.492786    4.088449   -1.803603
      3          1           0        1.933675    5.202773   -0.480715
      4          1           0        0.282770    5.221450   -1.139671
      5          7           0        0.746245    3.550901    0.054768
      6          6           0        0.248040    4.041099    1.329087
      7          1           0       -0.674184    4.615886    1.188720
      8          1           0        0.989926    4.697986    1.793753
      9          1           0        0.043475    3.221326    2.011016
     10          6           0        0.860008    2.236004   -0.291880
     11          8           0        1.300599    1.874007   -1.383591
     12          6           0        0.427282    1.198712    0.759969
     13          1           0       -0.590663    1.409752    1.095367
     14          1           0        1.066496    1.314427    1.646342
     15          6           0        0.477655   -0.207994    0.272599
     16          6           0       -0.519759   -1.139159   -0.010702
     17          6           0       -1.975987   -0.937570   -0.019866
     18          6           0       -2.567819    0.297468   -0.325640
     19          6           0       -3.954000    0.446475   -0.315352
     20          6           0       -4.798969   -0.625993   -0.015119
     21          6           0       -6.298675   -0.453557   -0.004922
     22          1           0       -6.575898    0.560321   -0.299743
     23          1           0       -6.717261   -0.639597    0.990101
     24          1           0       -6.788349   -1.150842   -0.690972
     25          6           0       -4.205683   -1.864444    0.268740
     26          6           0       -2.825047   -2.020055    0.265913
     27          1           0       -2.379294   -2.983594    0.483761
     28          1           0       -4.836921   -2.719011    0.497793
     29          1           0       -4.389553    1.410543   -0.560944
     30          1           0       -1.946038    1.140071   -0.607165
     31          7           0        0.009745   -2.377504   -0.274704
     32          6           0        1.326911   -2.229239   -0.174323
     33          6           0        2.379145   -3.157483   -0.342604
     34          1           0        2.126641   -4.178845   -0.599590
     35          6           0        3.678110   -2.747986   -0.176097
     36          1           0        4.489640   -3.456311   -0.303782
     37          6           0        3.991636   -1.393531    0.156640
     38          6           0        5.421875   -0.955917    0.322275
     39          1           0        5.487500    0.106279    0.570089
     40          1           0        5.996544   -1.123799   -0.594323
     41          1           0        5.916998   -1.518343    1.118920
     42          6           0        2.966934   -0.499676    0.310382
     43          1           0        3.119572    0.546130    0.534760
     44          7           0        1.663100   -0.908769    0.157772
 ---------------------------------------------------------------------

 SCF Done:  E(RB3LYP) =  -976.200733485     A.U. after   11 cycles

 The electronic state is 1-A.
 Alpha  occ. eigenvalues --  -19.11419 -14.40989 -14.37095 -14.30811 -10.29120
 Alpha  occ. eigenvalues --  -10.24584 -10.23359 -10.22417 -10.22007 -10.21303
 Alpha  occ. eigenvalues --  -10.21265 -10.21218 -10.20683 -10.20013 -10.19874
 Alpha  occ. eigenvalues --  -10.19605 -10.19596 -10.18930 -10.18801 -10.18604
 Alpha  occ. eigenvalues --  -10.18497 -10.18428 -10.18092  -1.03582  -1.02764
 Alpha  occ. eigenvalues --   -0.93740  -0.90520  -0.85536  -0.83990  -0.79648
 Alpha  occ. eigenvalues --   -0.77439  -0.76659  -0.74216  -0.73085  -0.71919
 Alpha  occ. eigenvalues --   -0.70716  -0.68875  -0.67429  -0.62556  -0.61800
 Alpha  occ. eigenvalues --   -0.60632  -0.59285  -0.56489  -0.54955  -0.51855
 Alpha  occ. eigenvalues --   -0.50779  -0.49809  -0.49425  -0.48336  -0.47683
 Alpha  occ. eigenvalues --   -0.46461  -0.46107  -0.45748  -0.45417  -0.44536
 Alpha  occ. eigenvalues --   -0.42646  -0.42160  -0.41951  -0.41744  -0.41386
 Alpha  occ. eigenvalues --   -0.40763  -0.40633  -0.40458  -0.40117  -0.39100
 Alpha  occ. eigenvalues --   -0.38422  -0.38150  -0.37762  -0.36315  -0.36031
 Alpha  occ. eigenvalues --   -0.35732  -0.34234  -0.33571  -0.32746  -0.31326
 Alpha  occ. eigenvalues --   -0.27248  -0.26210  -0.25479  -0.24933  -0.24405
 Alpha  occ. eigenvalues --   -0.21668  -0.20135
 Alpha virt. eigenvalues --   -0.03492  -0.01082  -0.00005   0.01439   0.02197
 Alpha virt. eigenvalues --    0.07556   0.08588   0.10185   0.10453   0.11617
 Alpha virt. eigenvalues --    0.11925   0.12688   0.13146   0.13272   0.14121

 Mulliken charges:
               1
     1  C   -0.324503
     2  H    0.195842
     3  H    0.162908
     4  H    0.163809
     5  N   -0.407139
     6  C   -0.326223
     7  H    0.171890
     8  H    0.172640
     9  H    0.187670
    10  C    0.609971
    11  O   -0.543313
    12  C   -0.522498
    13  H    0.198161
    14  H    0.191391
    15  C    0.351273
    16  C    0.087380
    17  C    0.094353
    18  C   -0.191210
    19  C   -0.206108
    20  C    0.176663
    21  C   -0.533551
    22  H    0.159980
    23  H    0.166410
    24  H    0.166835
    25  C   -0.192380
    26  C   -0.172621
    27  H    0.146150
    28  H    0.131712
    29  H    0.131750
    30  H    0.138309
    31  N   -0.596817
    32  C    0.529811
    33  C   -0.196185
    34  H    0.157417
    35  C   -0.160250
    36  H    0.146948
    37  C    0.110106
    38  C   -0.531963
    39  H    0.163372
    40  H    0.172364
    41  H    0.170866
    42  C    0.022506
    43  H    0.169143
    44  N   -0.542870
 Sum of Mulliken charges =   0.00000

 Dipole moment (field-independent basis, Debye):
    X=              1.6880    Y=              5.1686    Z=              4.1695  Tot=              6.8519
 Quadrupole moment (field-independent basis, Debye-Ang):
   XX=           -110.0718   YY=           -115.1068   ZZ=           -139.2679
   XY=             -5.0978   XZ=              3.6285   YZ=              5.2011

 Normal termination of Gaussian 09 at Sun Jan 24 23:19:59 2021.
