 Gaussian 09, Revision D.01,

 -----------------
 #p b3lyp/6-31G(d)
 -----------------

 ----------------------------------------------
 SET_328_BBB321_conf1.geo_180_330_045.n.pdb.xyz
 ----------------------------------------------
 Symbolic Z-matrix:
 Charge =  0 Multiplicity = 1

 SCF Done:  E(RB3LYP) =  -1212.31446780     A.U. after   15 cycles
 Normal termination of Gaussian 09 at Sat Feb  6 18:53:27 2021.
 Gaussian 09:  AM64L-G09RevD.01 24-Apr-2013

 ----------------------------------------------------------------------
 #p b3lyp/6-31G(d) scrf=(iefpcm,read,solvent=n-Octanol) geom=allcheck g
 uess=read
 ----------------------------------------------------------------------

 Structure from the checkpoint file:  "SET_328_BBB321_conf1.geo_180_330_045.n.pdb.xyz.mst.n.o.chk"
 ----------------------------------------------
 SET_328_BBB321_conf1.geo_180_330_045.n.pdb.xyz
 ----------------------------------------------
 Charge =  0 Multiplicity = 1

                         Standard orientation:
 ---------------------------------------------------------------------
 Center     Atomic      Atomic             Coordinates (Angstroms)
 Number     Number       Type             X           Y           Z
 ---------------------------------------------------------------------
      1          6           0       -4.522368    2.898600    0.114085
      2          1           0       -4.397189    3.643543   -0.675500
      3          1           0       -4.509360    3.429843    1.069351
      4          1           0       -5.493245    2.413369   -0.005335
      5          6           0       -3.346272    1.938834    0.070150
      6          8           0       -2.188099    2.343211    0.088926
      7          7           0       -3.697221    0.611978    0.021560
      8          1           0       -4.686412    0.412308    0.011286
      9          6           0       -2.858419   -0.519856   -0.018886
     10          6           0       -3.469888   -1.778801   -0.095088
     11          6           0       -2.683784   -2.927738   -0.137831
     12          6           0       -1.294484   -2.839741   -0.107213
     13          1           0       -0.692804   -3.739924   -0.149444
     14          1           0       -3.162768   -3.899811   -0.199060
     15          1           0       -4.552261   -1.856603   -0.123147
     16          6           0       -1.463032   -0.427203    0.014610
     17          1           0       -0.998931    0.542883    0.075086
     18          6           0       -0.674626   -1.583459   -0.027766
     19          6           0        0.792275   -1.452495    0.013156
     20          7           0        1.359464   -0.189978   -0.041005
     21          6           0        1.684249   -2.486213    0.110541
     22          1           0        1.472871   -3.541806    0.173382
     23         16           0        3.313397   -1.887758    0.134811
     24          6           0        2.676199   -0.227675    0.011800
     25          7           0        3.584665    0.773419   -0.012548
     26          6           0        3.194360    2.035205   -0.077007
     27          7           0        1.919618    2.460334   -0.211920
     28          1           0        1.680784    3.429316   -0.049725
     29          1           0        1.199132    1.745402   -0.145304
     30          7           0        4.166483    2.994715    0.018593
     31          1           0        3.985713    3.899952   -0.393922
     32          1           0        5.108595    2.649954   -0.102119
 ---------------------------------------------------------------------

 SCF Done:  E(RB3LYP) =  -1212.34486225     A.U. after   11 cycles

 The electronic state is 1-A.
 Alpha  occ. eigenvalues --  -88.89901 -19.12043 -14.37807 -14.35370 -14.35158
 Alpha  occ. eigenvalues --  -14.32088 -14.30821 -10.30596 -10.29820 -10.27294
 Alpha  occ. eigenvalues --  -10.23648 -10.22040 -10.20482 -10.20011 -10.19294
 Alpha  occ. eigenvalues --  -10.19256 -10.19168 -10.18642 -10.17925  -7.96078
 Alpha  occ. eigenvalues --   -5.92468  -5.92133  -5.91759  -1.03972  -0.99786
 Alpha  occ. eigenvalues --   -0.95306  -0.94323  -0.88207  -0.87546  -0.84952
 Alpha  occ. eigenvalues --   -0.78598  -0.77440  -0.75762  -0.72462  -0.70823
 Alpha  occ. eigenvalues --   -0.64371  -0.62996  -0.61638  -0.58477  -0.58006
 Alpha  occ. eigenvalues --   -0.56428  -0.54730  -0.52729  -0.51042  -0.49404
 Alpha  occ. eigenvalues --   -0.48536  -0.47800  -0.47165  -0.45399  -0.44856
 Alpha  occ. eigenvalues --   -0.43473  -0.43356  -0.42011  -0.41094  -0.40623
 Alpha  occ. eigenvalues --   -0.40263  -0.40011  -0.39069  -0.37515  -0.35816
 Alpha  occ. eigenvalues --   -0.35459  -0.34493  -0.31577  -0.29234  -0.28025
 Alpha  occ. eigenvalues --   -0.27712  -0.27329  -0.26835  -0.25429  -0.24279
 Alpha  occ. eigenvalues --   -0.22402  -0.19159
 Alpha virt. eigenvalues --   -0.03165  -0.01022  -0.00802   0.02794   0.03884
 Alpha virt. eigenvalues --    0.07514   0.07630   0.08247   0.09587   0.10441
 Alpha virt. eigenvalues --    0.11640   0.12787   0.13174   0.13704   0.13981

 Mulliken charges:
               1
     1  C   -0.544020
     2  H    0.189831
     3  H    0.192150
     4  H    0.164223
     5  C    0.601663
     6  O   -0.523934
     7  N   -0.715517
     8  H    0.355986
     9  C    0.349500
    10  C   -0.201394
    11  C   -0.151420
    12  C   -0.193385
    13  H    0.134365
    14  H    0.142373
    15  H    0.140933
    16  C   -0.238832
    17  H    0.200192
    18  C    0.101304
    19  C    0.286733
    20  N   -0.573395
    21  C   -0.426936
    22  H    0.181830
    23  S    0.194810
    24  C    0.300356
    25  N   -0.575205
    26  C    0.653964
    27  N   -0.784790
    28  H    0.362065
    29  H    0.412499
    30  N   -0.760524
    31  H    0.360878
    32  H    0.363696
 Sum of Mulliken charges =   0.00000

 Dipole moment (field-independent basis, Debye):
    X=             -4.2300    Y=              3.7392    Z=             -0.7120  Tot=              5.6905
 Quadrupole moment (field-independent basis, Debye-Ang):
   XX=            -82.5222   YY=            -89.2278   ZZ=           -121.4451
   XY=             14.6754   XZ=             -3.9406   YZ=             -2.8286

 Normal termination of Gaussian 09 at Sat Feb  6 18:56:29 2021.
