 Gaussian 09, Revision D.01,

 -----------------
 #p b3lyp/6-31G(d)
 -----------------

 ----------------------------------------------
 SET_328_BBB324_conf1.geo_180_105_180.n.pdb.xyz
 ----------------------------------------------
 Symbolic Z-matrix:
 Charge =  0 Multiplicity = 1

 SCF Done:  E(RB3LYP) =  -1692.24639343     A.U. after   16 cycles
 Normal termination of Gaussian 09 at Thu Jan 28 04:59:27 2021.
 Gaussian 09:  AM64L-G09RevD.01 24-Apr-2013

 ----------------------------------------------------------------------
 #p b3lyp/6-31G(d) scrf=(iefpcm,read,solvent=n-Octanol) geom=allcheck g
 uess=read
 ----------------------------------------------------------------------

 Structure from the checkpoint file:  "SET_328_BBB324_conf1.geo_180_105_180.n.pdb.xyz.mst.n.o.chk"
 ----------------------------------------------
 SET_328_BBB324_conf1.geo_180_105_180.n.pdb.xyz
 ----------------------------------------------
 Charge =  0 Multiplicity = 1

                         Standard orientation:
 ---------------------------------------------------------------------
 Center     Atomic      Atomic             Coordinates (Angstroms)
 Number     Number       Type             X           Y           Z
 ---------------------------------------------------------------------
      1          6           0        0.420989   -2.241217   -1.393863
      2          1           0       -0.119925   -2.985372   -0.804561
      3          1           0        1.082660   -2.738195   -2.099891
      4          1           0       -0.303377   -1.629536   -1.943132
      5          7           0        1.242190   -1.416014   -0.516166
      6          6           0        0.554447   -0.600764    0.489769
      7          1           0        1.099531   -0.655775    1.437524
      8          1           0       -0.442730   -1.006848    0.645582
      9          6           0        0.448586    0.811436    0.027029
     10          6           0       -0.574233    1.648239   -0.369494
     11          6           0       -1.996033    1.354512   -0.387835
     12          7           0       -2.903291    2.215978   -0.795604
     13          8           0       -4.113140    1.499827   -0.644483
     14          6           0       -3.789375    0.292728   -0.167643
     15          7           0       -2.514146    0.135291    0.018582
     16          6           0       -4.876764   -0.692933    0.160840
     17          6           0       -5.857274   -0.864254   -1.000170
     18          1           0       -6.283763    0.098311   -1.289364
     19          1           0       -6.663520   -1.526502   -0.678938
     20          1           0       -5.349081   -1.303718   -1.859452
     21          8           0       -4.294305   -1.969826    0.415147
     22          1           0       -3.451003   -1.831001    0.885031
     23          6           0       -5.608510   -0.242856    1.453859
     24          8           0       -6.504329   -1.248462    1.868235
     25          1           0       -5.987694   -2.073978    1.844292
     26          1           0       -6.185998    0.667221    1.277493
     27          1           0       -4.856151   -0.026617    2.227392
     28          7           0       -0.073106    2.871995   -0.773694
     29          6           0        1.222950    2.782346   -0.626095
     30          1           0        1.945581    3.547919   -0.861093
     31          7           0        1.605735    1.548876   -0.146058
     32          6           0        2.908583    1.128147    0.231439
     33          6           0        3.747386    2.065012    0.841055
     34          1           0        3.386724    3.071861    1.003055
     35          6           0        5.016117    1.685031    1.260820
     36          1           0        5.667667    2.408875    1.737514
     37          6           0        5.436646    0.366445    1.107173
     38          1           0        6.407874    0.044974    1.463934
     39          6           0        4.595788   -0.554881    0.488821
     40         17           0        5.174736   -2.204124    0.362813
     41          6           0        3.319734   -0.202882    0.013798
     42          6           0        2.542396   -1.177008   -0.851104
     43          8           0        3.100828   -1.709913   -1.805528
 ---------------------------------------------------------------------

 SCF Done:  E(RB3LYP) =  -1692.27478681     A.U. after   11 cycles

 The electronic state is 1-A.
 Alpha  occ. eigenvalues -- -101.55785 -19.26104 -19.17082 -19.15214 -19.12669
 Alpha  occ. eigenvalues --  -14.42438 -14.39825 -14.38237 -14.36080 -14.33961
 Alpha  occ. eigenvalues --  -10.30839 -10.30619 -10.27743 -10.27727 -10.27531
 Alpha  occ. eigenvalues --  -10.27226 -10.26332 -10.24943 -10.24910 -10.24380
 Alpha  occ. eigenvalues --  -10.23796 -10.23672 -10.22119 -10.22016 -10.21988
 Alpha  occ. eigenvalues --  -10.21894 -10.18852  -9.47414  -7.23831  -7.22848
 Alpha  occ. eigenvalues --   -7.22780  -1.17737  -1.05567  -1.05520  -1.04574
 Alpha  occ. eigenvalues --   -1.02136  -0.95761  -0.95429  -0.92999  -0.90186
 Alpha  occ. eigenvalues --   -0.88642  -0.84948  -0.80461  -0.79216  -0.78815
 Alpha  occ. eigenvalues --   -0.75612  -0.73542  -0.71329  -0.70020  -0.68133
 Alpha  occ. eigenvalues --   -0.66905  -0.65687  -0.63807  -0.61118  -0.59344
 Alpha  occ. eigenvalues --   -0.58334  -0.58098  -0.55579  -0.53771  -0.53551
 Alpha  occ. eigenvalues --   -0.52587  -0.51287  -0.50086  -0.49745  -0.49419
 Alpha  occ. eigenvalues --   -0.48407  -0.47887  -0.47576  -0.46024  -0.45550
 Alpha  occ. eigenvalues --   -0.44993  -0.44642  -0.43251  -0.42887  -0.42553
 Alpha  occ. eigenvalues --   -0.42200  -0.41174  -0.41039  -0.40169  -0.39946
 Alpha  occ. eigenvalues --   -0.39499  -0.38945  -0.38712  -0.38000  -0.37101
 Alpha  occ. eigenvalues --   -0.36625  -0.35377  -0.35082  -0.34691  -0.32313
 Alpha  occ. eigenvalues --   -0.32163  -0.31509  -0.30682  -0.30155  -0.29566
 Alpha  occ. eigenvalues --   -0.28104  -0.27287  -0.26220  -0.26077  -0.25411
 Alpha  occ. eigenvalues --   -0.24079
 Alpha virt. eigenvalues --   -0.05262  -0.04784  -0.03764  -0.00703   0.01285
 Alpha virt. eigenvalues --    0.01973   0.02599   0.05856   0.07271   0.09779
 Alpha virt. eigenvalues --    0.10159   0.10674   0.11388   0.11918   0.12423

 Mulliken charges:
               1
     1  C   -0.330143
     2  H    0.173441
     3  H    0.200746
     4  H    0.174006
     5  N   -0.395645
     6  C   -0.264118
     7  H    0.197168
     8  H    0.216481
     9  C    0.324122
    10  C    0.122393
    11  C    0.426567
    12  N   -0.232819
    13  O   -0.379588
    14  C    0.600385
    15  N   -0.578560
    16  C    0.179196
    17  C   -0.454676
    18  H    0.169779
    19  H    0.177096
    20  H    0.169959
    21  O   -0.652981
    22  H    0.423947
    23  C   -0.024544
    24  O   -0.628731
    25  H    0.414881
    26  H    0.163023
    27  H    0.134224
    28  N   -0.510895
    29  C    0.216445
    30  H    0.194454
    31  N   -0.560497
    32  C    0.282681
    33  C   -0.154788
    34  H    0.175053
    35  C   -0.136053
    36  H    0.174262
    37  C   -0.126544
    38  H    0.176958
    39  C   -0.130978
    40  Cl   0.010029
    41  C    0.050485
    42  C    0.535814
    43  O   -0.522036
 Sum of Mulliken charges =   0.00000

 Dipole moment (field-independent basis, Debye):
    X=              2.9032    Y=              0.2327    Z=              4.5939  Tot=              5.4393
 Quadrupole moment (field-independent basis, Debye-Ang):
   XX=           -169.0641   YY=           -167.1893   ZZ=           -163.7779
   XY=             27.7187   XZ=             16.8285   YZ=              3.1892

 Normal termination of Gaussian 09 at Thu Jan 28 05:06:07 2021.
