 Gaussian 09, Revision D.01,

 -----------------
 #p b3lyp/6-31G(d)
 -----------------

 ----------------------------------------------
 SET_328_BBB256_conf1.geo_180_285_285.n.pdb.xyz
 ----------------------------------------------
 Symbolic Z-matrix:
 Charge =  0 Multiplicity = 1

 SCF Done:  E(RB3LYP) =  -421.567847839     A.U. after   14 cycles
 Normal termination of Gaussian 09 at Sun Jan 24 23:03:31 2021.
 Gaussian 09:  AM64L-G09RevD.01 24-Apr-2013

 ----------------------------------------------------------------------
 #p b3lyp/6-31G(d) scrf=(iefpcm,read,solvent=n-Octanol) geom=allcheck g
 uess=read
 ----------------------------------------------------------------------

 Structure from the checkpoint file:  "SET_328_BBB256_conf1.geo_180_285_285.n.pdb.xyz.mst.n.o.chk"
 ----------------------------------------------
 SET_328_BBB256_conf1.geo_180_285_285.n.pdb.xyz
 ----------------------------------------------
 Charge =  0 Multiplicity = 1

                         Standard orientation:
 ---------------------------------------------------------------------
 Center     Atomic      Atomic             Coordinates (Angstroms)
 Number     Number       Type             X           Y           Z
 ---------------------------------------------------------------------
      1          6           0       -3.392753    0.594522   -1.081856
      2          1           0       -3.642729    1.616894   -1.378485
      3          1           0       -4.302215    0.123880   -0.669578
      4          1           0       -3.117117    0.040886   -1.986999
      5          7           0       -2.260698    0.612568   -0.161824
      6          1           0       -2.487955    1.216779    0.625072
      7          6           0       -1.943561   -0.716669    0.347830
      8          1           0       -1.696919   -1.357407   -0.506141
      9          1           0       -2.797759   -1.190452    0.863752
     10          6           0       -0.740664   -0.690298    1.294774
     11          1           0       -0.624270   -1.690974    1.722362
     12          1           0       -0.937744   -0.003508    2.126434
     13          6           0        0.544161   -0.303436    0.601518
     14          7           0        1.030271   -1.190277   -0.284606
     15          6           0        2.162085   -0.881867   -0.929162
     16          1           0        2.524995   -1.624341   -1.636418
     17          6           0        2.868668    0.304321   -0.732601
     18          1           0        3.781379    0.497133   -1.282707
     19          6           0        2.362919    1.222341    0.186359
     20          1           0        2.875415    2.159856    0.372498
     21          6           0        1.185350    0.913358    0.861835
     22          1           0        0.760668    1.601586    1.583045
 ---------------------------------------------------------------------

 SCF Done:  E(RB3LYP) =  -421.579375517     A.U. after   10 cycles

 The electronic state is 1-A.
 Alpha  occ. eigenvalues --  -14.32439 -14.31219 -10.22385 -10.21915 -10.20353
 Alpha  occ. eigenvalues --  -10.20198 -10.19627 -10.19294 -10.19177 -10.18366
 Alpha  occ. eigenvalues --   -0.93721  -0.89576  -0.79798  -0.78391  -0.72703
 Alpha  occ. eigenvalues --   -0.66097  -0.62761  -0.61985  -0.58455  -0.51387
 Alpha  occ. eigenvalues --   -0.48350  -0.47777  -0.45622  -0.44679  -0.43933
 Alpha  occ. eigenvalues --   -0.41367  -0.40595  -0.39243  -0.37812  -0.37372
 Alpha  occ. eigenvalues --   -0.34979  -0.34682  -0.34198  -0.28099  -0.25208
 Alpha  occ. eigenvalues --   -0.25007  -0.21769
 Alpha virt. eigenvalues --   -0.02047  -0.00397   0.08956   0.10486   0.12201
 Alpha virt. eigenvalues --    0.13144   0.14659   0.15030   0.16486   0.17273
 Alpha virt. eigenvalues --    0.17533   0.17794   0.18467   0.19629   0.19839

 Mulliken charges:
               1
     1  C   -0.303000
     2  H    0.148829
     3  H    0.122357
     4  H    0.151342
     5  N   -0.552058
     6  H    0.305127
     7  C   -0.114846
     8  H    0.154000
     9  H    0.113721
    10  C   -0.341873
    11  H    0.155123
    12  H    0.142173
    13  C    0.331544
    14  N   -0.487671
    15  C    0.026448
    16  H    0.142609
    17  C   -0.150701
    18  H    0.146807
    19  C   -0.109560
    20  H    0.153430
    21  C   -0.174390
    22  H    0.140587
 Sum of Mulliken charges =   0.00000

 Dipole moment (field-independent basis, Debye):
    X=             -0.2035    Y=              1.8100    Z=              1.1992  Tot=              2.1807
 Quadrupole moment (field-independent basis, Debye-Ang):
   XX=            -51.0782   YY=            -60.1206   ZZ=            -57.9793
   XY=              1.6625   XZ=             -3.7279   YZ=              2.2426

 Normal termination of Gaussian 09 at Sun Jan 24 23:04:20 2021.
