 Gaussian 09, Revision D.01,

 -----------------
 #p b3lyp/6-31G(d)
 -----------------

 ----------------------------------------------
 SET_328_BBB321_conf1.geo_180_030_240.n.pdb.xyz
 ----------------------------------------------
 Symbolic Z-matrix:
 Charge =  0 Multiplicity = 1

 SCF Done:  E(RB3LYP) =  -1212.31316920     A.U. after   15 cycles
 Normal termination of Gaussian 09 at Thu Jan 28 04:43:35 2021.
 Gaussian 09:  AM64L-G09RevD.01 24-Apr-2013

 ----------------------------------------------------------------------
 #p b3lyp/6-31G(d) scrf=(iefpcm,read,solvent=n-Octanol) geom=allcheck g
 uess=read
 ----------------------------------------------------------------------

 Structure from the checkpoint file:  "SET_328_BBB321_conf1.geo_180_030_240.n.pdb.xyz.mst.n.o.chk"
 ----------------------------------------------
 SET_328_BBB321_conf1.geo_180_030_240.n.pdb.xyz
 ----------------------------------------------
 Charge =  0 Multiplicity = 1

                         Standard orientation:
 ---------------------------------------------------------------------
 Center     Atomic      Atomic             Coordinates (Angstroms)
 Number     Number       Type             X           Y           Z
 ---------------------------------------------------------------------
      1          6           0        4.998985    2.737207    0.289778
      2          1           0        4.144811    3.400363    0.443207
      3          1           0        5.554226    3.073123   -0.589020
      4          1           0        5.668578    2.818974    1.148165
      5          6           0        4.623389    1.278452    0.102393
      6          8           0        5.478669    0.413198   -0.060231
      7          7           0        3.274544    1.028887    0.129936
      8          1           0        2.672155    1.830428    0.273485
      9          6           0        2.599874   -0.201162   -0.007352
     10          6           0        3.259329   -1.422167   -0.202408
     11          6           0        2.499861   -2.586141   -0.324614
     12          6           0        1.112156   -2.557601   -0.257485
     13          1           0        0.541957   -3.472922   -0.371094
     14          1           0        3.008997   -3.530740   -0.482025
     15          1           0        4.336453   -1.439652   -0.257392
     16          6           0        1.200332   -0.171003    0.061588
     17          1           0        0.682082    0.767431    0.221811
     18          6           0        0.444241   -1.339834   -0.059610
     19          6           0       -1.024444   -1.278883    0.030163
     20          7           0       -1.662847   -0.050757   -0.009582
     21          6           0       -1.850713   -2.360908    0.171607
     22          1           0       -1.575169   -3.400346    0.252511
     23         16           0       -3.508063   -1.857064    0.257367
     24          6           0       -2.974110   -0.165444    0.091613
     25          7           0       -3.943980    0.777088    0.085628
     26          6           0       -3.652450    2.049632   -0.124704
     27          7           0       -2.408821    2.559729   -0.268858
     28          1           0       -1.655684    1.877985   -0.336067
     29          1           0       -2.281727    3.484193   -0.657296
     30          7           0       -4.700688    2.921793   -0.223222
     31          1           0       -5.586624    2.553611    0.095328
     32          1           0       -4.536548    3.894918   -0.000762
 ---------------------------------------------------------------------

 SCF Done:  E(RB3LYP) =  -1212.34436009     A.U. after   11 cycles

 The electronic state is 1-A.
 Alpha  occ. eigenvalues --  -88.90126 -19.12130 -14.38050 -14.35632 -14.35541
 Alpha  occ. eigenvalues --  -14.32484 -14.31099 -10.30882 -10.29933 -10.27589
 Alpha  occ. eigenvalues --  -10.23829 -10.22318 -10.20690 -10.20334 -10.19333
 Alpha  occ. eigenvalues --  -10.19109 -10.19084 -10.18700 -10.18373  -7.96305
 Alpha  occ. eigenvalues --   -5.92694  -5.92359  -5.91987  -1.04056  -1.00073
 Alpha  occ. eigenvalues --   -0.95597  -0.94472  -0.88525  -0.87829  -0.85115
 Alpha  occ. eigenvalues --   -0.78870  -0.77511  -0.75985  -0.72725  -0.70859
 Alpha  occ. eigenvalues --   -0.64490  -0.63468  -0.61321  -0.59441  -0.58286
 Alpha  occ. eigenvalues --   -0.56024  -0.55011  -0.52973  -0.51310  -0.49617
 Alpha  occ. eigenvalues --   -0.48631  -0.48073  -0.47420  -0.45510  -0.44768
 Alpha  occ. eigenvalues --   -0.43824  -0.43541  -0.42467  -0.41133  -0.40714
 Alpha  occ. eigenvalues --   -0.40405  -0.40304  -0.39291  -0.37504  -0.35931
 Alpha  occ. eigenvalues --   -0.35450  -0.34758  -0.31582  -0.29453  -0.28267
 Alpha  occ. eigenvalues --   -0.28015  -0.27570  -0.27204  -0.25655  -0.24504
 Alpha  occ. eigenvalues --   -0.22512  -0.19405
 Alpha virt. eigenvalues --   -0.03262  -0.01185  -0.01047   0.02607   0.03571
 Alpha virt. eigenvalues --    0.06991   0.07363   0.08104   0.09541   0.10157
 Alpha virt. eigenvalues --    0.11443   0.12709   0.12950   0.13249   0.13958

 Mulliken charges:
               1
     1  C   -0.543524
     2  H    0.161755
     3  H    0.192561
     4  H    0.192600
     5  C    0.602727
     6  O   -0.525438
     7  N   -0.709064
     8  H    0.348030
     9  C    0.357245
    10  C   -0.172310
    11  C   -0.160223
    12  C   -0.190433
    13  H    0.135586
    14  H    0.142071
    15  H    0.175344
    16  C   -0.265441
    17  H    0.146310
    18  C    0.112512
    19  C    0.281849
    20  N   -0.572536
    21  C   -0.422922
    22  H    0.183771
    23  S    0.201080
    24  C    0.299783
    25  N   -0.572374
    26  C    0.653154
    27  N   -0.776282
    28  H    0.392716
    29  H    0.363097
    30  N   -0.759254
    31  H    0.365472
    32  H    0.362137
 Sum of Mulliken charges =   0.00000

 Dipole moment (field-independent basis, Debye):
    X=             -3.1934    Y=              7.8887    Z=              0.2144  Tot=              8.5133
 Quadrupole moment (field-independent basis, Debye-Ang):
   XX=           -130.8549   YY=            -77.9741   ZZ=           -120.7141
   XY=            -10.3039   XZ=              0.5251   YZ=              0.7628

 Normal termination of Gaussian 09 at Thu Jan 28 04:46:38 2021.
