 Gaussian 09, Revision D.01,

 -----------------
 #p b3lyp/6-31G(d)
 -----------------

 ----------------------------------------------
 SET_328_BBB227_conf1.geo_075_180_240.n.pdb.xyz
 ----------------------------------------------
 Symbolic Z-matrix:
 Charge =  0 Multiplicity = 1

 SCF Done:  E(RB3LYP) =  -1203.25986477     A.U. after   15 cycles
 Normal termination of Gaussian 09 at Sun Jan 24 22:59:40 2021.
 Gaussian 09:  AM64L-G09RevD.01 24-Apr-2013

 ----------------------------------------------------------------------
 #p b3lyp/6-31G(d) scrf=(iefpcm,read,solvent=n-Octanol) geom=allcheck g
 uess=read
 ----------------------------------------------------------------------

 Structure from the checkpoint file:  "SET_328_BBB227_conf1.geo_075_180_240.n.pdb.xyz.mst.n.o.chk"
 ----------------------------------------------
 SET_328_BBB227_conf1.geo_075_180_240.n.pdb.xyz
 ----------------------------------------------
 Charge =  0 Multiplicity = 1

                         Standard orientation:
 ---------------------------------------------------------------------
 Center     Atomic      Atomic             Coordinates (Angstroms)
 Number     Number       Type             X           Y           Z
 ---------------------------------------------------------------------
      1         16           0       -1.617276    2.381974   -0.975596
      2          6           0       -1.028961    1.144364    0.045400
      3          7           0       -1.823771    0.126879    0.477400
      4          6           0       -3.232655   -0.062669    0.132490
      5          6           0       -3.400984   -0.947439   -1.112336
      6          6           0       -4.883134   -1.181289   -1.435926
      7          6           0       -5.635670   -1.765634   -0.233869
      8          6           0       -5.464192   -0.885852    1.012443
      9          6           0       -3.982304   -0.648607    1.337217
     10          1           0       -3.517399   -1.603003    1.622414
     11          1           0       -3.876726    0.023588    2.194955
     12          1           0       -5.963809   -1.341114    1.874246
     13          1           0       -5.953822    0.081789    0.841658
     14          1           0       -5.251333   -2.772561   -0.021000
     15          1           0       -6.699662   -1.880488   -0.471142
     16          1           0       -4.975742   -1.843895   -2.303089
     17          1           0       -5.344156   -0.226326   -1.722736
     18          1           0       -2.908588   -1.913466   -0.931221
     19          1           0       -2.888147   -0.476634   -1.956685
     20          1           0       -3.621077    0.932886   -0.091736
     21          1           0       -1.371980   -0.694392    0.858456
     22          7           0        0.258045    1.142103    0.485161
     23          6           0        0.784892    0.294218    1.559089
     24          6           0        1.863896   -0.664086    1.029675
     25          1           0        2.505862   -0.958994    1.865263
     26          1           0        1.413672   -1.579447    0.633185
     27          1           0        1.224564    0.964164    2.307076
     28          1           0       -0.023036   -0.229469    2.066204
     29          6           0        1.247308    2.087889   -0.047052
     30          1           0        1.133829    3.066756    0.433873
     31          1           0        1.025949    2.228657   -1.103523
     32          6           0        2.675759    1.547767    0.137950
     33          1           0        3.054720    1.788633    1.138255
     34          1           0        3.329618    2.054727   -0.575496
     35          6           0        2.710821    0.022681   -0.079611
     36          1           0        2.230411   -0.180154   -1.044168
     37          6           0        4.100008   -0.540547   -0.183928
     38          6           0        5.161547   -0.406443    0.685472
     39          1           0        5.280088    0.113313    1.622507
     40          7           0        6.194167   -1.123079    0.120068
     41          1           0        7.123687   -1.226852    0.499248
     42          6           0        5.731753   -1.651154   -1.044530
     43          1           0        6.350724   -2.261363   -1.687969
     44          7           0        4.473026   -1.322636   -1.261765
 ---------------------------------------------------------------------

 SCF Done:  E(RB3LYP) =  -1203.28917278     A.U. after   11 cycles

 The electronic state is 1-A.
 Alpha  occ. eigenvalues --  -88.80978 -14.38896 -14.37180 -14.36408 -14.31065
 Alpha  occ. eigenvalues --  -10.29508 -10.23664 -10.23037 -10.21821 -10.21621
 Alpha  occ. eigenvalues --  -10.21008 -10.20033 -10.19540 -10.19074 -10.18859
 Alpha  occ. eigenvalues --  -10.18222 -10.17976 -10.17750 -10.17697 -10.17631
 Alpha  occ. eigenvalues --   -7.87204  -5.83786  -5.83122  -5.82825  -1.00998
 Alpha  occ. eigenvalues --   -0.99006  -0.92392  -0.86884  -0.82853  -0.81086
 Alpha  occ. eigenvalues --   -0.76818  -0.75500  -0.74044  -0.73126  -0.71132
 Alpha  occ. eigenvalues --   -0.66995  -0.64296  -0.62113  -0.61077  -0.60913
 Alpha  occ. eigenvalues --   -0.58836  -0.57178  -0.56479  -0.55436  -0.54268
 Alpha  occ. eigenvalues --   -0.52572  -0.49431  -0.48642  -0.47296  -0.45523
 Alpha  occ. eigenvalues --   -0.44177  -0.43949  -0.43493  -0.43373  -0.42986
 Alpha  occ. eigenvalues --   -0.42545  -0.41937  -0.41029  -0.40001  -0.39457
 Alpha  occ. eigenvalues --   -0.38652  -0.37726  -0.37489  -0.36360  -0.35657
 Alpha  occ. eigenvalues --   -0.34591  -0.34337  -0.33422  -0.33303  -0.32411
 Alpha  occ. eigenvalues --   -0.32074  -0.31006  -0.30168  -0.27566  -0.27068
 Alpha  occ. eigenvalues --   -0.23447  -0.22116  -0.21009  -0.19797
 Alpha virt. eigenvalues --    0.00759   0.02948   0.06051   0.06678   0.08522
 Alpha virt. eigenvalues --    0.09177   0.09482   0.10342   0.11114   0.12091
 Alpha virt. eigenvalues --    0.12675   0.13352   0.13721   0.14217   0.14867

 Mulliken charges:
               1
     1  S   -0.412195
     2  C    0.370129
     3  N   -0.598750
     4  C    0.047229
     5  C   -0.257484
     6  C   -0.266436
     7  C   -0.259300
     8  C   -0.264956
     9  C   -0.271834
    10  H    0.126867
    11  H    0.144305
    12  H    0.137679
    13  H    0.136883
    14  H    0.131086
    15  H    0.134699
    16  H    0.136621
    17  H    0.136595
    18  H    0.122812
    19  H    0.154458
    20  H    0.172632
    21  H    0.334810
    22  N   -0.409174
    23  C   -0.179403
    24  C   -0.271540
    25  H    0.149576
    26  H    0.150706
    27  H    0.172752
    28  H    0.163294
    29  C   -0.112368
    30  H    0.157620
    31  H    0.184691
    32  C   -0.314541
    33  H    0.145004
    34  H    0.160984
    35  C   -0.147938
    36  H    0.148629
    37  C    0.217255
    38  C   -0.023074
    39  H    0.164240
    40  N   -0.550053
    41  H    0.370232
    42  C    0.202219
    43  H    0.167593
    44  N   -0.502555
 Sum of Mulliken charges =   0.00000

 Dipole moment (field-independent basis, Debye):
    X=              6.2765    Y=             -4.8363    Z=              6.0700  Tot=              9.9814
 Quadrupole moment (field-independent basis, Debye-Ang):
   XX=            -80.4707   YY=           -138.9331   ZZ=           -129.8432
   XY=              7.3086   XZ=              8.0977   YZ=              2.8562

 Normal termination of Gaussian 09 at Sun Jan 24 23:04:35 2021.
