 Gaussian 09, Revision D.01,

 -----------------
 #p b3lyp/6-31G(d)
 -----------------

 ----------------------------------------------
 SET_328_BBB324_conf1.geo_180_300_300.n.pdb.xyz
 ----------------------------------------------
 Symbolic Z-matrix:
 Charge =  0 Multiplicity = 1

 SCF Done:  E(RB3LYP) =  -1692.24324843     A.U. after   17 cycles
 Normal termination of Gaussian 09 at Thu Jan 28 05:07:43 2021.
 Gaussian 09:  AM64L-G09RevD.01 24-Apr-2013

 ----------------------------------------------------------------------
 #p b3lyp/6-31G(d) scrf=(iefpcm,read,solvent=n-Octanol) geom=allcheck g
 uess=read
 ----------------------------------------------------------------------

 Structure from the checkpoint file:  "SET_328_BBB324_conf1.geo_180_300_300.n.pdb.xyz.mst.n.o.chk"
 ----------------------------------------------
 SET_328_BBB324_conf1.geo_180_300_300.n.pdb.xyz
 ----------------------------------------------
 Charge =  0 Multiplicity = 1

                         Standard orientation:
 ---------------------------------------------------------------------
 Center     Atomic      Atomic             Coordinates (Angstroms)
 Number     Number       Type             X           Y           Z
 ---------------------------------------------------------------------
      1          6           0        0.239092   -2.346551   -0.954386
      2          1           0       -0.269567   -2.990977   -0.233860
      3          1           0        0.838988   -2.948943   -1.632484
      4          1           0       -0.512476   -1.793351   -1.526180
      5          7           0        1.130952   -1.432231   -0.252492
      6          6           0        0.528509   -0.488819    0.693710
      7          1           0        1.143644   -0.437774    1.595458
      8          1           0       -0.457982   -0.855640    0.968548
      9          6           0        0.397871    0.857230    0.066410
     10          6           0       -0.647177    1.651375   -0.360071
     11          6           0       -2.068506    1.371676   -0.233014
     12          7           0       -3.005967    2.188955   -0.663489
     13          8           0       -4.195990    1.510603   -0.329108
     14          6           0       -3.838370    0.365178    0.262498
     15          7           0       -2.548644    0.215702    0.355942
     16          6           0       -4.920365   -0.582098    0.746872
     17          6           0       -4.846818   -0.714046    2.265967
     18          1           0       -5.606842   -1.422203    2.601513
     19          1           0       -5.041344    0.254275    2.735959
     20          1           0       -3.861659   -1.063708    2.578880
     21          8           0       -6.195688   -0.078424    0.407179
     22          1           0       -6.315503   -0.302690   -0.534984
     23          6           0       -4.721617   -1.936926    0.060555
     24          8           0       -4.990635   -1.710053   -1.318136
     25          1           0       -5.147527   -2.562610   -1.752280
     26          1           0       -5.432367   -2.647551    0.496261
     27          1           0       -3.702300   -2.303428    0.220855
     28          7           0       -0.169991    2.807201   -0.953059
     29          6           0        1.133289    2.716521   -0.889555
     30          1           0        1.839893    3.435966   -1.275181
     31          7           0        1.544117    1.549656   -0.283798
     32          6           0        2.867172    1.157960    0.050808
     33          6           0        3.757379    2.144737    0.482917
     34          1           0        3.420489    3.172592    0.549551
     35          6           0        5.050086    1.795362    0.854562
     36          1           0        5.741021    2.557706    1.193328
     37          6           0        5.445565    0.460049    0.831449
     38          1           0        6.437259    0.167138    1.156094
     39          6           0        4.553715   -0.513030    0.391362
     40         17           0        5.103973   -2.176339    0.428142
     41          6           0        3.251251   -0.196960   -0.031436
     42          6           0        2.402196   -1.255149   -0.712277
     43          8           0        2.883043   -1.907762   -1.634913
 ---------------------------------------------------------------------

 SCF Done:  E(RB3LYP) =  -1692.27472098     A.U. after   11 cycles

 The electronic state is 1-A.
 Alpha  occ. eigenvalues -- -101.55708 -19.25091 -19.16451 -19.15278 -19.12515
 Alpha  occ. eigenvalues --  -14.42133 -14.38856 -14.38046 -14.34757 -14.33645
 Alpha  occ. eigenvalues --  -10.30457 -10.29655 -10.27398 -10.27145 -10.27066
 Alpha  occ. eigenvalues --  -10.26782 -10.26045 -10.24546 -10.24518 -10.24501
 Alpha  occ. eigenvalues --  -10.23645 -10.23239 -10.21998 -10.21901 -10.21881
 Alpha  occ. eigenvalues --  -10.21778 -10.19025  -9.47337  -7.23753  -7.22772
 Alpha  occ. eigenvalues --   -7.22704  -1.16754  -1.05244  -1.05163  -1.04312
 Alpha  occ. eigenvalues --   -1.02044  -0.95267  -0.94716  -0.92672  -0.89972
 Alpha  occ. eigenvalues --   -0.87598  -0.84788  -0.80049  -0.79089  -0.78794
 Alpha  occ. eigenvalues --   -0.75447  -0.73248  -0.71142  -0.69864  -0.67822
 Alpha  occ. eigenvalues --   -0.66324  -0.65667  -0.63513  -0.59918  -0.59003
 Alpha  occ. eigenvalues --   -0.57916  -0.57253  -0.55000  -0.53719  -0.53443
 Alpha  occ. eigenvalues --   -0.52172  -0.50818  -0.50101  -0.49534  -0.49143
 Alpha  occ. eigenvalues --   -0.48817  -0.47615  -0.47368  -0.45855  -0.45296
 Alpha  occ. eigenvalues --   -0.44953  -0.43702  -0.42725  -0.42650  -0.42317
 Alpha  occ. eigenvalues --   -0.41984  -0.41172  -0.40684  -0.40055  -0.39825
 Alpha  occ. eigenvalues --   -0.39385  -0.38817  -0.38742  -0.37841  -0.36626
 Alpha  occ. eigenvalues --   -0.36096  -0.34712  -0.34500  -0.34324  -0.32190
 Alpha  occ. eigenvalues --   -0.31419  -0.30686  -0.29519  -0.29244  -0.29061
 Alpha  occ. eigenvalues --   -0.28283  -0.27913  -0.26044  -0.25924  -0.25232
 Alpha  occ. eigenvalues --   -0.23667
 Alpha virt. eigenvalues --   -0.04996  -0.04391  -0.03082  -0.00105   0.01562
 Alpha virt. eigenvalues --    0.02136   0.02730   0.06493   0.08020   0.09462
 Alpha virt. eigenvalues --    0.10025   0.10633   0.11213   0.11803   0.12412

 Mulliken charges:
               1
     1  C   -0.329836
     2  H    0.171840
     3  H    0.198955
     4  H    0.175394
     5  N   -0.395037
     6  C   -0.265356
     7  H    0.194693
     8  H    0.221156
     9  C    0.318805
    10  C    0.122850
    11  C    0.418458
    12  N   -0.244261
    13  O   -0.364139
    14  C    0.608180
    15  N   -0.560633
    16  C    0.203370
    17  C   -0.457460
    18  H    0.169404
    19  H    0.172489
    20  H    0.170270
    21  O   -0.661072
    22  H    0.421865
    23  C   -0.045197
    24  O   -0.649004
    25  H    0.436487
    26  H    0.154009
    27  H    0.153739
    28  N   -0.511985
    29  C    0.213877
    30  H    0.191855
    31  N   -0.559960
    32  C    0.282813
    33  C   -0.155350
    34  H    0.174333
    35  C   -0.135889
    36  H    0.173434
    37  C   -0.127654
    38  H    0.175979
    39  C   -0.130573
    40  Cl   0.008438
    41  C    0.050079
    42  C    0.534991
    43  O   -0.524355
 Sum of Mulliken charges =   0.00000

 Dipole moment (field-independent basis, Debye):
    X=              1.1424    Y=             -3.4048    Z=              4.0689  Tot=              5.4271
 Quadrupole moment (field-independent basis, Debye-Ang):
   XX=           -151.8655   YY=           -157.9542   ZZ=           -161.2422
   XY=             52.8395   XZ=             11.6347   YZ=              4.6517

 Normal termination of Gaussian 09 at Thu Jan 28 05:15:28 2021.
