 Gaussian 09, Revision D.01,

 -----------------
 #p b3lyp/6-31G(d)
 -----------------

 ----------------------------------------------
 SET_328_BBB301_conf1.geo_165_105_045.n.pdb.xyz
 ----------------------------------------------
 Symbolic Z-matrix:
 Charge =  0 Multiplicity = 1

 SCF Done:  E(RB3LYP) =  -788.430850302     A.U. after   14 cycles
 Normal termination of Gaussian 09 at Mon Jan 25 16:27:30 2021.
 Gaussian 09:  AM64L-G09RevD.01 24-Apr-2013

 ----------------------------------------------------------------------
 #p b3lyp/6-31G(d) scrf=(iefpcm,read,solvent=n-Octanol) geom=allcheck g
 uess=read
 ----------------------------------------------------------------------

 Structure from the checkpoint file:  "SET_328_BBB301_conf1.geo_165_105_045.n.pdb.xyz.mst.n.o.chk"
 ----------------------------------------------
 SET_328_BBB301_conf1.geo_165_105_045.n.pdb.xyz
 ----------------------------------------------
 Charge =  0 Multiplicity = 1

                         Standard orientation:
 ---------------------------------------------------------------------
 Center     Atomic      Atomic             Coordinates (Angstroms)
 Number     Number       Type             X           Y           Z
 ---------------------------------------------------------------------
      1          6           0        4.039845   -0.660070    1.463910
      2          1           0        4.084868   -1.658563    1.018715
      3          1           0        3.139651   -0.603120    2.082862
      4          1           0        4.900329   -0.538659    2.127399
      5          6           0        4.056747    0.417446    0.370719
      6          6           0        3.954195    1.818118    1.003179
      7          1           0        3.982361    2.595318    0.233610
      8          1           0        4.784208    2.000088    1.691789
      9          1           0        3.022919    1.934087    1.564922
     10          6           0        5.360878    0.305773   -0.428658
     11          1           0        5.444179   -0.681140   -0.894870
     12          1           0        6.229979    0.456866    0.218870
     13          1           0        5.404047    1.060020   -1.222663
     14          7           0        2.955497    0.157549   -0.591778
     15          1           0        3.086225    0.770924   -1.397243
     16          6           0        1.578382    0.300286   -0.114631
     17          1           0        1.252160    1.341061    0.020602
     18          1           0        1.494685   -0.199837    0.853225
     19          6           0        0.644364   -0.421756   -1.112803
     20          8           0        1.180444   -1.711185   -1.370168
     21          1           0        2.148674   -1.563234   -1.285735
     22          1           0        0.618480    0.173245   -2.041442
     23          6           0       -0.767854   -0.536137   -0.582666
     24          6           0       -1.708448    0.466653   -0.833235
     25          1           0       -1.435742    1.312779   -1.459255
     26          6           0       -3.004055    0.410385   -0.317149
     27          6           0       -4.025563    1.448727   -0.696787
     28          8           0       -4.803822    1.793836    0.466261
     29          1           0       -5.596191    2.271000    0.168800
     30          1           0       -4.693056    1.058317   -1.477662
     31          1           0       -3.525096    2.335713   -1.100667
     32          6           0       -3.364817   -0.680798    0.496366
     33          8           0       -4.611349   -0.784555    1.037220
     34          1           0       -5.013147    0.111302    0.975544
     35          6           0       -2.436533   -1.695970    0.748715
     36          1           0       -2.738086   -2.532835    1.371120
     37          6           0       -1.154757   -1.625078    0.209501
     38          1           0       -0.436433   -2.416430    0.389246
 ---------------------------------------------------------------------

 SCF Done:  E(RB3LYP) =  -788.457751019     A.U. after   10 cycles

 The electronic state is 1-A.
 Alpha  occ. eigenvalues --  -19.16973 -19.15659 -19.12725 -14.32605 -10.24614
 Alpha  occ. eigenvalues --  -10.24229 -10.23191 -10.22438 -10.20593 -10.19125
 Alpha  occ. eigenvalues --  -10.18845 -10.18354 -10.18300 -10.18010 -10.17336
 Alpha  occ. eigenvalues --  -10.17184 -10.17174  -1.05052  -1.02737  -1.00813
 Alpha  occ. eigenvalues --   -0.90869  -0.84993  -0.78789  -0.76934  -0.75209
 Alpha  occ. eigenvalues --   -0.69815  -0.68681  -0.68411  -0.67719  -0.62181
 Alpha  occ. eigenvalues --   -0.60654  -0.56929  -0.55350  -0.53819  -0.51857
 Alpha  occ. eigenvalues --   -0.49627  -0.48605  -0.47639  -0.46609  -0.46067
 Alpha  occ. eigenvalues --   -0.44498  -0.43919  -0.43652  -0.42515  -0.42155
 Alpha  occ. eigenvalues --   -0.41429  -0.40073  -0.39135  -0.38332  -0.37803
 Alpha  occ. eigenvalues --   -0.37308  -0.36777  -0.36525  -0.35925  -0.34905
 Alpha  occ. eigenvalues --   -0.33674  -0.32746  -0.32600  -0.32528  -0.31248
 Alpha  occ. eigenvalues --   -0.29122  -0.26088  -0.24535  -0.23484  -0.20869
 Alpha virt. eigenvalues --   -0.00340   0.01198   0.07073   0.07251   0.10465
 Alpha virt. eigenvalues --    0.11143   0.12354   0.12551   0.13091   0.13263
 Alpha virt. eigenvalues --    0.13894   0.14620   0.14969   0.15752   0.16543

 Mulliken charges:
               1
     1  C   -0.446616
     2  H    0.149987
     3  H    0.148249
     4  H    0.147298
     5  C    0.214590
     6  C   -0.450764
     7  H    0.140357
     8  H    0.146526
     9  H    0.149847
    10  C   -0.453658
    11  H    0.151305
    12  H    0.148872
    13  H    0.140928
    14  N   -0.601162
    15  H    0.313119
    16  C   -0.148064
    17  H    0.134354
    18  H    0.154065
    19  C    0.076269
    20  O   -0.673178
    21  H    0.403858
    22  H    0.112597
    23  C    0.142926
    24  C   -0.266789
    25  H    0.127390
    26  C    0.105294
    27  C   -0.131174
    28  O   -0.646594
    29  H    0.436265
    30  H    0.162739
    31  H    0.158126
    32  C    0.292659
    33  O   -0.686786
    34  H    0.437812
    35  C   -0.178296
    36  H    0.134654
    37  C   -0.189389
    38  H    0.142384
 Sum of Mulliken charges =   0.00000

 Dipole moment (field-independent basis, Debye):
    X=              0.7302    Y=              5.5752    Z=             -1.1874  Tot=              5.7468
 Quadrupole moment (field-independent basis, Debye-Ang):
   XX=            -78.0013   YY=           -102.1435   ZZ=           -104.9485
   XY=            -12.7779   XZ=              9.0956   YZ=             -7.8842

 Normal termination of Gaussian 09 at Mon Jan 25 16:30:43 2021.
