 Gaussian 09, Revision D.01,

 -----------------
 #p b3lyp/6-31G(d)
 -----------------

 ---------------------------------------------
 SET_328_BBB20_conf1.geo_270_180_300.n.pdb.xyz
 ---------------------------------------------
 Symbolic Z-matrix:
 Charge =  0 Multiplicity = 1

 SCF Done:  E(RB3LYP) =  -769.340289895     A.U. after   15 cycles
 Normal termination of Gaussian 09 at Sun Jan 24 22:55:37 2021.
 Gaussian 09:  AM64L-G09RevD.01 24-Apr-2013

 ----------------------------------------------------------------------
 #p b3lyp/6-31G(d) scrf=(iefpcm,read,solvent=n-Octanol) geom=allcheck g
 uess=read
 ----------------------------------------------------------------------

 Structure from the checkpoint file:  "SET_328_BBB20_conf1.geo_270_180_300.n.pdb.xyz.mst.n.o.chk"
 ---------------------------------------------
 SET_328_BBB20_conf1.geo_270_180_300.n.pdb.xyz
 ---------------------------------------------
 Charge =  0 Multiplicity = 1

                         Standard orientation:
 ---------------------------------------------------------------------
 Center     Atomic      Atomic             Coordinates (Angstroms)
 Number     Number       Type             X           Y           Z
 ---------------------------------------------------------------------
      1          7           0        3.897756   -2.141983    0.562112
      2          1           0        4.758916   -2.670183    0.668174
      3          1           0        3.743582   -1.703056    1.466219
      4          6           0        2.795741   -3.069696    0.257744
      5          1           0        2.483738   -3.679029    1.122949
      6          1           0        3.154395   -3.771497   -0.501328
      7          6           0        1.580706   -2.329785   -0.311239
      8          1           0        0.848814   -3.073749   -0.640395
      9          1           0        1.892366   -1.772517   -1.200195
     10          6           0        0.927870   -1.379488    0.714512
     11          1           0        1.710716   -0.902142    1.307922
     12          1           0        0.321242   -1.969648    1.409055
     13          7           0        0.074252   -0.291880    0.210971
     14          6           0        0.667897    0.964384   -0.069239
     15          6           0        2.046799    0.985348   -0.387371
     16          1           0        2.609102    0.059856   -0.410593
     17          6           0        2.721520    2.166178   -0.677697
     18          1           0        3.779018    2.124477   -0.917947
     19          6           0        2.042063    3.381877   -0.670293
     20          1           0        2.550066    4.312427   -0.900535
     21          6           0        0.694140    3.376389   -0.330788
     22          1           0        0.156648    4.320203   -0.275291
     23          6           0       -0.015912    2.209058   -0.013249
     24          6           0       -1.453228    2.417730    0.431571
     25          1           0       -2.116811    2.518341   -0.437765
     26          1           0       -1.496986    3.379977    0.953806
     27          6           0       -2.025160    1.322848    1.339862
     28          1           0       -2.940368    1.687104    1.814057
     29          1           0       -1.309986    1.097024    2.138528
     30          6           0       -2.335360    0.095578    0.539180
     31          6           0       -3.655476   -0.299520    0.310216
     32          1           0       -4.453171    0.271856    0.776368
     33          6           0       -3.958035   -1.408257   -0.479478
     34          1           0       -4.991027   -1.705670   -0.633889
     35          6           0       -2.916787   -2.122946   -1.072945
     36          1           0       -3.127744   -2.979799   -1.704868
     37          6           0       -1.594893   -1.726243   -0.870178
     38          1           0       -0.795102   -2.265775   -1.358591
     39          6           0       -1.285463   -0.623649   -0.058483
 ---------------------------------------------------------------------

 SCF Done:  E(RB3LYP) =  -769.361261610     A.U. after   10 cycles

 The electronic state is 1-A.
 Alpha  occ. eigenvalues --  -14.34982 -14.31093 -10.22663 -10.22187 -10.21548
 Alpha  occ. eigenvalues --  -10.20658 -10.19017 -10.18894 -10.18746 -10.18620
 Alpha  occ. eigenvalues --  -10.18619 -10.18565 -10.18518 -10.18403 -10.18016
 Alpha  occ. eigenvalues --  -10.17953 -10.17769 -10.17508 -10.17439  -0.94567
 Alpha  occ. eigenvalues --   -0.87761  -0.85180  -0.84007  -0.79630  -0.76257
 Alpha  occ. eigenvalues --   -0.75087  -0.74955  -0.72040  -0.69910  -0.66147
 Alpha  occ. eigenvalues --   -0.64454  -0.60439  -0.59352  -0.58685  -0.57802
 Alpha  occ. eigenvalues --   -0.56100  -0.51666  -0.50410  -0.48804  -0.47737
 Alpha  occ. eigenvalues --   -0.47233  -0.46701  -0.45828  -0.45095  -0.43068
 Alpha  occ. eigenvalues --   -0.42787  -0.42607  -0.41495  -0.41017  -0.39749
 Alpha  occ. eigenvalues --   -0.39081  -0.38433  -0.37636  -0.36793  -0.36423
 Alpha  occ. eigenvalues --   -0.35698  -0.34603  -0.34191  -0.33605  -0.33242
 Alpha  occ. eigenvalues --   -0.32752  -0.32395  -0.28405  -0.24636  -0.24022
 Alpha  occ. eigenvalues --   -0.23646  -0.23481  -0.18748
 Alpha virt. eigenvalues --   -0.00409   0.00099   0.00743   0.01772   0.07891
 Alpha virt. eigenvalues --    0.09826   0.10541   0.10795   0.11651   0.12728
 Alpha virt. eigenvalues --    0.13916   0.14038   0.14525   0.15121   0.15437

 Mulliken charges:
               1
     1  N   -0.740396
     2  H    0.318499
     3  H    0.314973
     4  C   -0.155518
     5  H    0.124799
     6  H    0.146621
     7  C   -0.253632
     8  H    0.140570
     9  H    0.153772
    10  C   -0.157744
    11  H    0.154993
    12  H    0.154599
    13  N   -0.592832
    14  C    0.253294
    15  C   -0.206418
    16  H    0.169464
    17  C   -0.162669
    18  H    0.130716
    19  C   -0.140091
    20  H    0.127063
    21  C   -0.220335
    22  H    0.125598
    23  C    0.151807
    24  C   -0.344292
    25  H    0.155936
    26  H    0.151338
    27  C   -0.349976
    28  H    0.145199
    29  H    0.155404
    30  C    0.156492
    31  C   -0.219208
    32  H    0.132373
    33  C   -0.133688
    34  H    0.135813
    35  C   -0.155480
    36  H    0.137337
    37  C   -0.162097
    38  H    0.145150
    39  C    0.212565
 Sum of Mulliken charges =   0.00000

 Dipole moment (field-independent basis, Debye):
    X=              0.3103    Y=             -2.3710    Z=              1.8357  Tot=              3.0146
 Quadrupole moment (field-independent basis, Debye-Ang):
   XX=           -101.9012   YY=           -102.1079   ZZ=           -112.7930
   XY=             -9.0767   XZ=              4.0325   YZ=              0.6510

 Normal termination of Gaussian 09 at Sun Jan 24 22:59:31 2021.
