 Gaussian 09, Revision D.01,

 -----------------
 #p b3lyp/6-31G(d)
 -----------------

 ----------------------------------------------
 SET_328_BBB272_conf1.geo_120_300_180.n.pdb.xyz
 ----------------------------------------------
 Symbolic Z-matrix:
 Charge =  0 Multiplicity = 1

 SCF Done:  E(RB3LYP) =  -648.689599624     A.U. after   15 cycles

 1\1\GINC-PIRINEUS35\SP\RB3LYP\6-31G(d)\C9H8O4\UBAFAR01\25-Jan-2021\0\\
 #p b3lyp/6-31G(d)\\SET_328_BBB272_conf1.geo_120_300_180.n.pdb.xyz\\0,1
 \C,0,-1.808,1.74,2.387\H,0,-2.28,0.841,2.793\H,0,-2.519,2.204,1.699\H,
 0,-1.573,2.425,3.201\C,0,-0.544,1.379,1.663\O,0,0.579,1.687,1.956\O,0,
 -0.846,0.597,0.549\C,0,0.168,0.133,-0.298\C,0,0.099,-1.201,-0.732\C,0,
 -0.945,-2.207,-0.336\O,0,-1.991,-1.781,0.393\H,0,-1.901,-0.824,0.566\O
 ,0,-0.871,-3.373,-0.667\C,0,1.083,-1.652,-1.626\H,0,1.019,-2.683,-1.95
 \C,0,2.091,-0.809,-2.074\H,0,2.84,-1.177,-2.764\C,0,2.128,0.514,-1.634

 Normal termination of Gaussian 09 at Mon Jan 25 16:23:41 2021.
 Gaussian 09:  AM64L-G09RevD.01 24-Apr-2013

 ----------------------------------------------------------------------
 #p b3lyp/6-31G(d) scrf=(iefpcm,read,solvent=n-Octanol) geom=allcheck g
 uess=read
 ----------------------------------------------------------------------

 Structure from the checkpoint file:  "SET_328_BBB272_conf1.geo_120_300_180.n.pdb.xyz.mst.n.o.chk"
 ----------------------------------------------
 SET_328_BBB272_conf1.geo_120_300_180.n.pdb.xyz
 ----------------------------------------------
 Charge =  0 Multiplicity = 1

                         Standard orientation:
 ---------------------------------------------------------------------
 Center     Atomic      Atomic             Coordinates (Angstroms)
 Number     Number       Type             X           Y           Z
 ---------------------------------------------------------------------
      1          6           0        3.536729    0.602630   -0.194617
      2          1           0        3.384080    1.614801    0.190129
      3          1           0        3.615455    0.671450   -1.282379
      4          1           0        4.455528    0.191303    0.222113
      5          6           0        2.382221   -0.276314    0.188478
      6          8           0        2.400944   -1.230304    0.917447
      7          8           0        1.219734    0.174133   -0.435578
      8          6           0       -0.000540   -0.484506   -0.240573
      9          6           0       -1.142574    0.303842   -0.023917
     10          6           0       -1.177936    1.803683    0.065610
     11          8           0       -0.051496    2.481783   -0.214295
     12          1           0        0.660429    1.853324   -0.442504
     13          8           0       -2.188976    2.405041    0.366870
     14          6           0       -2.375987   -0.352031    0.115430
     15          1           0       -3.247274    0.267863    0.284618
     16          6           0       -2.470123   -1.734930    0.037039
     17          1           0       -3.431550   -2.220859    0.146842
     18          6           0       -1.320365   -2.491271   -0.189462
     19          1           0       -1.382534   -3.570724   -0.259206
     20          6           0       -0.082839   -1.871187   -0.330607
     21          1           0        0.812710   -2.451873   -0.499459
 ---------------------------------------------------------------------

 SCF Done:  E(RB3LYP) =  -648.708720410     A.U. after   11 cycles

 The electronic state is 1-A.
 Alpha  occ. eigenvalues --  -19.23451 -19.19101 -19.17049 -19.13608 -10.35138
 Alpha  occ. eigenvalues --  -10.32799 -10.28105 -10.22322 -10.21261 -10.21229
 Alpha  occ. eigenvalues --  -10.21044 -10.20970 -10.20497  -1.13698  -1.10192
 Alpha  occ. eigenvalues --   -1.05583  -1.01777  -0.87874  -0.79576  -0.77898
 Alpha  occ. eigenvalues --   -0.75160  -0.66709  -0.65240  -0.61898  -0.59481
 Alpha  occ. eigenvalues --   -0.54683  -0.51619  -0.51372  -0.50325  -0.48714
 Alpha  occ. eigenvalues --   -0.46912  -0.45221  -0.45025  -0.44141  -0.42987
 Alpha  occ. eigenvalues --   -0.42299  -0.41060  -0.40662  -0.38519  -0.37607
 Alpha  occ. eigenvalues --   -0.36378  -0.34405  -0.31756  -0.30459  -0.28209
 Alpha  occ. eigenvalues --   -0.27053  -0.26255
 Alpha virt. eigenvalues --   -0.05618  -0.02948  -0.00513   0.05035   0.07733
 Alpha virt. eigenvalues --    0.08958   0.12701   0.13929   0.15220   0.15418
 Alpha virt. eigenvalues --    0.15953   0.17153   0.17815   0.18858   0.21318

 Mulliken charges:
               1
     1  C   -0.538546
     2  H    0.205847
     3  H    0.207936
     4  H    0.202508
     5  C    0.613854
     6  O   -0.438190
     7  O   -0.574412
     8  C    0.312604
     9  C    0.006400
    10  C    0.568585
    11  O   -0.605862
    12  H    0.445685
    13  O   -0.488890
    14  C   -0.180231
    15  H    0.173598
    16  C   -0.127147
    17  H    0.158583
    18  C   -0.141147
    19  H    0.163646
    20  C   -0.137735
    21  H    0.172911
 Sum of Mulliken charges =   0.00000

 Dipole moment (field-independent basis, Debye):
    X=              3.5863    Y=             -3.7057    Z=             -2.1065  Tot=              5.5706
 Quadrupole moment (field-independent basis, Debye-Ang):
   XX=            -64.5908   YY=            -81.0367   ZZ=            -75.3568
   XY=             16.5754   XZ=             -3.2044   YZ=              1.3651

 1\1\GINC-PIRINEUS35\SP\RB3LYP\6-31G(d)\C9H8O4\UBAFAR01\25-Jan-2021\0\\
 #p b3lyp/6-31G(d) scrf=(iefpcm,read,solvent=n-Octanol) geom=allcheck g
 uess=read\\SET_328_BBB272_conf1.geo_120_300_180.n.pdb.xyz\\0,1\C,0,-1.
 808,1.74,2.387\H,0,-2.28,0.841,2.793\H,0,-2.519,2.204,1.699\H,0,-1.573
 ,2.425,3.201\C,0,-0.544,1.379,1.663\O,0,0.579,1.687,1.956\O,0,-0.846,0
 .597,0.549\C,0,0.168,0.133,-0.298\C,0,0.099,-1.201,-0.732\C,0,-0.945,-
 2.207,-0.336\O,0,-1.991,-1.781,0.393\H,0,-1.901,-0.824,0.566\O,0,-0.87
 1,-3.373,-0.667\C,0,1.083,-1.652,-1.626\H,0,1.019,-2.683,-1.95\C,0,2.0

 Normal termination of Gaussian 09 at Mon Jan 25 16:24:49 2021.
