 Gaussian 09, Revision D.01,

 -----------------
 #p b3lyp/6-31G(d)
 -----------------

 ---------------------------------------------
 SET_328_BBB30_conf1.geo_285_180_285.n.pdb.xyz
 ---------------------------------------------
 Symbolic Z-matrix:
 Charge =  0 Multiplicity = 1

 SCF Done:  E(RB3LYP) =  -444.843530855     A.U. after   14 cycles
 Normal termination of Gaussian 09 at Sun Jan 24 23:15:48 2021.
 Gaussian 09:  AM64L-G09RevD.01 24-Apr-2013

 ----------------------------------------------------------------------
 #p b3lyp/6-31G(d) scrf=(iefpcm,read,solvent=n-Octanol) geom=allcheck g
 uess=read
 ----------------------------------------------------------------------

 Structure from the checkpoint file:  "SET_328_BBB30_conf1.geo_285_180_285.n.pdb.xyz.mst.n.o.chk"
 ---------------------------------------------
 SET_328_BBB30_conf1.geo_285_180_285.n.pdb.xyz
 ---------------------------------------------
 Charge =  0 Multiplicity = 1

                         Standard orientation:
 ---------------------------------------------------------------------
 Center     Atomic      Atomic             Coordinates (Angstroms)
 Number     Number       Type             X           Y           Z
 ---------------------------------------------------------------------
      1          6           0        3.534849   -1.205767   -0.260794
      2          1           0        3.022106   -1.664411   -1.122716
      3          1           0        3.375605   -1.860736    0.602710
      4          1           0        4.605986   -1.196312   -0.477146
      5          7           0        3.105156    0.144733    0.076221
      6          1           0        3.344533    0.780792   -0.684662
      7          6           0        1.683091    0.293771    0.397853
      8          6           0        1.457791    1.689528    0.982373
      9          1           0        2.093259    1.843498    1.857823
     10          1           0        0.415256    1.835229    1.273213
     11          1           0        1.707188    2.461703    0.244741
     12          1           0        1.465290   -0.452265    1.175714
     13          6           0        0.734988    0.014560   -0.806564
     14          1           0        1.049781   -0.922398   -1.280476
     15          1           0        0.876706    0.809501   -1.549086
     16          6           0       -0.726774   -0.082948   -0.439174
     17          6           0       -1.223578   -1.221830    0.212070
     18          1           0       -0.550762   -2.046242    0.430636
     19          6           0       -2.566696   -1.314121    0.574212
     20          1           0       -2.929910   -2.207259    1.075450
     21          6           0       -3.444500   -0.266681    0.288212
     22          1           0       -4.491539   -0.338613    0.566701
     23          6           0       -2.966527    0.870428   -0.362550
     24          1           0       -3.640823    1.688633   -0.595409
     25          6           0       -1.619877    0.958071   -0.722060
     26          1           0       -1.255370    1.845685   -1.232508
 ---------------------------------------------------------------------

 SCF Done:  E(RB3LYP) =  -444.856010281     A.U. after   10 cycles

 The electronic state is 1-A.
 Alpha  occ. eigenvalues --  -14.31253 -10.21136 -10.19735 -10.19357 -10.18800
 Alpha  occ. eigenvalues --  -10.18769 -10.18612 -10.18523 -10.18520 -10.18082
 Alpha  occ. eigenvalues --  -10.16793  -0.89863  -0.85205  -0.77983  -0.74088
 Alpha  occ. eigenvalues --   -0.73696  -0.67768  -0.65428  -0.60399  -0.59182
 Alpha  occ. eigenvalues --   -0.56954  -0.50924  -0.47231  -0.46350  -0.45609
 Alpha  occ. eigenvalues --   -0.44705  -0.42672  -0.42191  -0.41519  -0.39822
 Alpha  occ. eigenvalues --   -0.37985  -0.37538  -0.36450  -0.35212  -0.34195
 Alpha  occ. eigenvalues --   -0.33906  -0.33250  -0.32637  -0.24860  -0.24648
 Alpha  occ. eigenvalues --   -0.21084
 Alpha virt. eigenvalues --   -0.00056   0.00215   0.08908   0.09887   0.10835
 Alpha virt. eigenvalues --    0.12662   0.13415   0.14932   0.15352   0.16020
 Alpha virt. eigenvalues --    0.16815   0.17165   0.17536   0.18403   0.18502

 Mulliken charges:
               1
     1  C   -0.307637
     2  H    0.128632
     3  H    0.150284
     4  H    0.151431
     5  N   -0.551032
     6  H    0.303576
     7  C    0.044749
     8  C   -0.448774
     9  H    0.150018
    10  H    0.151454
    11  H    0.136469
    12  H    0.130478
    13  C   -0.366687
    14  H    0.150689
    15  H    0.136546
    16  C    0.174701
    17  C   -0.190623
    18  H    0.130946
    19  C   -0.139523
    20  H    0.137086
    21  C   -0.143692
    22  H    0.136340
    23  C   -0.139001
    24  H    0.136979
    25  C   -0.194351
    26  H    0.130940
 Sum of Mulliken charges =   0.00000

 Dipole moment (field-independent basis, Debye):
    X=              0.0007    Y=             -0.1654    Z=             -1.0162  Tot=              1.0296
 Quadrupole moment (field-independent basis, Debye-Ang):
   XX=            -66.0588   YY=            -64.0311   ZZ=            -69.0016
   XY=             -1.5332   XZ=             -5.5570   YZ=             -3.6602

 Normal termination of Gaussian 09 at Sun Jan 24 23:16:50 2021.
