 Gaussian 09, Revision D.01,

 -----------------
 #p b3lyp/6-31G(d)
 -----------------

 ---------------------------------------------
 SET_328_BBB20_conf1.geo_120_180_060.n.pdb.xyz
 ---------------------------------------------
 Symbolic Z-matrix:
 Charge =  0 Multiplicity = 1

 SCF Done:  E(RB3LYP) =  -769.345066590     A.U. after   15 cycles
 Normal termination of Gaussian 09 at Sun Jan 24 22:48:31 2021.
 Gaussian 09:  AM64L-G09RevD.01 24-Apr-2013

 ----------------------------------------------------------------------
 #p b3lyp/6-31G(d) scrf=(iefpcm,read,solvent=n-Octanol) geom=allcheck g
 uess=read
 ----------------------------------------------------------------------

 Structure from the checkpoint file:  "SET_328_BBB20_conf1.geo_120_180_060.n.pdb.xyz.mst.n.o.chk"
 ---------------------------------------------
 SET_328_BBB20_conf1.geo_120_180_060.n.pdb.xyz
 ---------------------------------------------
 Charge =  0 Multiplicity = 1

                         Standard orientation:
 ---------------------------------------------------------------------
 Center     Atomic      Atomic             Coordinates (Angstroms)
 Number     Number       Type             X           Y           Z
 ---------------------------------------------------------------------
      1          7           0       -3.087959   -3.643890    0.659997
      2          1           0       -2.650231   -3.749148    1.574111
      3          1           0       -2.377639   -3.897401   -0.019961
      4          6           0       -3.501626   -2.250086    0.471994
      5          1           0       -4.334956   -2.057308    1.155698
      6          1           0       -3.912850   -2.163333   -0.540792
      7          6           0       -2.434545   -1.164184    0.688462
      8          1           0       -2.023771   -1.246994    1.702363
      9          1           0       -2.912736   -0.180263    0.619131
     10          6           0       -1.280505   -1.253542   -0.315716
     11          1           0       -1.672844   -1.204501   -1.343536
     12          1           0       -0.800465   -2.227574   -0.219649
     13          7           0       -0.224332   -0.266831   -0.068535
     14          6           0        1.109486   -0.725542   -0.279157
     15          6           0        1.421018   -1.584084   -1.341195
     16          1           0        0.647413   -1.868077   -2.046495
     17          6           0        2.719548   -2.064933   -1.503035
     18          1           0        2.947177   -2.726910   -2.331998
     19          6           0        3.721678   -1.687577   -0.608997
     20          1           0        4.734213   -2.057693   -0.730816
     21          6           0        3.409124   -0.834755    0.449542
     22          1           0        4.174413   -0.545588    1.163678
     23          6           0        2.109600   -0.356991    0.634436
     24          6           0        1.740620    0.548532    1.771642
     25          1           0        2.562088    0.587226    2.492101
     26          1           0        0.860920    0.148066    2.285701
     27          6           0        1.439521    1.968678    1.286775
     28          1           0        2.330712    2.349197    0.771669
     29          1           0        1.302966    2.620246    2.157872
     30          6           0        0.231928    2.148646    0.382586
     31          6           0       -0.158247    3.477590    0.160842
     32          1           0        0.429784    4.258517    0.636522
     33          6           0       -1.260369    3.826553   -0.613420
     34          1           0       -1.530584    4.867446   -0.749185
     35          6           0       -2.011992    2.808201   -1.195081
     36          1           0       -2.879149    3.038096   -1.804212
     37          6           0       -1.643205    1.480990   -1.004217
     38          1           0       -2.229414    0.704769   -1.476976
     39          6           0       -0.525204    1.116884   -0.224704
 ---------------------------------------------------------------------

 SCF Done:  E(RB3LYP) =  -769.366757855     A.U. after   10 cycles

 The electronic state is 1-A.
 Alpha  occ. eigenvalues --  -14.34977 -14.31006 -10.22759 -10.22108 -10.21563
 Alpha  occ. eigenvalues --  -10.20537 -10.19282 -10.18964 -10.18818 -10.18802
 Alpha  occ. eigenvalues --  -10.18698 -10.18674 -10.18553 -10.18482 -10.18406
 Alpha  occ. eigenvalues --  -10.18289 -10.18223 -10.18026 -10.17863  -0.94979
 Alpha  occ. eigenvalues --   -0.87758  -0.85332  -0.84313  -0.79799  -0.76373
 Alpha  occ. eigenvalues --   -0.75360  -0.74990  -0.72260  -0.70019  -0.66445
 Alpha  occ. eigenvalues --   -0.64514  -0.60805  -0.60105  -0.58627  -0.57558
 Alpha  occ. eigenvalues --   -0.56307  -0.51547  -0.51085  -0.48975  -0.47800
 Alpha  occ. eigenvalues --   -0.46993  -0.46698  -0.46065  -0.45231  -0.43596
 Alpha  occ. eigenvalues --   -0.43197  -0.42729  -0.41505  -0.40544  -0.40297
 Alpha  occ. eigenvalues --   -0.38955  -0.38540  -0.38141  -0.37736  -0.36366
 Alpha  occ. eigenvalues --   -0.35665  -0.34452  -0.34088  -0.33872  -0.33547
 Alpha  occ. eigenvalues --   -0.33287  -0.32642  -0.28804  -0.24706  -0.24235
 Alpha  occ. eigenvalues --   -0.23607  -0.23302  -0.19446
 Alpha virt. eigenvalues --   -0.00545   0.00232   0.00487   0.01116   0.07686
 Alpha virt. eigenvalues --    0.09588   0.10267   0.10704   0.11516   0.12265
 Alpha virt. eigenvalues --    0.13010   0.13572   0.14246   0.15719   0.15820

 Mulliken charges:
               1
     1  N   -0.736788
     2  H    0.309164
     3  H    0.311688
     4  C   -0.150887
     5  H    0.145783
     6  H    0.141279
     7  C   -0.272229
     8  H    0.140548
     9  H    0.146365
    10  C   -0.147234
    11  H    0.141593
    12  H    0.149328
    13  N   -0.576854
    14  C    0.210690
    15  C   -0.165223
    16  H    0.141549
    17  C   -0.157650
    18  H    0.137627
    19  C   -0.133596
    20  H    0.135268
    21  C   -0.222236
    22  H    0.132565
    23  C    0.157564
    24  C   -0.349025
    25  H    0.143298
    26  H    0.158935
    27  C   -0.343102
    28  H    0.157562
    29  H    0.154316
    30  C    0.152349
    31  C   -0.210892
    32  H    0.128675
    33  C   -0.137797
    34  H    0.131803
    35  C   -0.159146
    36  H    0.134850
    37  C   -0.178528
    38  H    0.135643
    39  C    0.242745
 Sum of Mulliken charges =   0.00000

 Dipole moment (field-independent basis, Debye):
    X=              1.0988    Y=              0.0614    Z=              0.3997  Tot=              1.1708
 Quadrupole moment (field-independent basis, Debye-Ang):
   XX=           -114.2797   YY=           -114.5944   ZZ=           -108.7882
   XY=             -7.2220   XZ=              4.5120   YZ=              3.8426

 Normal termination of Gaussian 09 at Sun Jan 24 22:52:49 2021.
