 Gaussian 09, Revision D.01,

 -----------------
 #p b3lyp/6-31G(d)
 -----------------

 ---------------------------------------------
 SET_328_BBB20_conf1.geo_105_285_180.n.pdb.xyz
 ---------------------------------------------
 Symbolic Z-matrix:
 Charge =  0 Multiplicity = 1

 SCF Done:  E(RB3LYP) =  -769.345468862     A.U. after   15 cycles
 Normal termination of Gaussian 09 at Sun Jan 24 22:43:58 2021.
 Gaussian 09:  AM64L-G09RevD.01 24-Apr-2013

 ----------------------------------------------------------------------
 #p b3lyp/6-31G(d) scrf=(iefpcm,read,solvent=n-Octanol) geom=allcheck g
 uess=read
 ----------------------------------------------------------------------

 Structure from the checkpoint file:  "SET_328_BBB20_conf1.geo_105_285_180.n.pdb.xyz.mst.n.o.chk"
 ---------------------------------------------
 SET_328_BBB20_conf1.geo_105_285_180.n.pdb.xyz
 ---------------------------------------------
 Charge =  0 Multiplicity = 1

                         Standard orientation:
 ---------------------------------------------------------------------
 Center     Atomic      Atomic             Coordinates (Angstroms)
 Number     Number       Type             X           Y           Z
 ---------------------------------------------------------------------
      1          7           0        3.215511    2.902270    1.474266
      2          1           0        3.553105    3.690762    0.925626
      3          1           0        3.884928    2.150909    1.304997
      4          6           0        1.900519    2.493381    0.967971
      5          1           0        1.191176    3.304789    1.178365
      6          1           0        1.566636    1.631496    1.555861
      7          6           0        1.843113    2.145033   -0.524010
      8          1           0        2.553922    1.339318   -0.736941
      9          1           0        2.169331    3.013016   -1.112101
     10          6           0        0.450031    1.749196   -1.019329
     11          1           0        0.454833    1.669779   -2.117052
     12          1           0       -0.254261    2.546636   -0.768780
     13          7           0       -0.049853    0.525683   -0.377917
     14          6           0       -1.463304    0.361527   -0.271711
     15          6           0       -2.295262    1.084534   -1.149550
     16          1           0       -1.845289    1.699393   -1.918833
     17          6           0       -3.682509    1.012498   -1.078075
     18          1           0       -4.283908    1.588572   -1.774834
     19          6           0       -4.283449    0.192260   -0.127324
     20          1           0       -5.362840    0.120935   -0.053356
     21          6           0       -3.469025   -0.537601    0.733676
     22          1           0       -3.928332   -1.175972    1.483826
     23          6           0       -2.068279   -0.477632    0.696525
     24          6           0       -1.343630   -1.332284    1.731311
     25          1           0       -1.526921   -2.390062    1.499573
     26          1           0       -1.819655   -1.155995    2.704789
     27          6           0        0.173265   -1.136663    1.878054
     28          1           0        0.529109   -1.766711    2.699264
     29          1           0        0.382703   -0.095300    2.146791
     30          6           0        0.911060   -1.482766    0.615244
     31          6           0        1.714718   -2.620259    0.504861
     32          1           0        1.822196   -3.273816    1.367884
     33          6           0        2.394022   -2.913952   -0.678470
     34          1           0        3.024028   -3.796544   -0.740104
     35          6           0        2.264428   -2.060434   -1.774026
     36          1           0        2.787888   -2.274574   -2.700193
     37          6           0        1.452526   -0.930094   -1.685640
     38          1           0        1.344882   -0.272571   -2.541435
     39          6           0        0.767921   -0.638366   -0.499138
 ---------------------------------------------------------------------

 SCF Done:  E(RB3LYP) =  -769.366842534     A.U. after   10 cycles

 The electronic state is 1-A.
 Alpha  occ. eigenvalues --  -14.34727 -14.30747 -10.22652 -10.22049 -10.21538
 Alpha  occ. eigenvalues --  -10.20050 -10.19342 -10.19025 -10.18924 -10.18847
 Alpha  occ. eigenvalues --  -10.18709 -10.18705 -10.18590 -10.18510 -10.18457
 Alpha  occ. eigenvalues --  -10.18286 -10.18194 -10.18035 -10.17825  -0.94814
 Alpha  occ. eigenvalues --   -0.87426  -0.85282  -0.84242  -0.79673  -0.76456
 Alpha  occ. eigenvalues --   -0.75318  -0.74930  -0.72159  -0.69727  -0.66014
 Alpha  occ. eigenvalues --   -0.64489  -0.61008  -0.60022  -0.58574  -0.57355
 Alpha  occ. eigenvalues --   -0.56229  -0.51545  -0.50747  -0.49274  -0.47703
 Alpha  occ. eigenvalues --   -0.46847  -0.46788  -0.45318  -0.45114  -0.43625
 Alpha  occ. eigenvalues --   -0.43252  -0.42426  -0.41353  -0.40644  -0.39990
 Alpha  occ. eigenvalues --   -0.38616  -0.38411  -0.38055  -0.37642  -0.36331
 Alpha  occ. eigenvalues --   -0.35679  -0.34547  -0.34282  -0.33893  -0.33455
 Alpha  occ. eigenvalues --   -0.32813  -0.32641  -0.28728  -0.24612  -0.24124
 Alpha  occ. eigenvalues --   -0.23557  -0.23235  -0.19512
 Alpha virt. eigenvalues --   -0.00519   0.00142   0.00532   0.01052   0.08823
 Alpha virt. eigenvalues --    0.09018   0.10246   0.10566   0.11098   0.11993
 Alpha virt. eigenvalues --    0.13121   0.13943   0.14649   0.15339   0.15771

 Mulliken charges:
               1
     1  N   -0.735293
     2  H    0.305815
     3  H    0.305647
     4  C   -0.149497
     5  H    0.137031
     6  H    0.161323
     7  C   -0.283325
     8  H    0.145570
     9  H    0.135465
    10  C   -0.150184
    11  H    0.141175
    12  H    0.158613
    13  N   -0.574623
    14  C    0.234577
    15  C   -0.184462
    16  H    0.140823
    17  C   -0.158037
    18  H    0.134565
    19  C   -0.136816
    20  H    0.131801
    21  C   -0.210788
    22  H    0.128694
    23  C    0.154732
    24  C   -0.342390
    25  H    0.157815
    26  H    0.154822
    27  C   -0.359838
    28  H    0.144036
    29  H    0.168725
    30  C    0.161206
    31  C   -0.222557
    32  H    0.132970
    33  C   -0.132086
    34  H    0.135369
    35  C   -0.157914
    36  H    0.137869
    37  C   -0.160308
    38  H    0.139769
    39  C    0.209707
 Sum of Mulliken charges =   0.00000

 Dipole moment (field-independent basis, Debye):
    X=              0.9119    Y=             -0.0490    Z=             -1.6538  Tot=              1.8892
 Quadrupole moment (field-independent basis, Debye-Ang):
   XX=           -107.8001   YY=           -108.8719   ZZ=           -112.3807
   XY=             -1.9356   XZ=             -7.3714   YZ=            -11.6873

 Normal termination of Gaussian 09 at Sun Jan 24 22:48:05 2021.
