 Gaussian 09, Revision D.01,

 -----------------
 #p b3lyp/6-31G(d)
 -----------------

 ----------------------------------------------
 SET_328_BBB256_conf1.geo_285_180_105.n.pdb.xyz
 ----------------------------------------------
 Symbolic Z-matrix:
 Charge =  0 Multiplicity = 1

 SCF Done:  E(RB3LYP) =  -421.567284239     A.U. after   14 cycles
 Normal termination of Gaussian 09 at Sun Jan 24 23:05:28 2021.
 Gaussian 09:  AM64L-G09RevD.01 24-Apr-2013

 ----------------------------------------------------------------------
 #p b3lyp/6-31G(d) scrf=(iefpcm,read,solvent=n-Octanol) geom=allcheck g
 uess=read
 ----------------------------------------------------------------------

 Structure from the checkpoint file:  "SET_328_BBB256_conf1.geo_285_180_105.n.pdb.xyz.mst.n.o.chk"
 ----------------------------------------------
 SET_328_BBB256_conf1.geo_285_180_105.n.pdb.xyz
 ----------------------------------------------
 Charge =  0 Multiplicity = 1

                         Standard orientation:
 ---------------------------------------------------------------------
 Center     Atomic      Atomic             Coordinates (Angstroms)
 Number     Number       Type             X           Y           Z
 ---------------------------------------------------------------------
      1          6           0        3.818330    0.670855    0.000318
      2          1           0        4.886334    0.486517    0.149750
      3          1           0        3.431050    1.167261    0.905687
      4          1           0        3.713865    1.376157   -0.831451
      5          7           0        3.158525   -0.582494   -0.347518
      6          1           0        3.338703   -1.270954    0.378558
      7          6           0        1.719791   -0.468988   -0.558744
      8          1           0        1.345853   -1.436116   -0.916777
      9          1           0        1.557957    0.255253   -1.365152
     10          6           0        0.880795   -0.050062    0.677854
     11          1           0        1.226113    0.921471    1.044745
     12          1           0        1.041179   -0.786664    1.473534
     13          6           0       -0.591657    0.016610    0.361562
     14          7           0       -1.244175   -1.158316    0.284782
     15          6           0       -2.543980   -1.137662   -0.031739
     16          1           0       -3.036466   -2.105703   -0.080213
     17          6           0       -3.263684    0.029152   -0.287832
     18          1           0       -4.316717   -0.018802   -0.535725
     19          6           0       -2.587199    1.244526   -0.209162
     20          1           0       -3.103002    2.180705   -0.397095
     21          6           0       -1.234236    1.237698    0.117801
     22          1           0       -0.674273    2.163769    0.192930
 ---------------------------------------------------------------------

 SCF Done:  E(RB3LYP) =  -421.579031416     A.U. after   10 cycles

 The electronic state is 1-A.
 Alpha  occ. eigenvalues --  -14.32693 -14.31480 -10.22677 -10.22122 -10.20603
 Alpha  occ. eigenvalues --  -10.20526 -10.19778 -10.19512 -10.19485 -10.18156
 Alpha  occ. eigenvalues --   -0.93946  -0.89633  -0.80042  -0.78525  -0.72426
 Alpha  occ. eigenvalues --   -0.67155  -0.62838  -0.61770  -0.58778  -0.51348
 Alpha  occ. eigenvalues --   -0.49449  -0.47719  -0.46513  -0.44279  -0.43232
 Alpha  occ. eigenvalues --   -0.41593  -0.40227  -0.39449  -0.38661  -0.36907
 Alpha  occ. eigenvalues --   -0.36313  -0.34840  -0.33962  -0.28391  -0.25819
 Alpha  occ. eigenvalues --   -0.25416  -0.21396
 Alpha virt. eigenvalues --   -0.02260  -0.00758   0.09054   0.10033   0.11985
 Alpha virt. eigenvalues --    0.13289   0.14553   0.14845   0.15271   0.16039
 Alpha virt. eigenvalues --    0.17417   0.17741   0.18216   0.19533   0.21765

 Mulliken charges:
               1
     1  C   -0.310115
     2  H    0.151745
     3  H    0.130514
     4  H    0.150352
     5  N   -0.548697
     6  H    0.309819
     7  C   -0.135379
     8  H    0.150783
     9  H    0.139466
    10  C   -0.336655
    11  H    0.148216
    12  H    0.149253
    13  C    0.295633
    14  N   -0.481650
    15  C    0.026824
    16  H    0.144785
    17  C   -0.149351
    18  H    0.149035
    19  C   -0.108214
    20  H    0.155797
    21  C   -0.176646
    22  H    0.144485
 Sum of Mulliken charges =   0.00000

 Dipole moment (field-independent basis, Debye):
    X=             -1.0171    Y=              2.2054    Z=              0.7042  Tot=              2.5287
 Quadrupole moment (field-independent basis, Debye-Ang):
   XX=            -53.2649   YY=            -58.3987   ZZ=            -62.8861
   XY=             -0.3717   XZ=              6.5872   YZ=             -1.2633

 Normal termination of Gaussian 09 at Sun Jan 24 23:06:14 2021.
