 Gaussian 09, Revision D.01,

 -----------------
 #p b3lyp/6-31G(d)
 -----------------

 ---------------------------------------------
 SET_328_BBB30_conf1.geo_060_075_270.n.pdb.xyz
 ---------------------------------------------
 Symbolic Z-matrix:
 Charge =  0 Multiplicity = 1

 SCF Done:  E(RB3LYP) =  -444.840278913     A.U. after   13 cycles
 Normal termination of Gaussian 09 at Sun Jan 24 23:12:30 2021.
 Gaussian 09:  AM64L-G09RevD.01 24-Apr-2013

 ----------------------------------------------------------------------
 #p b3lyp/6-31G(d) scrf=(iefpcm,read,solvent=n-Octanol) geom=allcheck g
 uess=read
 ----------------------------------------------------------------------

 Structure from the checkpoint file:  "SET_328_BBB30_conf1.geo_060_075_270.n.pdb.xyz.mst.n.o.chk"
 ---------------------------------------------
 SET_328_BBB30_conf1.geo_060_075_270.n.pdb.xyz
 ---------------------------------------------
 Charge =  0 Multiplicity = 1

                         Standard orientation:
 ---------------------------------------------------------------------
 Center     Atomic      Atomic             Coordinates (Angstroms)
 Number     Number       Type             X           Y           Z
 ---------------------------------------------------------------------
      1          6           0        1.209995    2.018486   -0.662985
      2          1           0        1.513065    3.059865   -0.509217
      3          1           0        0.172432    1.906729   -0.321372
      4          1           0        1.226457    1.825524   -1.741908
      5          7           0        2.181016    1.143330   -0.015381
      6          1           0        2.223719    1.347700    0.983521
      7          6           0        1.996787   -0.294196   -0.214081
      8          6           0        3.327797   -0.999558    0.056666
      9          1           0        4.115473   -0.571784   -0.567967
     10          1           0        3.260078   -2.072583   -0.144334
     11          1           0        3.624942   -0.875035    1.103130
     12          1           0        1.747280   -0.423863   -1.274159
     13          6           0        0.879975   -0.965985    0.633546
     14          1           0        1.091102   -0.766383    1.692585
     15          1           0        0.982239   -2.050938    0.500702
     16          6           0       -0.546564   -0.567628    0.327310
     17          6           0       -1.144543   -0.909936   -0.893194
     18          1           0       -0.572250   -1.466691   -1.632762
     19          6           0       -2.462379   -0.549188   -1.173595
     20          1           0       -2.905246   -0.823742   -2.126160
     21          6           0       -3.212730    0.155839   -0.231412
     22          1           0       -4.239469    0.435348   -0.447181
     23          6           0       -2.636401    0.491970    0.993899
     24          1           0       -3.212740    1.032850    1.737285
     25          6           0       -1.315914    0.128638    1.268981
     26          1           0       -0.870336    0.389026    2.224705
 ---------------------------------------------------------------------

 SCF Done:  E(RB3LYP) =  -444.852568202     A.U. after   10 cycles

 The electronic state is 1-A.
 Alpha  occ. eigenvalues --  -14.30870 -10.21052 -10.19328 -10.19137 -10.18802
 Alpha  occ. eigenvalues --  -10.18787 -10.18620 -10.18505 -10.18490 -10.18200
 Alpha  occ. eigenvalues --  -10.16786  -0.89506  -0.85124  -0.77835  -0.74200
 Alpha  occ. eigenvalues --   -0.74021  -0.67392  -0.65145  -0.60404  -0.59001
 Alpha  occ. eigenvalues --   -0.57174  -0.51036  -0.47024  -0.46576  -0.45130
 Alpha  occ. eigenvalues --   -0.43828  -0.43032  -0.41770  -0.41601  -0.39599
 Alpha  occ. eigenvalues --   -0.38178  -0.37424  -0.36432  -0.35511  -0.34562
 Alpha  occ. eigenvalues --   -0.34014  -0.32749  -0.32263  -0.24867  -0.24606
 Alpha  occ. eigenvalues --   -0.20495
 Alpha virt. eigenvalues --   -0.00133   0.00211   0.08753   0.10178   0.10965
 Alpha virt. eigenvalues --    0.12498   0.14311   0.14773   0.15422   0.15873
 Alpha virt. eigenvalues --    0.16712   0.17288   0.17642   0.18111   0.19039

 Mulliken charges:
               1
     1  C   -0.308998
     2  H    0.141807
     3  H    0.145354
     4  H    0.145241
     5  N   -0.556169
     6  H    0.299203
     7  C    0.038493
     8  C   -0.436447
     9  H    0.148941
    10  H    0.139681
    11  H    0.138743
    12  H    0.131486
    13  C   -0.357306
    14  H    0.136991
    15  H    0.147910
    16  C    0.179482
    17  C   -0.188130
    18  H    0.131748
    19  C   -0.138569
    20  H    0.137063
    21  C   -0.143429
    22  H    0.136232
    23  C   -0.136833
    24  H    0.136932
    25  C   -0.199828
    26  H    0.130402
 Sum of Mulliken charges =   0.00000

 Dipole moment (field-independent basis, Debye):
    X=             -0.6673    Y=             -0.2685    Z=              0.6070  Tot=              0.9412
 Quadrupole moment (field-independent basis, Debye-Ang):
   XX=            -69.6108   YY=            -68.1915   ZZ=            -63.2130
   XY=             -3.7541   XZ=              2.8330   YZ=              3.5592

 Normal termination of Gaussian 09 at Sun Jan 24 23:13:36 2021.
