 Gaussian 09, Revision D.01,

 -----------------
 #p b3lyp/6-31G(d)
 -----------------

 ---------------------------------------------
 SET_328_BBB29_conf1.geo_090_180_300.n.pdb.xyz
 ---------------------------------------------
 Symbolic Z-matrix:
 Charge =  0 Multiplicity = 1

 SCF Done:  E(RB3LYP) =  -1548.51085319     A.U. after   16 cycles
 Normal termination of Gaussian 09 at Sun Jan 24 23:13:55 2021.
 Gaussian 09:  AM64L-G09RevD.01 24-Apr-2013

 ----------------------------------------------------------------------
 #p b3lyp/6-31G(d) scrf=(iefpcm,read,solvent=n-Octanol) geom=allcheck g
 uess=read
 ----------------------------------------------------------------------

 Structure from the checkpoint file:  "SET_328_BBB29_conf1.geo_090_180_300.n.pdb.xyz.mst.n.o.chk"
 ---------------------------------------------
 SET_328_BBB29_conf1.geo_090_180_300.n.pdb.xyz
 ---------------------------------------------
 Charge =  0 Multiplicity = 1

                         Standard orientation:
 ---------------------------------------------------------------------
 Center     Atomic      Atomic             Coordinates (Angstroms)
 Number     Number       Type             X           Y           Z
 ---------------------------------------------------------------------
      1          7           0       -0.876211    4.671241   -0.638046
      2          1           0       -1.272230    4.617331   -1.577292
      3          1           0       -0.844077    5.663892   -0.410492
      4          6           0        0.488185    4.131090   -0.659526
      5          1           0        0.950158    4.361769    0.305758
      6          1           0        1.132916    4.582274   -1.429792
      7          6           0        0.471289    2.614449   -0.864886
      8          1           0        1.501380    2.248405   -0.918621
      9          1           0       -0.001367    2.375783   -1.826041
     10          6           0       -0.312246    1.913867    0.249965
     11          1           0       -1.291767    2.385267    0.289606
     12          1           0        0.163388    2.092942    1.225615
     13          7           0       -0.512035    0.482117    0.005368
     14          6           0        0.615592   -0.362375   -0.059095
     15          6           0        1.856106    0.024230    0.470198
     16          1           0        1.972645    0.982290    0.959401
     17          6           0        2.948804   -0.831348    0.367538
     18         17           0        4.495585   -0.304139    1.020387
     19          6           0        2.851863   -2.087558   -0.220212
     20          1           0        3.715220   -2.736740   -0.286021
     21          6           0        1.610556   -2.484395   -0.717588
     22          1           0        1.501357   -3.463230   -1.172288
     23          6           0        0.511271   -1.632050   -0.660744
     24         16           0       -1.027556   -2.094356   -1.421987
     25          6           0       -2.125470   -1.334213   -0.242228
     26          6           0       -1.761871   -0.101239    0.329405
     27          6           0       -2.660792    0.504604    1.218747
     28          1           0       -2.393889    1.434938    1.703610
     29          6           0       -3.898707   -0.078525    1.490766
     30          1           0       -4.579992    0.420700    2.171299
     31          6           0       -4.249716   -1.297146    0.914084
     32          1           0       -5.207878   -1.755766    1.130263
     33          6           0       -3.348055   -1.931738    0.059771
     34          1           0       -3.593036   -2.889223   -0.388198
 ---------------------------------------------------------------------

 SCF Done:  E(RB3LYP) =  -1548.53266909     A.U. after   10 cycles

 The electronic state is 1-A.
 Alpha  occ. eigenvalues -- -101.55244 -88.89521 -14.37251 -14.31091 -10.25670
 Alpha  occ. eigenvalues --  -10.24856 -10.24095 -10.22841 -10.22420 -10.21854
 Alpha  occ. eigenvalues --  -10.20789 -10.20760 -10.20579 -10.20242 -10.19883
 Alpha  occ. eigenvalues --  -10.19484 -10.19429 -10.19094 -10.18455  -9.46875
 Alpha  occ. eigenvalues --   -7.95574  -7.23262  -7.22307  -7.22276  -5.92075
 Alpha  occ. eigenvalues --   -5.91725  -5.91072  -0.97265  -0.89335  -0.87931
 Alpha  occ. eigenvalues --   -0.86170  -0.84841  -0.79988  -0.77168  -0.76959
 Alpha  occ. eigenvalues --   -0.74589  -0.73377  -0.68990  -0.67134  -0.63310
 Alpha  occ. eigenvalues --   -0.61370  -0.60874  -0.58251  -0.56643  -0.54171
 Alpha  occ. eigenvalues --   -0.51766  -0.49242  -0.48795  -0.48382  -0.47110
 Alpha  occ. eigenvalues --   -0.46570  -0.46202  -0.44724  -0.44283  -0.42942
 Alpha  occ. eigenvalues --   -0.42250  -0.41456  -0.40368  -0.39647  -0.38835
 Alpha  occ. eigenvalues --   -0.38404  -0.37011  -0.36435  -0.35703  -0.34886
 Alpha  occ. eigenvalues --   -0.34787  -0.34406  -0.32845  -0.31762  -0.30843
 Alpha  occ. eigenvalues --   -0.29280  -0.26283  -0.25347  -0.23632  -0.23005
 Alpha  occ. eigenvalues --   -0.19354
 Alpha virt. eigenvalues --   -0.02198  -0.01708  -0.00823   0.00513   0.02240
 Alpha virt. eigenvalues --    0.03722   0.07533   0.08405   0.10755   0.11493
 Alpha virt. eigenvalues --    0.12707   0.13414   0.13616   0.13856   0.14597

 Mulliken charges:
               1
     1  N   -0.739024
     2  H    0.311810
     3  H    0.316680
     4  C   -0.142107
     5  H    0.143162
     6  H    0.129732
     7  C   -0.273496
     8  H    0.148745
     9  H    0.148632
    10  C   -0.153268
    11  H    0.190397
    12  H    0.147002
    13  N   -0.580752
    14  C    0.316927
    15  C   -0.166406
    16  H    0.164991
    17  C   -0.090697
    18  Cl  -0.036829
    19  C   -0.127722
    20  H    0.162078
    21  C   -0.184172
    22  H    0.162268
    23  C   -0.122336
    24  S    0.147645
    25  C   -0.129464
    26  C    0.306005
    27  C   -0.177148
    28  H    0.154763
    29  C   -0.155147
    30  H    0.145639
    31  C   -0.129043
    32  H    0.142928
    33  C   -0.183975
    34  H    0.152183
 Sum of Mulliken charges =   0.00000

 Dipole moment (field-independent basis, Debye):
    X=             -1.2672    Y=              3.1102    Z=             -0.3082  Tot=              3.3726
 Quadrupole moment (field-independent basis, Debye-Ang):
   XX=           -126.3074   YY=           -103.8864   ZZ=           -125.5221
   XY=             -0.2626   XZ=             -5.0127   YZ=             -1.9359

 Normal termination of Gaussian 09 at Sun Jan 24 23:17:26 2021.
