 Gaussian 09, Revision D.01,

 -----------------
 #p b3lyp/6-31G(d)
 -----------------

 ----------------------------------------------
 SET_328_BBB227_conf1.geo_075_180_060.n.pdb.xyz
 ----------------------------------------------
 Symbolic Z-matrix:
 Charge =  0 Multiplicity = 1

 SCF Done:  E(RB3LYP) =  -1203.26838602     A.U. after   15 cycles
 Normal termination of Gaussian 09 at Sun Jan 24 23:09:14 2021.
 Gaussian 09:  AM64L-G09RevD.01 24-Apr-2013

 ----------------------------------------------------------------------
 #p b3lyp/6-31G(d) scrf=(iefpcm,read,solvent=n-Octanol) geom=allcheck g
 uess=read
 ----------------------------------------------------------------------

 Structure from the checkpoint file:  "SET_328_BBB227_conf1.geo_075_180_060.n.pdb.xyz.mst.n.o.chk"
 ----------------------------------------------
 SET_328_BBB227_conf1.geo_075_180_060.n.pdb.xyz
 ----------------------------------------------
 Charge =  0 Multiplicity = 1

                         Standard orientation:
 ---------------------------------------------------------------------
 Center     Atomic      Atomic             Coordinates (Angstroms)
 Number     Number       Type             X           Y           Z
 ---------------------------------------------------------------------
      1         16           0        1.478070    2.124456   -1.389774
      2          6           0        0.949130    1.112870   -0.110708
      3          7           0        1.701156    0.066470    0.311762
      4          6           0        3.052330   -0.270570   -0.143013
      5          6           0        4.126036    0.334133    0.775998
      6          6           0        5.536998   -0.056709    0.318275
      7          6           0        5.691188   -1.579963    0.215109
      8          6           0        4.616369   -2.185498   -0.696348
      9          6           0        3.201403   -1.795374   -0.244985
     10          1           0        3.000354   -2.245802    0.738600
     11          1           0        2.451506   -2.192692   -0.937004
     12          1           0        4.706831   -3.275717   -0.723989
     13          1           0        4.773526   -1.833802   -1.724807
     14          1           0        5.606798   -2.021219    1.217146
     15          1           0        6.689063   -1.836271   -0.157832
     16          1           0        6.280889    0.356406    1.007577
     17          1           0        5.737074    0.394513   -0.662586
     18          1           0        3.959596   -0.022192    1.801390
     19          1           0        4.010512    1.422612    0.791153
     20          1           0        3.153710    0.170960   -1.137223
     21          1           0        1.315153   -0.557615    1.006078
     22          7           0       -0.231966    1.325387    0.538460
     23          6           0       -0.731816    0.554398    1.682455
     24          6           0       -1.896348   -0.350762    1.272400
     25          1           0       -1.556560   -1.096798    0.546207
     26          1           0       -2.267539   -0.891534    2.149233
     27          1           0        0.070386   -0.001521    2.167678
     28          1           0       -1.079609    1.286211    2.422052
     29          6           0       -1.272854    2.209078    0.006287
     30          1           0       -0.837626    2.788940   -0.802538
     31          1           0       -1.571052    2.892661    0.810352
     32          6           0       -2.476739    1.388159   -0.465540
     33          1           0       -2.179141    0.769073   -1.319111
     34          1           0       -3.262356    2.066004   -0.815223
     35          6           0       -3.034197    0.476502    0.643487
     36          1           0       -3.452933    1.120713    1.427717
     37          6           0       -4.138128   -0.400958    0.135406
     38          6           0       -5.466741   -0.405291    0.488248
     39          1           0       -6.034388    0.186671    1.189728
     40          7           0       -6.050635   -1.394409   -0.274979
     41          1           0       -7.026298   -1.661788   -0.264761
     42          6           0       -5.069774   -1.940163   -1.043824
     43          1           0       -5.263000   -2.745786   -1.737518
     44          7           0       -3.903579   -1.369224   -0.826017
 ---------------------------------------------------------------------

 SCF Done:  E(RB3LYP) =  -1203.29733956     A.U. after   11 cycles

 The electronic state is 1-A.
 Alpha  occ. eigenvalues --  -88.80790 -14.38737 -14.37074 -14.36554 -14.30958
 Alpha  occ. eigenvalues --  -10.29699 -10.23677 -10.23034 -10.21839 -10.21175
 Alpha  occ. eigenvalues --  -10.20937 -10.19829 -10.19406 -10.18706 -10.18369
 Alpha  occ. eigenvalues --  -10.18053 -10.18009 -10.17765 -10.17717 -10.17670
 Alpha  occ. eigenvalues --   -7.87021  -5.83615  -5.82908  -5.82660  -1.00910
 Alpha  occ. eigenvalues --   -0.98980  -0.92403  -0.86857  -0.82824  -0.80921
 Alpha  occ. eigenvalues --   -0.76782  -0.75527  -0.74107  -0.73213  -0.71111
 Alpha  occ. eigenvalues --   -0.66837  -0.63610  -0.61884  -0.61168  -0.60834
 Alpha  occ. eigenvalues --   -0.59461  -0.57323  -0.56690  -0.55136  -0.54561
 Alpha  occ. eigenvalues --   -0.52543  -0.49300  -0.46918  -0.46304  -0.45871
 Alpha  occ. eigenvalues --   -0.44642  -0.44010  -0.43732  -0.43368  -0.43315
 Alpha  occ. eigenvalues --   -0.42823  -0.41631  -0.41063  -0.39981  -0.39662
 Alpha  occ. eigenvalues --   -0.39100  -0.37787  -0.36370  -0.36044  -0.35498
 Alpha  occ. eigenvalues --   -0.34686  -0.34393  -0.33587  -0.33002  -0.32524
 Alpha  occ. eigenvalues --   -0.32093  -0.31137  -0.30247  -0.27364  -0.26824
 Alpha  occ. eigenvalues --   -0.23687  -0.22186  -0.20554  -0.19752
 Alpha virt. eigenvalues --    0.01074   0.03304   0.06368   0.06806   0.08736
 Alpha virt. eigenvalues --    0.09287   0.09528   0.10415   0.11295   0.12592
 Alpha virt. eigenvalues --    0.13233   0.13734   0.13999   0.14907   0.15132

 Mulliken charges:
               1
     1  S   -0.418315
     2  C    0.376101
     3  N   -0.602680
     4  C    0.054101
     5  C   -0.253381
     6  C   -0.266946
     7  C   -0.259341
     8  C   -0.264740
     9  C   -0.283020
    10  H    0.129655
    11  H    0.147506
    12  H    0.138741
    13  H    0.138179
    14  H    0.131232
    15  H    0.135315
    16  H    0.136578
    17  H    0.136887
    18  H    0.124679
    19  H    0.149361
    20  H    0.176338
    21  H    0.339124
    22  N   -0.393693
    23  C   -0.184655
    24  C   -0.257936
    25  H    0.161057
    26  H    0.146809
    27  H    0.157892
    28  H    0.166690
    29  C   -0.157411
    30  H    0.193491
    31  H    0.145582
    32  C   -0.263069
    33  H    0.160451
    34  H    0.142684
    35  C   -0.169074
    36  H    0.128737
    37  C    0.237359
    38  C   -0.028385
    39  H    0.164212
    40  N   -0.552872
    41  H    0.370262
    42  C    0.204586
    43  H    0.166575
    44  N   -0.504665
 Sum of Mulliken charges =   0.00000

 Dipole moment (field-independent basis, Debye):
    X=             -6.6857    Y=             -4.8138    Z=              5.6306  Tot=              9.9787
 Quadrupole moment (field-independent basis, Debye-Ang):
   XX=            -76.6980   YY=           -133.6584   ZZ=           -129.9997
   XY=             -2.8637   XZ=              1.9631   YZ=              7.8932

 Normal termination of Gaussian 09 at Sun Jan 24 23:13:52 2021.
