 Gaussian 09, Revision D.01,

 -----------------
 #p b3lyp/6-31G(d)
 -----------------

 ----------------------------------------------
 SET_328_BBB301_conf1.geo_090_285_090.n.pdb.xyz
 ----------------------------------------------
 Symbolic Z-matrix:
 Charge =  0 Multiplicity = 1

 SCF Done:  E(RB3LYP) =  -788.420552097     A.U. after   14 cycles
 Normal termination of Gaussian 09 at Mon Jan 25 16:27:28 2021.
 Gaussian 09:  AM64L-G09RevD.01 24-Apr-2013

 ----------------------------------------------------------------------
 #p b3lyp/6-31G(d) scrf=(iefpcm,read,solvent=n-Octanol) geom=allcheck g
 uess=read
 ----------------------------------------------------------------------

 Structure from the checkpoint file:  "SET_328_BBB301_conf1.geo_090_285_090.n.pdb.xyz.mst.n.o.chk"
 ----------------------------------------------
 SET_328_BBB301_conf1.geo_090_285_090.n.pdb.xyz
 ----------------------------------------------
 Charge =  0 Multiplicity = 1

                         Standard orientation:
 ---------------------------------------------------------------------
 Center     Atomic      Atomic             Coordinates (Angstroms)
 Number     Number       Type             X           Y           Z
 ---------------------------------------------------------------------
      1          6           0        4.606442   -0.694277   -0.128291
      2          1           0        5.597073   -0.578165    0.318166
      3          1           0        4.661677   -0.316352   -1.152543
      4          1           0        4.368694   -1.761486   -0.172185
      5          6           0        3.556858    0.056286    0.704389
      6          6           0        3.554041   -0.497393    2.134380
      7          1           0        3.313941   -1.564332    2.134615
      8          1           0        2.813820    0.018999    2.755074
      9          1           0        4.530840   -0.362215    2.604207
     10          6           0        3.877874    1.561464    0.732380
     11          1           0        3.856329    1.990372   -0.273776
     12          1           0        4.871042    1.745791    1.152584
     13          1           0        3.150258    2.103963    1.344499
     14          7           0        2.206224   -0.212333    0.149081
     15          1           0        1.512531    0.143062    0.806669
     16          6           0        1.899798    0.320101   -1.179428
     17          1           0        2.724903    0.066694   -1.849717
     18          1           0        1.765461    1.409484   -1.210094
     19          6           0        0.630416   -0.393477   -1.687427
     20          8           0        0.809464   -1.788988   -1.519910
     21          1           0        1.358853   -1.839025   -0.706075
     22          1           0        0.542837   -0.207297   -2.764976
     23          6           0       -0.633770    0.118554   -1.004061
     24          6           0       -1.457353   -0.736226   -0.267785
     25          1           0       -1.176894   -1.781456   -0.195769
     26          6           0       -2.622174   -0.289836    0.364016
     27          6           0       -3.508480   -1.236843    1.124504
     28          8           0       -4.543372   -1.707665    0.254587
     29          1           0       -5.157517   -2.222794    0.801048
     30          1           0       -3.939958   -0.717085    1.987834
     31          1           0       -2.906055   -2.077008    1.498560
     32          6           0       -2.974447    1.063153    0.239918
     33          8           0       -4.114970    1.476130    0.868688
     34          1           0       -4.237078    2.428526    0.721974
     35          6           0       -2.165039    1.937121   -0.492246
     36          1           0       -2.440626    2.983982   -0.580124
     37          6           0       -1.008882    1.463202   -1.109112
     38          1           0       -0.394380    2.155879   -1.677878
 ---------------------------------------------------------------------

 SCF Done:  E(RB3LYP) =  -788.447851033     A.U. after   10 cycles

 The electronic state is 1-A.
 Alpha  occ. eigenvalues --  -19.17619 -19.13416 -19.13023 -14.32709 -10.24676
 Alpha  occ. eigenvalues --  -10.23367 -10.22602 -10.22493 -10.20813 -10.19050
 Alpha  occ. eigenvalues --  -10.18799 -10.18609 -10.18356 -10.18278 -10.17357
 Alpha  occ. eigenvalues --  -10.17255 -10.17233  -1.05680  -1.01238  -1.00433
 Alpha  occ. eigenvalues --   -0.91073  -0.85042  -0.79002  -0.76651  -0.74812
 Alpha  occ. eigenvalues --   -0.70406  -0.68759  -0.68640  -0.66751  -0.62925
 Alpha  occ. eigenvalues --   -0.60753  -0.56837  -0.55230  -0.53692  -0.50400
 Alpha  occ. eigenvalues --   -0.50067  -0.48597  -0.47490  -0.47094  -0.46287
 Alpha  occ. eigenvalues --   -0.43895  -0.43444  -0.42783  -0.42692  -0.41536
 Alpha  occ. eigenvalues --   -0.41002  -0.40310  -0.40038  -0.38640  -0.37981
 Alpha  occ. eigenvalues --   -0.37298  -0.36594  -0.36192  -0.35246  -0.34734
 Alpha  occ. eigenvalues --   -0.33765  -0.33266  -0.32671  -0.31900  -0.31172
 Alpha  occ. eigenvalues --   -0.26427  -0.25990  -0.24875  -0.23521  -0.21489
 Alpha virt. eigenvalues --   -0.00711   0.01379   0.07129   0.08104   0.09588
 Alpha virt. eigenvalues --    0.10407   0.11307   0.11903   0.12340   0.13535
 Alpha virt. eigenvalues --    0.13784   0.14230   0.15079   0.15460   0.16214

 Mulliken charges:
               1
     1  C   -0.446577
     2  H    0.147715
     3  H    0.148193
     4  H    0.150515
     5  C    0.214908
     6  C   -0.454161
     7  H    0.152245
     8  H    0.140359
     9  H    0.149776
    10  C   -0.451615
    11  H    0.149518
    12  H    0.147207
    13  H    0.140322
    14  N   -0.599145
    15  H    0.306209
    16  C   -0.157041
    17  H    0.157168
    18  H    0.139212
    19  C    0.071410
    20  O   -0.663668
    21  H    0.404704
    22  H    0.142896
    23  C    0.119936
    24  C   -0.254023
    25  H    0.137294
    26  C    0.121559
    27  C   -0.099780
    28  O   -0.637940
    29  H    0.410323
    30  H    0.137574
    31  H    0.124401
    32  C    0.303334
    33  O   -0.657904
    34  H    0.431996
    35  C   -0.202114
    36  H    0.137733
    37  C   -0.198865
    38  H    0.136324
 Sum of Mulliken charges =   0.00000

 Dipole moment (field-independent basis, Debye):
    X=              1.7468    Y=              3.9183    Z=              2.9076  Tot=              5.1825
 Quadrupole moment (field-independent basis, Debye-Ang):
   XX=            -94.0600   YY=            -94.9779   ZZ=           -102.9479
   XY=             -2.8922   XZ=             -6.5950   YZ=             -8.7212

 Normal termination of Gaussian 09 at Mon Jan 25 16:30:34 2021.
