 Gaussian 09, Revision D.01,

 -----------------
 #p b3lyp/6-31G(d)
 -----------------

 ----------------------------------------------
 SET_328_BBB301_conf1.geo_075_090_045.n.pdb.xyz
 ----------------------------------------------
 Symbolic Z-matrix:
 Charge =  0 Multiplicity = 1

 SCF Done:  E(RB3LYP) =  -788.432844588     A.U. after   14 cycles
 Normal termination of Gaussian 09 at Mon Jan 25 16:27:27 2021.
 Gaussian 09:  AM64L-G09RevD.01 24-Apr-2013

 ----------------------------------------------------------------------
 #p b3lyp/6-31G(d) scrf=(iefpcm,read,solvent=n-Octanol) geom=allcheck g
 uess=read
 ----------------------------------------------------------------------

 Structure from the checkpoint file:  "SET_328_BBB301_conf1.geo_075_090_045.n.pdb.xyz.mst.n.o.chk"
 ----------------------------------------------
 SET_328_BBB301_conf1.geo_075_090_045.n.pdb.xyz
 ----------------------------------------------
 Charge =  0 Multiplicity = 1

                         Standard orientation:
 ---------------------------------------------------------------------
 Center     Atomic      Atomic             Coordinates (Angstroms)
 Number     Number       Type             X           Y           Z
 ---------------------------------------------------------------------
      1          6           0        3.730508    0.798003    1.902016
      2          1           0        3.854308   -0.218763    2.283725
      3          1           0        2.901561    1.267447    2.442556
      4          1           0        4.639305    1.366762    2.127186
      5          6           0        3.460736    0.775754    0.390826
      6          6           0        3.274408    2.212570   -0.128425
      7          1           0        3.063854    2.222601   -1.202386
      8          1           0        4.173832    2.811272    0.039312
      9          1           0        2.441997    2.709037    0.383293
     10          6           0        4.640504    0.105762   -0.325337
     11          1           0        5.564716    0.654803   -0.131193
     12          1           0        4.497174    0.078525   -1.408353
     13          1           0        4.769237   -0.922072    0.024794
     14          7           0        2.243091   -0.049763    0.194855
     15          1           0        1.510266    0.304000    0.809258
     16          6           0        1.703481   -0.154584   -1.160571
     17          1           0        2.530716   -0.375930   -1.838493
     18          1           0        1.207469    0.755849   -1.523195
     19          6           0        0.726678   -1.348473   -1.188166
     20          8           0        1.377648   -2.468453   -0.613575
     21          1           0        1.961507   -2.057140    0.062148
     22          1           0        0.523596   -1.595040   -2.236834
     23          6           0       -0.596349   -1.028690   -0.502619
     24          6           0       -1.478057   -0.095573   -1.059038
     25          1           0       -1.227724    0.391763   -1.998886
     26          6           0       -2.692911    0.222967   -0.455973
     27          6           0       -3.671165    1.158736   -1.121189
     28          8           0       -4.323279    2.042943   -0.187086
     29          1           0       -3.644516    2.628700    0.190440
     30          1           0       -4.494623    0.603076   -1.580192
     31          1           0       -3.174902    1.729644   -1.912255
     32          6           0       -3.030494   -0.391934    0.766330
     33          8           0       -4.196963   -0.099625    1.407300
     34          1           0       -4.537476    0.730321    1.002809
     35          6           0       -2.164843   -1.329861    1.331237
     36          1           0       -2.445252   -1.800366    2.267201
     37          6           0       -0.965244   -1.648559    0.694746
     38          1           0       -0.299443   -2.391755    1.118953
 ---------------------------------------------------------------------

 SCF Done:  E(RB3LYP) =  -788.457446203     A.U. after   10 cycles

 The electronic state is 1-A.
 Alpha  occ. eigenvalues --  -19.17345 -19.15926 -19.13076 -14.32728 -10.24693
 Alpha  occ. eigenvalues --  -10.24388 -10.23389 -10.22531 -10.20850 -10.19245
 Alpha  occ. eigenvalues --  -10.19038 -10.18481 -10.18369 -10.18145 -10.17419
 Alpha  occ. eigenvalues --  -10.17319 -10.17230  -1.05359  -1.02989  -1.01264
 Alpha  occ. eigenvalues --   -0.91128  -0.85133  -0.78994  -0.76796  -0.75201
 Alpha  occ. eigenvalues --   -0.70230  -0.68797  -0.68583  -0.68213  -0.62414
 Alpha  occ. eigenvalues --   -0.60824  -0.57743  -0.55521  -0.54696  -0.50511
 Alpha  occ. eigenvalues --   -0.50058  -0.48250  -0.47996  -0.46750  -0.45467
 Alpha  occ. eigenvalues --   -0.45280  -0.44330  -0.43732  -0.42858  -0.42121
 Alpha  occ. eigenvalues --   -0.41623  -0.40926  -0.39692  -0.38567  -0.37923
 Alpha  occ. eigenvalues --   -0.37892  -0.36769  -0.36447  -0.35198  -0.34781
 Alpha  occ. eigenvalues --   -0.34411  -0.33818  -0.33067  -0.32611  -0.31085
 Alpha  occ. eigenvalues --   -0.29150  -0.26467  -0.24795  -0.23537  -0.21221
 Alpha virt. eigenvalues --   -0.00606   0.01020   0.07036   0.07426   0.10500
 Alpha virt. eigenvalues --    0.11132   0.11793   0.12010   0.13115   0.13333
 Alpha virt. eigenvalues --    0.13543   0.14089   0.15029   0.15451   0.16445

 Mulliken charges:
               1
     1  C   -0.453785
     2  H    0.152723
     3  H    0.140717
     4  H    0.149106
     5  C    0.214824
     6  C   -0.450878
     7  H    0.149101
     8  H    0.147663
     9  H    0.139164
    10  C   -0.446933
    11  H    0.147758
    12  H    0.148301
    13  H    0.150709
    14  N   -0.599522
    15  H    0.306357
    16  C   -0.153646
    17  H    0.157150
    18  H    0.137675
    19  C    0.068390
    20  O   -0.666038
    21  H    0.405447
    22  H    0.140159
    23  C    0.127414
    24  C   -0.261126
    25  H    0.129577
    26  C    0.079946
    27  C   -0.135363
    28  O   -0.637958
    29  H    0.428342
    30  H    0.180338
    31  H    0.163078
    32  C    0.292202
    33  O   -0.686474
    34  H    0.436738
    35  C   -0.175178
    36  H    0.135272
    37  C   -0.198929
    38  H    0.137679
 Sum of Mulliken charges =   0.00000

 Dipole moment (field-independent basis, Debye):
    X=              2.3072    Y=              5.2315    Z=             -1.1428  Tot=              5.8307
 Quadrupole moment (field-independent basis, Debye-Ang):
   XX=           -108.4906   YY=           -106.8015   ZZ=           -100.0764
   XY=             -0.8583   XZ=              7.0525   YZ=             -2.1695

 Normal termination of Gaussian 09 at Mon Jan 25 16:30:23 2021.
