 Gaussian 09, Revision D.01,

 -----------------
 #p b3lyp/6-31G(d)
 -----------------

 ----------------------------------------------
 SET_328_BBB256_conf1.geo_180_075_075.n.pdb.xyz
 ----------------------------------------------
 Symbolic Z-matrix:
 Charge =  0 Multiplicity = 1

 SCF Done:  E(RB3LYP) =  -421.569192278     A.U. after   14 cycles
 Normal termination of Gaussian 09 at Sun Jan 24 23:00:32 2021.
 Gaussian 09:  AM64L-G09RevD.01 24-Apr-2013

 ----------------------------------------------------------------------
 #p b3lyp/6-31G(d) scrf=(iefpcm,read,solvent=n-Octanol) geom=allcheck g
 uess=read
 ----------------------------------------------------------------------

 Structure from the checkpoint file:  "SET_328_BBB256_conf1.geo_180_075_075.n.pdb.xyz.mst.n.o.chk"
 ----------------------------------------------
 SET_328_BBB256_conf1.geo_180_075_075.n.pdb.xyz
 ----------------------------------------------
 Charge =  0 Multiplicity = 1

                         Standard orientation:
 ---------------------------------------------------------------------
 Center     Atomic      Atomic             Coordinates (Angstroms)
 Number     Number       Type             X           Y           Z
 ---------------------------------------------------------------------
      1          6           0        3.430890    0.812985   -0.878403
      2          1           0        3.317986    0.328025   -1.864401
      3          1           0        4.328144    0.397676   -0.408908
      4          1           0        3.601110    1.880232   -1.039877
      5          7           0        2.290804    0.629262    0.011599
      6          1           0        1.483380    1.107645   -0.389587
      7          6           0        1.954634   -0.776869    0.197422
      8          1           0        2.821982   -1.271933    0.650798
      9          1           0        1.749910   -1.300867   -0.752437
     10          6           0        0.744873   -0.952327    1.124558
     11          1           0        0.943919   -0.439995    2.068970
     12          1           0        0.626697   -2.019128    1.334543
     13          6           0       -0.540898   -0.431555    0.526570
     14          7           0       -1.050810   -1.127254   -0.507171
     15          6           0       -2.181367   -0.682123   -1.065150
     16          1           0       -2.566719   -1.270506   -1.894966
     17          6           0       -2.862862    0.457515   -0.640710
     18          1           0       -3.779081    0.764017   -1.133340
     19          6           0       -2.334276    1.177256    0.426352
     20          1           0       -2.828092    2.070997    0.793268
     21          6           0       -1.155789    0.726018    1.017937
     22          1           0       -0.710417    1.254387    1.853488
 ---------------------------------------------------------------------

 SCF Done:  E(RB3LYP) =  -421.579981218     A.U. after   10 cycles

 The electronic state is 1-A.
 Alpha  occ. eigenvalues --  -14.32845 -14.31371 -10.22724 -10.22262 -10.20732
 Alpha  occ. eigenvalues --  -10.20331 -10.19681 -10.19648 -10.19595 -10.18330
 Alpha  occ. eigenvalues --   -0.94147  -0.89720  -0.80197  -0.78670  -0.72907
 Alpha  occ. eigenvalues --   -0.66225  -0.63102  -0.62392  -0.58394  -0.51370
 Alpha  occ. eigenvalues --   -0.49160  -0.47779  -0.46397  -0.44883  -0.43374
 Alpha  occ. eigenvalues --   -0.41648  -0.40895  -0.39529  -0.38231  -0.37308
 Alpha  occ. eigenvalues --   -0.35481  -0.34743  -0.34072  -0.28509  -0.25558
 Alpha  occ. eigenvalues --   -0.25535  -0.21922
 Alpha virt. eigenvalues --   -0.02525  -0.00847   0.09573   0.10171   0.12189
 Alpha virt. eigenvalues --    0.13344   0.14098   0.14530   0.16198   0.17234
 Alpha virt. eigenvalues --    0.17375   0.17691   0.18303   0.19399   0.19847

 Mulliken charges:
               1
     1  C   -0.302486
     2  H    0.124210
     3  H    0.150759
     4  H    0.149743
     5  N   -0.559720
     6  H    0.304705
     7  C   -0.118280
     8  H    0.140277
     9  H    0.127577
    10  C   -0.320514
    11  H    0.148207
    12  H    0.155727
    13  C    0.282377
    14  N   -0.478787
    15  C    0.026995
    16  H    0.145822
    17  C   -0.148296
    18  H    0.150284
    19  C   -0.106640
    20  H    0.157382
    21  C   -0.177779
    22  H    0.148438
 Sum of Mulliken charges =   0.00000

 Dipole moment (field-independent basis, Debye):
    X=             -1.3005    Y=              1.5750    Z=             -0.1390  Tot=              2.0472
 Quadrupole moment (field-independent basis, Debye-Ang):
   XX=            -54.8029   YY=            -60.5244   ZZ=            -58.9043
   XY=             -4.6686   XZ=             -0.0895   YZ=             -1.1414

 Normal termination of Gaussian 09 at Sun Jan 24 23:01:25 2021.
