 Gaussian 09, Revision D.01,

 -----------------
 #p b3lyp/6-31G(d)
 -----------------

 --------------------------------------------
 SET_328_BBB6_conf1.geo_330_225_075.n.pdb.xyz
 --------------------------------------------
 Symbolic Z-matrix:
 Charge =  0 Multiplicity = 1

 SCF Done:  E(RB3LYP) =  -1096.39897430     A.U. after   15 cycles
 Normal termination of Gaussian 09 at Sun Jan 24 23:21:27 2021.
 Gaussian 09:  AM64L-G09RevD.01 24-Apr-2013

 ----------------------------------------------------------------------
 #p b3lyp/6-31G(d) scrf=(iefpcm,read,solvent=n-Octanol) geom=allcheck g
 uess=read
 ----------------------------------------------------------------------

 Structure from the checkpoint file:  "SET_328_BBB6_conf1.geo_330_225_075.n.pdb.xyz.mst.n.o.chk"
 --------------------------------------------
 SET_328_BBB6_conf1.geo_330_225_075.n.pdb.xyz
 --------------------------------------------
 Charge =  0 Multiplicity = 1

                         Standard orientation:
 ---------------------------------------------------------------------
 Center     Atomic      Atomic             Coordinates (Angstroms)
 Number     Number       Type             X           Y           Z
 ---------------------------------------------------------------------
      1          6           0       -0.962674   -0.196260    2.447921
      2          1           0       -1.531099   -1.041744    2.839611
      3          1           0       -1.293804    0.707991    2.966877
      4          1           0        0.098018   -0.348962    2.664917
      5          6           0       -1.241307   -0.062747    0.936361
      6          7           0       -2.667247    0.138092    0.711525
      7          6           0       -3.247722   -0.473222   -0.507252
      8          6           0       -2.474415   -0.121383   -1.794895
      9          1           0       -1.439019   -0.474453   -1.738606
     10          1           0       -2.456147    0.961640   -1.957239
     11          1           0       -2.934649   -0.590947   -2.670274
     12          6           0       -3.287966   -1.996684   -0.318922
     13          1           0       -2.283031   -2.420527   -0.225359
     14          1           0       -3.768850   -2.479160   -1.175544
     15          1           0       -3.847180   -2.250099    0.585672
     16          6           0       -4.683510    0.059066   -0.604182
     17          1           0       -4.689315    1.145675   -0.746313
     18          1           0       -5.232387   -0.167647    0.311993
     19          1           0       -5.211010   -0.392047   -1.448420
     20          1           0       -2.819947    1.146774    0.679078
     21          1           0       -0.933356   -0.987926    0.444122
     22          6           0       -0.401858    1.104187    0.394770
     23          8           0       -0.918860    2.206158    0.257910
     24          6           0        1.050897    0.912535    0.091730
     25          6           0        1.664336   -0.346672    0.141442
     26          1           0        1.105739   -1.233320    0.407980
     27          6           0        3.018405   -0.455726   -0.163276
     28         17           0        3.782670   -2.039950   -0.100386
     29          6           0        3.778205    0.657516   -0.518011
     30          1           0        4.831124    0.546733   -0.750876
     31          6           0        3.158669    1.908734   -0.567779
     32          1           0        3.740900    2.780280   -0.842524
     33          6           0        1.807486    2.037776   -0.267771
     34          1           0        1.308954    2.998250   -0.303314
 ---------------------------------------------------------------------

 SCF Done:  E(RB3LYP) =  -1096.41399347     A.U. after   10 cycles

 The electronic state is 1-A.
 Alpha  occ. eigenvalues -- -101.55860 -19.15184 -14.30936 -10.28368 -10.26658
 Alpha  occ. eigenvalues --  -10.22305 -10.22132 -10.21932 -10.21902 -10.21832
 Alpha  occ. eigenvalues --  -10.21235 -10.20918 -10.18159 -10.16985 -10.16960
 Alpha  occ. eigenvalues --  -10.16933  -9.47488  -7.23884  -7.22916  -7.22884
 Alpha  occ. eigenvalues --   -1.05125  -0.90752  -0.90325  -0.84963  -0.79892
 Alpha  occ. eigenvalues --   -0.77891  -0.74837  -0.73101  -0.68592  -0.68414
 Alpha  occ. eigenvalues --   -0.66606  -0.63352  -0.60667  -0.55879  -0.54751
 Alpha  occ. eigenvalues --   -0.53206  -0.50043  -0.48410  -0.47124  -0.45733
 Alpha  occ. eigenvalues --   -0.45169  -0.44491  -0.44254  -0.43106  -0.42781
 Alpha  occ. eigenvalues --   -0.41740  -0.40539  -0.39599  -0.38657  -0.38248
 Alpha  occ. eigenvalues --   -0.37872  -0.37348  -0.36763  -0.36354  -0.36166
 Alpha  occ. eigenvalues --   -0.34576  -0.33893  -0.32780  -0.32390  -0.31988
 Alpha  occ. eigenvalues --   -0.27654  -0.26590  -0.25850  -0.21923
 Alpha virt. eigenvalues --   -0.07053  -0.02441   0.01901   0.02642   0.07618
 Alpha virt. eigenvalues --    0.09833   0.11355   0.12101   0.13139   0.14308
 Alpha virt. eigenvalues --    0.14884   0.15538   0.15725   0.16164   0.16405

 Mulliken charges:
               1
     1  C   -0.440097
     2  H    0.166473
     3  H    0.158058
     4  H    0.147173
     5  C   -0.060873
     6  N   -0.569631
     7  C    0.209626
     8  C   -0.454199
     9  H    0.134072
    10  H    0.148997
    11  H    0.144081
    12  C   -0.437850
    13  H    0.140102
    14  H    0.142619
    15  H    0.149566
    16  C   -0.455174
    17  H    0.141472
    18  H    0.151024
    19  H    0.145146
    20  H    0.308165
    21  H    0.144205
    22  C    0.405695
    23  O   -0.496238
    24  C    0.082115
    25  C   -0.177996
    26  H    0.172754
    27  C   -0.078984
    28  Cl  -0.022081
    29  C   -0.121214
    30  H    0.175040
    31  C   -0.136390
    32  H    0.165294
    33  C   -0.149748
    34  H    0.168796
 Sum of Mulliken charges =   0.00000

 Dipole moment (field-independent basis, Debye):
    X=              1.5632    Y=             -0.0912    Z=             -0.7721  Tot=              1.7459
 Quadrupole moment (field-independent basis, Debye-Ang):
   XX=            -99.8074   YY=           -105.1950   ZZ=           -104.3388
   XY=              9.8728   XZ=              0.8375   YZ=             -1.4593

 Normal termination of Gaussian 09 at Sun Jan 24 23:24:13 2021.
