 Gaussian 09, Revision D.01,

 -----------------
 #p b3lyp/6-31G(d)
 -----------------

 ----------------------------------------------
 SET_328_BBB268_conf1.geo_180_270_255.n.pdb.xyz
 ----------------------------------------------
 Symbolic Z-matrix:
 Charge =  0 Multiplicity = 1

 SCF Done:  E(RB3LYP) =  -976.176232410     A.U. after   15 cycles
 Normal termination of Gaussian 09 at Sun Jan 24 23:13:43 2021.
 Gaussian 09:  AM64L-G09RevD.01 24-Apr-2013

 ----------------------------------------------------------------------
 #p b3lyp/6-31G(d) scrf=(iefpcm,read,solvent=n-Octanol) geom=allcheck g
 uess=read
 ----------------------------------------------------------------------

 Structure from the checkpoint file:  "SET_328_BBB268_conf1.geo_180_270_255.n.pdb.xyz.mst.n.o.chk"
 ----------------------------------------------
 SET_328_BBB268_conf1.geo_180_270_255.n.pdb.xyz
 ----------------------------------------------
 Charge =  0 Multiplicity = 1

                         Standard orientation:
 ---------------------------------------------------------------------
 Center     Atomic      Atomic             Coordinates (Angstroms)
 Number     Number       Type             X           Y           Z
 ---------------------------------------------------------------------
      1          6           0        1.540293    4.373143    1.200567
      2          1           0        1.960514    3.755923    1.991428
      3          1           0        0.751318    5.012705    1.612804
      4          1           0        2.319670    5.013565    0.774728
      5          7           0        0.997513    3.491882    0.177184
      6          6           0        0.393366    4.162968   -0.961759
      7          1           0        1.111578    4.864713   -1.400687
      8          1           0       -0.491112    4.733353   -0.651946
      9          1           0        0.095719    3.455136   -1.731610
     10          6           0        1.027901    2.143514    0.381239
     11          8           0        1.527510    1.641560    1.387759
     12          6           0        0.418051    1.256157   -0.720873
     13          1           0        0.944328    1.446876   -1.665165
     14          1           0       -0.616288    1.561371   -0.889074
     15          6           0        0.427997   -0.195583   -0.386444
     16          6           0       -0.595709   -1.100318   -0.107899
     17          6           0       -2.050473   -0.867875   -0.090369
     18          6           0       -2.697372   -0.012570   -0.996844
     19          6           0       -4.075668    0.173628   -0.946693
     20          6           0       -4.864758   -0.491871   -0.000542
     21          6           0       -6.355759   -0.276689    0.062748
     22          1           0       -6.599603    0.723454    0.439888
     23          1           0       -6.829701   -1.004203    0.726214
     24          1           0       -6.818236   -0.367264   -0.926625
     25          6           0       -4.221591   -1.362001    0.886153
     26          6           0       -2.843651   -1.550851    0.844881
     27          1           0       -2.361219   -2.233798    1.536064
     28          1           0       -4.813685   -1.900022    1.620827
     29          1           0       -4.548254    0.836515   -1.666558
     30          1           0       -2.126278    0.484520   -1.772963
     31          7           0       -0.099382   -2.341366    0.201416
     32          6           0        1.222017   -2.231098    0.100557
     33          6           0        2.244632   -3.187170    0.286011
     34          1           0        1.958628   -4.194142    0.563534
     35          6           0        3.554782   -2.822911    0.112219
     36          1           0        4.343809   -3.554079    0.253302
     37          6           0        3.908026   -1.486113   -0.249270
     38          6           0        5.349052   -1.093629   -0.429425
     39          1           0        5.825952   -1.688563   -1.214204
     40          1           0        5.922764   -1.254367    0.490274
     41          1           0        5.440195   -0.040687   -0.703073
     42          6           0        2.911685   -0.565279   -0.422116
     43          1           0        3.102307    0.466849   -0.676587
     44          7           0        1.594810   -0.928095   -0.262241
 ---------------------------------------------------------------------

 SCF Done:  E(RB3LYP) =  -976.198793103     A.U. after   11 cycles

 The electronic state is 1-A.
 Alpha  occ. eigenvalues --  -19.11300 -14.40863 -14.36998 -14.30705 -10.29060
 Alpha  occ. eigenvalues --  -10.24444 -10.23220 -10.22471 -10.21966 -10.21251
 Alpha  occ. eigenvalues --  -10.21184 -10.21161 -10.20519 -10.19879 -10.19760
 Alpha  occ. eigenvalues --  -10.19584 -10.19542 -10.18945 -10.18732 -10.18577
 Alpha  occ. eigenvalues --  -10.18454 -10.18394 -10.18103  -1.03576  -1.02573
 Alpha  occ. eigenvalues --   -0.93662  -0.90381  -0.85502  -0.83889  -0.79562
 Alpha  occ. eigenvalues --   -0.77400  -0.76600  -0.74194  -0.72983  -0.71867
 Alpha  occ. eigenvalues --   -0.70625  -0.68790  -0.67368  -0.62458  -0.61641
 Alpha  occ. eigenvalues --   -0.60581  -0.59274  -0.56435  -0.54914  -0.51795
 Alpha  occ. eigenvalues --   -0.50713  -0.49697  -0.49358  -0.48225  -0.47597
 Alpha  occ. eigenvalues --   -0.46296  -0.46144  -0.46042  -0.44901  -0.44603
 Alpha  occ. eigenvalues --   -0.42666  -0.42134  -0.41917  -0.41716  -0.41441
 Alpha  occ. eigenvalues --   -0.40738  -0.40566  -0.40353  -0.39999  -0.39050
 Alpha  occ. eigenvalues --   -0.38364  -0.38099  -0.37681  -0.36238  -0.35799
 Alpha  occ. eigenvalues --   -0.35683  -0.34212  -0.33565  -0.32588  -0.31213
 Alpha  occ. eigenvalues --   -0.27177  -0.25937  -0.25417  -0.24889  -0.24337
 Alpha  occ. eigenvalues --   -0.21667  -0.20046
 Alpha virt. eigenvalues --   -0.03266  -0.00896  -0.00113   0.01574   0.02419
 Alpha virt. eigenvalues --    0.07426   0.08614   0.10154   0.10284   0.11376
 Alpha virt. eigenvalues --    0.11992   0.12618   0.13217   0.13480   0.13785

 Mulliken charges:
               1
     1  C   -0.325007
     2  H    0.196072
     3  H    0.163491
     4  H    0.162279
     5  N   -0.408062
     6  C   -0.324171
     7  H    0.172592
     8  H    0.171803
     9  H    0.183776
    10  C    0.612708
    11  O   -0.542910
    12  C   -0.510006
    13  H    0.189280
    14  H    0.193208
    15  C    0.343816
    16  C    0.080230
    17  C    0.096230
    18  C   -0.192018
    19  C   -0.195862
    20  C    0.177292
    21  C   -0.533612
    22  H    0.167572
    23  H    0.160651
    24  H    0.163974
    25  C   -0.199214
    26  C   -0.166774
    27  H    0.144720
    28  H    0.131716
    29  H    0.130881
    30  H    0.138063
    31  N   -0.593871
    32  C    0.527509
    33  C   -0.196545
    34  H    0.156244
    35  C   -0.160241
    36  H    0.145993
    37  C    0.107842
    38  C   -0.531833
    39  H    0.169963
    40  H    0.171407
    41  H    0.162987
    42  C    0.030287
    43  H    0.168044
    44  N   -0.540503
 Sum of Mulliken charges =   0.00000

 Dipole moment (field-independent basis, Debye):
    X=              1.6002    Y=              5.6847    Z=             -3.4965  Tot=              6.8631
 Quadrupole moment (field-independent basis, Debye-Ang):
   XX=           -111.7148   YY=           -117.4243   ZZ=           -135.8627
   XY=             -5.7203   XZ=             -4.8576   YZ=             -8.1969

 Normal termination of Gaussian 09 at Sun Jan 24 23:19:24 2021.
