 Gaussian 09, Revision D.01,

 -----------------
 #p b3lyp/6-31G(d)
 -----------------

 ----------------------------------------------
 SET_328_BBB321_conf1.geo_045_330_135.n.pdb.xyz
 ----------------------------------------------
 Symbolic Z-matrix:
 Charge =  0 Multiplicity = 1

 SCF Done:  E(RB3LYP) =  -1212.30033631     A.U. after   15 cycles
 Normal termination of Gaussian 09 at Thu Jan 28 04:43:23 2021.
 Gaussian 09:  AM64L-G09RevD.01 24-Apr-2013

 ----------------------------------------------------------------------
 #p b3lyp/6-31G(d) scrf=(iefpcm,read,solvent=n-Octanol) geom=allcheck g
 uess=read
 ----------------------------------------------------------------------

 Structure from the checkpoint file:  "SET_328_BBB321_conf1.geo_045_330_135.n.pdb.xyz.mst.n.o.chk"
 ----------------------------------------------
 SET_328_BBB321_conf1.geo_045_330_135.n.pdb.xyz
 ----------------------------------------------
 Charge =  0 Multiplicity = 1

                         Standard orientation:
 ---------------------------------------------------------------------
 Center     Atomic      Atomic             Coordinates (Angstroms)
 Number     Number       Type             X           Y           Z
 ---------------------------------------------------------------------
      1          6           0        5.420710    2.784453   -0.013553
      2          1           0        6.077070    2.989499    0.834325
      3          1           0        4.588840    3.491302    0.001703
      4          1           0        6.003088    2.947597   -0.925000
      5          6           0        4.991576    1.329034    0.040886
      6          8           0        5.813842    0.419241    0.104543
      7          7           0        3.634423    1.133539    0.005779
      8          1           0        3.062544    1.965880   -0.044307
      9          6           0        2.915454   -0.079087    0.023234
     10          6           0        3.535537   -1.334750    0.087840
     11          6           0        2.737880   -2.479987    0.096077
     12          6           0        1.351132   -2.398898    0.042139
     13          1           0        0.752551   -3.303337    0.052678
     14          1           0        3.215964   -3.452911    0.147224
     15          1           0        4.612385   -1.389581    0.130042
     16          6           0        1.518832    0.006854   -0.029728
     17          1           0        1.025901    0.972373   -0.078472
     18          6           0        0.723754   -1.143709   -0.023217
     19          6           0       -0.744589   -1.015763   -0.086458
     20          7           0       -1.306608    0.245409   -0.103292
     21          6           0       -1.629530   -2.059568   -0.134674
     22          1           0       -1.418663   -3.117846   -0.137239
     23         16           0       -3.257958   -1.475568   -0.208921
     24          6           0       -2.614683    0.221821   -0.152316
     25          7           0       -3.363727    1.344514   -0.251948
     26          6           0       -4.619146    1.450881    0.098137
     27          7           0       -5.235756    2.649992   -0.120534
     28          1           0       -6.245508    2.674047   -0.177226
     29          1           0       -4.754185    3.268198   -0.758898
     30          7           0       -5.394333    0.483677    0.679387
     31          1           0       -6.248232    0.784307    1.136139
     32          1           0       -4.914721   -0.261961    1.169467
 ---------------------------------------------------------------------

 SCF Done:  E(RB3LYP) =  -1212.33487389     A.U. after   11 cycles

 The electronic state is 1-A.
 Alpha  occ. eigenvalues --  -88.90250 -19.11887 -14.37666 -14.36692 -14.36001
 Alpha  occ. eigenvalues --  -14.31732 -14.31618 -10.31510 -10.29679 -10.27659
 Alpha  occ. eigenvalues --  -10.23515 -10.22097 -10.20705 -10.20081 -10.19132
 Alpha  occ. eigenvalues --  -10.18937 -10.18662 -10.18553 -10.18158  -7.96432
 Alpha  occ. eigenvalues --   -5.92816  -5.92482  -5.92123  -1.03795  -1.00357
 Alpha  occ. eigenvalues --   -0.95673  -0.94150  -0.89114  -0.88225  -0.84888
 Alpha  occ. eigenvalues --   -0.78811  -0.77293  -0.75777  -0.72444  -0.70734
 Alpha  occ. eigenvalues --   -0.64699  -0.63463  -0.61140  -0.59805  -0.58441
 Alpha  occ. eigenvalues --   -0.55569  -0.54592  -0.52782  -0.51623  -0.49267
 Alpha  occ. eigenvalues --   -0.48591  -0.48297  -0.47496  -0.45271  -0.44456
 Alpha  occ. eigenvalues --   -0.43697  -0.43362  -0.42726  -0.41638  -0.40623
 Alpha  occ. eigenvalues --   -0.40452  -0.40174  -0.39235  -0.37367  -0.35736
 Alpha  occ. eigenvalues --   -0.35316  -0.34482  -0.31501  -0.29817  -0.28552
 Alpha  occ. eigenvalues --   -0.28125  -0.27574  -0.26016  -0.25410  -0.24123
 Alpha  occ. eigenvalues --   -0.22292  -0.19581
 Alpha virt. eigenvalues --   -0.03413  -0.01121  -0.00807   0.02065   0.03786
 Alpha virt. eigenvalues --    0.06487   0.07369   0.07964   0.09469   0.10280
 Alpha virt. eigenvalues --    0.12129   0.12721   0.12882   0.13200   0.13853

 Mulliken charges:
               1
     1  C   -0.544013
     2  H    0.190187
     3  H    0.164546
     4  H    0.191501
     5  C    0.601050
     6  O   -0.527509
     7  N   -0.710803
     8  H    0.357654
     9  C    0.360068
    10  C   -0.174413
    11  C   -0.160594
    12  C   -0.192933
    13  H    0.132615
    14  H    0.140104
    15  H    0.174781
    16  C   -0.271656
    17  H    0.155670
    18  C    0.105024
    19  C    0.277029
    20  N   -0.507116
    21  C   -0.416457
    22  H    0.184765
    23  S    0.162415
    24  C    0.245746
    25  N   -0.536877
    26  C    0.648692
    27  N   -0.754927
    28  H    0.366114
    29  H    0.367806
    30  N   -0.764382
    31  H    0.371134
    32  H    0.364778
 Sum of Mulliken charges =   0.00000

 Dipole moment (field-independent basis, Debye):
    X=             -9.8079    Y=              3.9240    Z=              1.0954  Tot=             10.6204
 Quadrupole moment (field-independent basis, Debye-Ang):
   XX=            -81.1728   YY=            -94.7310   ZZ=           -117.4017
   XY=             -3.7946   XZ=             -8.1267   YZ=             -3.4497

 Normal termination of Gaussian 09 at Thu Jan 28 04:46:28 2021.
