 Gaussian 09, Revision D.01,

 -----------------
 #p b3lyp/6-31G(d)
 -----------------

 ----------------------------------------------
 SET_328_BBB321_conf1.geo_195_210_120.n.pdb.xyz
 ----------------------------------------------
 Symbolic Z-matrix:
 Charge =  0 Multiplicity = 1

 SCF Done:  E(RB3LYP) =  -1212.31326275     A.U. after   16 cycles
 Normal termination of Gaussian 09 at Thu Jan 28 04:52:54 2021.
 Gaussian 09:  AM64L-G09RevD.01 24-Apr-2013

 ----------------------------------------------------------------------
 #p b3lyp/6-31G(d) scrf=(iefpcm,read,solvent=n-Octanol) geom=allcheck g
 uess=read
 ----------------------------------------------------------------------

 Structure from the checkpoint file:  "SET_328_BBB321_conf1.geo_195_210_120.n.pdb.xyz.mst.n.o.chk"
 ----------------------------------------------
 SET_328_BBB321_conf1.geo_195_210_120.n.pdb.xyz
 ----------------------------------------------
 Charge =  0 Multiplicity = 1

                         Standard orientation:
 ---------------------------------------------------------------------
 Center     Atomic      Atomic             Coordinates (Angstroms)
 Number     Number       Type             X           Y           Z
 ---------------------------------------------------------------------
      1          6           0        6.406022    1.170101    0.433558
      2          1           0        6.893665    0.978088    1.393476
      3          1           0        5.989800    2.178894    0.448053
      4          1           0        7.173421    1.110446   -0.341933
      5          6           0        5.375450    0.083630    0.182901
      6          8           0        5.705039   -1.087667    0.022437
      7          7           0        4.075922    0.525848    0.165201
      8          1           0        3.939264    1.516420    0.314432
      9          6           0        2.892785   -0.216495   -0.025806
     10          6           0        2.886480   -1.603074   -0.243106
     11          6           0        1.664515   -2.252541   -0.415416
     12          6           0        0.459908   -1.555114   -0.377982
     13          1           0       -0.484504   -2.064525   -0.521731
     14          1           0        1.657652   -3.324431   -0.583485
     15          1           0        3.824513   -2.135426   -0.268505
     16          6           0        1.683160    0.486163    0.014538
     17          1           0        1.697562    1.556196    0.202725
     18          6           0        0.457977   -0.167969   -0.165248
     19          6           0       -0.813360    0.577828   -0.141838
     20          7           0       -2.005977   -0.119775   -0.043669
     21          6           0       -0.942596    1.938363   -0.230365
     22          1           0       -0.163556    2.676012   -0.346963
     23         16           0       -2.615725    2.396779   -0.183217
     24          6           0       -3.055409    0.680071   -0.045440
     25          7           0       -4.374733    0.397119    0.041197
     26          6           0       -4.789525   -0.843268    0.227966
     27          7           0       -6.131759   -1.030666    0.413327
     28          1           0       -6.705903   -0.235559    0.168440
     29          1           0       -6.526554   -1.931641    0.177748
     30          7           0       -4.002912   -1.941230    0.269101
     31          1           0       -2.999549   -1.766877    0.270665
     32          1           0       -4.360755   -2.809962    0.640367
 ---------------------------------------------------------------------

 SCF Done:  E(RB3LYP) =  -1212.34490322     A.U. after   12 cycles

 The electronic state is 1-A.
 Alpha  occ. eigenvalues --  -88.90104 -19.12074 -14.37897 -14.35520 -14.35386
 Alpha  occ. eigenvalues --  -14.32379 -14.31000 -10.30761 -10.29865 -10.27488
 Alpha  occ. eigenvalues --  -10.23848 -10.22331 -10.20699 -10.20352 -10.19355
 Alpha  occ. eigenvalues --  -10.19255 -10.19046 -10.18406 -10.18358  -7.96288
 Alpha  occ. eigenvalues --   -5.92677  -5.92341  -5.91970  -1.03994  -1.00001
 Alpha  occ. eigenvalues --   -0.95539  -0.94397  -0.88398  -0.87760  -0.85018
 Alpha  occ. eigenvalues --   -0.78833  -0.77384  -0.76032  -0.72494  -0.70905
 Alpha  occ. eigenvalues --   -0.64486  -0.62576  -0.62359  -0.59035  -0.58096
 Alpha  occ. eigenvalues --   -0.55863  -0.54380  -0.53653  -0.51357  -0.49643
 Alpha  occ. eigenvalues --   -0.48647  -0.47487  -0.47319  -0.45432  -0.44615
 Alpha  occ. eigenvalues --   -0.43839  -0.43548  -0.42577  -0.40948  -0.40542
 Alpha  occ. eigenvalues --   -0.40325  -0.40213  -0.39224  -0.37351  -0.36270
 Alpha  occ. eigenvalues --   -0.35844  -0.34119  -0.31475  -0.29465  -0.28078
 Alpha  occ. eigenvalues --   -0.27934  -0.27470  -0.27083  -0.25579  -0.24707
 Alpha  occ. eigenvalues --   -0.22233  -0.19438
 Alpha virt. eigenvalues --   -0.03211  -0.01585  -0.00560   0.02654   0.03733
 Alpha virt. eigenvalues --    0.07247   0.07512   0.08112   0.09648   0.10303
 Alpha virt. eigenvalues --    0.11515   0.12714   0.12982   0.13364   0.14092

 Mulliken charges:
               1
     1  C   -0.543906
     2  H    0.192743
     3  H    0.164464
     4  H    0.190510
     5  C    0.601080
     6  O   -0.525391
     7  N   -0.711600
     8  H    0.357255
     9  C    0.350648
    10  C   -0.172788
    11  C   -0.157599
    12  C   -0.181447
    13  H    0.145088
    14  H    0.140613
    15  H    0.176175
    16  C   -0.272292
    17  H    0.139119
    18  C    0.111797
    19  C    0.280466
    20  N   -0.571100
    21  C   -0.424056
    22  H    0.181105
    23  S    0.199910
    24  C    0.301051
    25  N   -0.572915
    26  C    0.653298
    27  N   -0.759956
    28  H    0.364540
    29  H    0.361730
    30  N   -0.775556
    31  H    0.394007
    32  H    0.363005
 Sum of Mulliken charges =   0.00000

 Dipole moment (field-independent basis, Debye):
    X=             -3.9392    Y=             -0.2243    Z=              0.9056  Tot=              4.0482
 Quadrupole moment (field-independent basis, Debye-Ang):
   XX=            -87.4946   YY=           -101.5972   ZZ=           -120.8903
   XY=             44.9919   XZ=              3.1069   YZ=             -0.5591

 Normal termination of Gaussian 09 at Thu Jan 28 04:56:25 2021.
