 Gaussian 09, Revision D.01,

 -----------------
 #p b3lyp/6-31G(d)
 -----------------

 ---------------------------------------------
 SET_328_BBB30_conf1.geo_105_180_195.n.pdb.xyz
 ---------------------------------------------
 Symbolic Z-matrix:
 Charge =  0 Multiplicity = 1

 SCF Done:  E(RB3LYP) =  -444.843238433     A.U. after   14 cycles
 Normal termination of Gaussian 09 at Sun Jan 24 23:12:32 2021.
 Gaussian 09:  AM64L-G09RevD.01 24-Apr-2013

 ----------------------------------------------------------------------
 #p b3lyp/6-31G(d) scrf=(iefpcm,read,solvent=n-Octanol) geom=allcheck g
 uess=read
 ----------------------------------------------------------------------

 Structure from the checkpoint file:  "SET_328_BBB30_conf1.geo_105_180_195.n.pdb.xyz.mst.n.o.chk"
 ---------------------------------------------
 SET_328_BBB30_conf1.geo_105_180_195.n.pdb.xyz
 ---------------------------------------------
 Charge =  0 Multiplicity = 1

                         Standard orientation:
 ---------------------------------------------------------------------
 Center     Atomic      Atomic             Coordinates (Angstroms)
 Number     Number       Type             X           Y           Z
 ---------------------------------------------------------------------
      1          6           0       -4.049486    0.456253    0.355334
      2          1           0       -3.852352    1.382631    0.922075
      3          1           0       -4.226564   -0.341969    1.081657
      4          1           0       -4.970739    0.592946   -0.215337
      5          7           0       -2.970369    0.079690   -0.552751
      6          1           0       -2.939063    0.768698   -1.306347
      7          6           0       -1.651350    0.045441    0.087907
      8          6           0       -1.559043   -1.134082    1.058528
      9          1           0       -2.309337   -1.055922    1.849037
     10          1           0       -0.574757   -1.165443    1.529168
     11          1           0       -1.723126   -2.076030    0.523991
     12          1           0       -1.472167    0.973362    0.663386
     13          6           0       -0.579714   -0.036798   -1.016990
     14          1           0       -0.759209    0.782211   -1.726631
     15          1           0       -0.724143   -0.971407   -1.568522
     16          6           0        0.841461    0.041558   -0.514117
     17          6           0        1.659323   -1.094499   -0.503257
     18          1           0        1.257885   -2.034204   -0.871666
     19          6           0        2.971618   -1.034233   -0.033079
     20          1           0        3.586780   -1.928517   -0.036192
     21          6           0        3.490083    0.172087    0.435162
     22          1           0        4.511971    0.223661    0.800054
     23          6           0        2.688728    1.315549    0.426467
     24          1           0        3.087194    2.260582    0.782678
     25          6           0        1.377545    1.249454   -0.046118
     26          1           0        0.765229    2.147190   -0.057112
 ---------------------------------------------------------------------

 SCF Done:  E(RB3LYP) =  -444.855635465     A.U. after   10 cycles

 The electronic state is 1-A.
 Alpha  occ. eigenvalues --  -14.31248 -10.21004 -10.19590 -10.19390 -10.18849
 Alpha  occ. eigenvalues --  -10.18793 -10.18686 -10.18617 -10.18547 -10.18352
 Alpha  occ. eigenvalues --  -10.16681  -0.89970  -0.85300  -0.78254  -0.74149
 Alpha  occ. eigenvalues --   -0.73404  -0.68427  -0.65400  -0.60366  -0.58591
 Alpha  occ. eigenvalues --   -0.56202  -0.50931  -0.48838  -0.46270  -0.45772
 Alpha  occ. eigenvalues --   -0.44225  -0.43575  -0.41695  -0.40696  -0.39258
 Alpha  occ. eigenvalues --   -0.38733  -0.38038  -0.36342  -0.35326  -0.34466
 Alpha  occ. eigenvalues --   -0.33435  -0.33204  -0.32255  -0.24904  -0.24061
 Alpha  occ. eigenvalues --   -0.21996
 Alpha virt. eigenvalues --   -0.00143   0.00159   0.08674   0.09733   0.11958
 Alpha virt. eigenvalues --    0.12136   0.13687   0.14818   0.15400   0.16268
 Alpha virt. eigenvalues --    0.16755   0.17178   0.17539   0.18047   0.19175

 Mulliken charges:
               1
     1  C   -0.309722
     2  H    0.123212
     3  H    0.155297
     4  H    0.149899
     5  N   -0.562548
     6  H    0.305651
     7  C    0.066390
     8  C   -0.449799
     9  H    0.146988
    10  H    0.151709
    11  H    0.144504
    12  H    0.106933
    13  C   -0.367771
    14  H    0.143308
    15  H    0.149743
    16  C    0.170877
    17  C   -0.192726
    18  H    0.133017
    19  C   -0.138116
    20  H    0.137655
    21  C   -0.142367
    22  H    0.136904
    23  C   -0.140229
    24  H    0.137602
    25  C   -0.188776
    26  H    0.132363
 Sum of Mulliken charges =   0.00000

 Dipole moment (field-independent basis, Debye):
    X=             -0.0503    Y=              1.1454    Z=              0.1226  Tot=              1.1531
 Quadrupole moment (field-independent basis, Debye-Ang):
   XX=            -64.3830   YY=            -63.9549   ZZ=            -69.0245
   XY=             -4.3062   XZ=              1.2557   YZ=             -0.3751

 Normal termination of Gaussian 09 at Sun Jan 24 23:13:35 2021.
