 Gaussian 09, Revision D.01,

 -----------------
 #p b3lyp/6-31G(d)
 -----------------

 ----------------------------------------------
 SET_328_BBB292_conf1.geo_075_060_105.n.pdb.xyz
 ----------------------------------------------
 Symbolic Z-matrix:
 Charge =  0 Multiplicity = 1

 SCF Done:  E(RB3LYP) =  -705.217506457     A.U. after   15 cycles
 Normal termination of Gaussian 09 at Mon Jan 25 16:24:39 2021.
 Gaussian 09:  AM64L-G09RevD.01 24-Apr-2013

 ----------------------------------------------------------------------
 #p b3lyp/6-31G(d) scrf=(iefpcm,read,solvent=n-Octanol) geom=allcheck g
 uess=read
 ----------------------------------------------------------------------

 Structure from the checkpoint file:  "SET_328_BBB292_conf1.geo_075_060_105.n.pdb.xyz.mst.n.o.chk"
 ----------------------------------------------
 SET_328_BBB292_conf1.geo_075_060_105.n.pdb.xyz
 ----------------------------------------------
 Charge =  0 Multiplicity = 1

                         Standard orientation:
 ---------------------------------------------------------------------
 Center     Atomic      Atomic             Coordinates (Angstroms)
 Number     Number       Type             X           Y           Z
 ---------------------------------------------------------------------
      1          7           0        3.580716    1.205189   -0.373297
      2          1           0        4.096509    1.694880    0.355688
      3          1           0        3.485515    1.847529   -1.156100
      4          6           0        2.270870    0.755298    0.118896
      5          6           0        2.466093   -0.624598    0.766485
      6          8           0        3.560895   -1.260808    0.324993
      7          1           0        4.021286   -0.579119   -0.240685
      8          8           0        1.700943   -1.113412    1.568968
      9          1           0        1.839654    1.414650    0.880375
     10          6           0        1.292548    0.654971   -1.076093
     11          1           0        1.718604   -0.040385   -1.805901
     12          1           0        1.280995    1.643415   -1.550221
     13          6           0       -0.115555    0.234660   -0.733659
     14          6           0       -0.989475    1.129040   -0.094065
     15          1           0       -0.655790    2.131042    0.162496
     16          6           0       -2.287580    0.743898    0.214390
     17          8           0       -3.221357    1.536263    0.833148
     18          1           0       -2.844318    2.403327    1.045009
     19          6           0       -2.747396   -0.542859   -0.116509
     20          8           0       -4.026320   -0.906402    0.186692
     21          1           0       -4.443214   -0.145979    0.630243
     22          6           0       -1.889654   -1.428782   -0.756986
     23          1           0       -2.254630   -2.417069   -1.012210
     24          6           0       -0.583458   -1.037922   -1.062642
     25          1           0        0.078743   -1.735975   -1.564941
 ---------------------------------------------------------------------

 SCF Done:  E(RB3LYP) =  -705.249637812     A.U. after   11 cycles

 The electronic state is 1-A.
 Alpha  occ. eigenvalues --  -19.18681 -19.17646 -19.17284 -19.12567 -14.34365
 Alpha  occ. eigenvalues --  -10.30705 -10.24869 -10.24401 -10.23629 -10.20306
 Alpha  occ. eigenvalues --  -10.19439 -10.19056 -10.18503 -10.18386  -1.08866
 Alpha  occ. eigenvalues --   -1.07463  -1.04428  -1.00614  -0.90920  -0.85237
 Alpha  occ. eigenvalues --   -0.78124  -0.74241  -0.71922  -0.65916  -0.63826
 Alpha  occ. eigenvalues --   -0.59212  -0.58297  -0.54872  -0.54199  -0.51922
 Alpha  occ. eigenvalues --   -0.50335  -0.48306  -0.47925  -0.44873  -0.43673
 Alpha  occ. eigenvalues --   -0.43358  -0.42791  -0.42622  -0.40833  -0.40006
 Alpha  occ. eigenvalues --   -0.38874  -0.37532  -0.36524  -0.35673  -0.35276
 Alpha  occ. eigenvalues --   -0.34110  -0.31988  -0.30315  -0.28693  -0.25586
 Alpha  occ. eigenvalues --   -0.23698  -0.20642
 Alpha virt. eigenvalues --    0.00176   0.01206   0.02036   0.06635   0.07437
 Alpha virt. eigenvalues --    0.09653   0.11631   0.12688   0.13191   0.14392
 Alpha virt. eigenvalues --    0.15949   0.17227   0.18073   0.18596   0.19235

 Mulliken charges:
               1
     1  N   -0.791546
     2  H    0.349646
     3  H    0.342983
     4  C   -0.061494
     5  C    0.606087
     6  O   -0.598551
     7  H    0.440985
     8  O   -0.497453
     9  H    0.165886
    10  C   -0.383488
    11  H    0.164251
    12  H    0.164101
    13  C    0.184610
    14  C   -0.256470
    15  H    0.135876
    16  C    0.303566
    17  O   -0.687750
    18  H    0.443686
    19  C    0.315859
    20  O   -0.668467
    21  H    0.439289
    22  C   -0.185206
    23  H    0.140793
    24  C   -0.198615
    25  H    0.131423
 Sum of Mulliken charges =   0.00000

 Dipole moment (field-independent basis, Debye):
    X=              2.0134    Y=              8.1603    Z=             -2.0966  Tot=              8.6626
 Quadrupole moment (field-independent basis, Debye-Ang):
   XX=            -74.0830   YY=            -72.3215   ZZ=            -83.0765
   XY=              7.0822   XZ=             -9.0394   YZ=              7.8442

 Normal termination of Gaussian 09 at Mon Jan 25 16:26:18 2021.
