 Gaussian 09, Revision D.01,

 -----------------
 #p b3lyp/6-31G(d)
 -----------------

 ---------------------------------------------
 SET_328_BBB20_conf1.geo_090_075_180.n.pdb.xyz
 ---------------------------------------------
 Symbolic Z-matrix:
 Charge =  0 Multiplicity = 1

 SCF Done:  E(RB3LYP) =  -769.345459354     A.U. after   15 cycles
 Normal termination of Gaussian 09 at Sun Jan 24 22:37:18 2021.
 Gaussian 09:  AM64L-G09RevD.01 24-Apr-2013

 ----------------------------------------------------------------------
 #p b3lyp/6-31G(d) scrf=(iefpcm,read,solvent=n-Octanol) geom=allcheck g
 uess=read
 ----------------------------------------------------------------------

 Structure from the checkpoint file:  "SET_328_BBB20_conf1.geo_090_075_180.n.pdb.xyz.mst.n.o.chk"
 ---------------------------------------------
 SET_328_BBB20_conf1.geo_090_075_180.n.pdb.xyz
 ---------------------------------------------
 Charge =  0 Multiplicity = 1

                         Standard orientation:
 ---------------------------------------------------------------------
 Center     Atomic      Atomic             Coordinates (Angstroms)
 Number     Number       Type             X           Y           Z
 ---------------------------------------------------------------------
      1          7           0       -3.336708    2.818951    1.482630
      2          1           0       -4.002048    2.079587    1.263293
      3          1           0       -3.649480    3.628093    0.951920
      4          6           0       -2.005377    2.420765    1.013894
      5          1           0       -1.699064    1.538555    1.586032
      6          1           0       -1.303127    3.220046    1.279563
      7          6           0       -1.892009    2.124856   -0.489927
      8          1           0       -2.202665    3.012871   -1.054823
      9          1           0       -2.588162    1.323243   -0.758494
     10          6           0       -0.473944    1.768670   -0.951492
     11          1           0        0.201855    2.575742   -0.657668
     12          1           0       -0.442102    1.723561   -2.050845
     13          7           0        0.047130    0.541329   -0.334776
     14          6           0       -0.751234   -0.634015   -0.485816
     15          6           0       -1.451304   -0.887920   -1.671744
     16          1           0       -1.364596   -0.196425   -2.501415
     17          6           0       -2.249015   -2.024097   -1.792198
     18          1           0       -2.783683   -2.208424   -2.718604
     19          6           0       -2.351511   -2.921426   -0.729997
     20          1           0       -2.970433   -3.807412   -0.817529
     21          6           0       -1.656257   -2.666268    0.452729
     22          1           0       -1.739379   -3.355720    1.289679
     23          6           0       -0.863618   -1.523555    0.595556
     24          6           0       -0.100661   -1.227027    1.856012
     25          1           0       -0.427887   -1.896961    2.658240
     26          1           0       -0.305636   -0.199009    2.177904
     27          6           0        1.408835   -1.404732    1.652267
     28          1           0        1.588184   -2.443549    1.346581
     29          1           0        1.914703   -1.291937    2.617759
     30          6           0        2.097296   -0.480166    0.662401
     31          6           0        3.498083   -0.512609    0.685899
     32          1           0        3.969811   -1.180575    1.400115
     33          6           0        4.290304    0.276160   -0.142031
     34          1           0        5.372570    0.222945   -0.082059
     35          6           0        3.663923    1.133808   -1.043007
     36          1           0        4.247825    1.758198   -1.713079
     37          6           0        2.274321    1.183159   -1.097649
     38          1           0        1.803830    1.832600   -1.824721
     39          6           0        1.463255    0.398164   -0.252701
 ---------------------------------------------------------------------

 SCF Done:  E(RB3LYP) =  -769.366765201     A.U. after   10 cycles

 The electronic state is 1-A.
 Alpha  occ. eigenvalues --  -14.34849 -14.30712 -10.22678 -10.22065 -10.21570
 Alpha  occ. eigenvalues --  -10.20070 -10.19283 -10.19045 -10.18829 -10.18817
 Alpha  occ. eigenvalues --  -10.18709 -10.18683 -10.18565 -10.18508 -10.18464
 Alpha  occ. eigenvalues --  -10.18238 -10.18187 -10.18023 -10.17895  -0.94884
 Alpha  occ. eigenvalues --   -0.87454  -0.85298  -0.84281  -0.79745  -0.76428
 Alpha  occ. eigenvalues --   -0.75341  -0.74955  -0.72170  -0.69740  -0.66041
 Alpha  occ. eigenvalues --   -0.64505  -0.61029  -0.60039  -0.58609  -0.57341
 Alpha  occ. eigenvalues --   -0.56240  -0.51563  -0.50760  -0.49297  -0.47719
 Alpha  occ. eigenvalues --   -0.46858  -0.46809  -0.45375  -0.45153  -0.43626
 Alpha  occ. eigenvalues --   -0.43247  -0.42401  -0.41363  -0.40711  -0.40018
 Alpha  occ. eigenvalues --   -0.38589  -0.38403  -0.38077  -0.37635  -0.36318
 Alpha  occ. eigenvalues --   -0.35652  -0.34564  -0.34306  -0.33883  -0.33437
 Alpha  occ. eigenvalues --   -0.32908  -0.32664  -0.28840  -0.24612  -0.24123
 Alpha  occ. eigenvalues --   -0.23554  -0.23212  -0.19521
 Alpha virt. eigenvalues --   -0.00511   0.00164   0.00538   0.01084   0.08853
 Alpha virt. eigenvalues --    0.09047   0.10260   0.10553   0.11041   0.12013
 Alpha virt. eigenvalues --    0.13141   0.13946   0.14657   0.15320   0.15811

 Mulliken charges:
               1
     1  N   -0.735758
     2  H    0.306249
     3  H    0.305979
     4  C   -0.146869
     5  H    0.159221
     6  H    0.137451
     7  C   -0.285601
     8  H    0.136298
     9  H    0.146507
    10  C   -0.151320
    11  H    0.159049
    12  H    0.142149
    13  N   -0.574663
    14  C    0.210792
    15  C   -0.161208
    16  H    0.140730
    17  C   -0.158095
    18  H    0.137704
    19  C   -0.131887
    20  H    0.135399
    21  C   -0.222549
    22  H    0.133024
    23  C    0.159966
    24  C   -0.357483
    25  H    0.144191
    26  H    0.166392
    27  C   -0.344137
    28  H    0.158082
    29  H    0.154735
    30  C    0.155605
    31  C   -0.210154
    32  H    0.128585
    33  C   -0.137624
    34  H    0.131573
    35  C   -0.158640
    36  H    0.134505
    37  C   -0.186258
    38  H    0.140502
    39  C    0.237557
 Sum of Mulliken charges =   0.00000

 Dipole moment (field-independent basis, Debye):
    X=             -0.8980    Y=             -0.0075    Z=             -1.6743  Tot=              1.8999
 Quadrupole moment (field-independent basis, Debye-Ang):
   XX=           -108.1971   YY=           -107.7903   ZZ=           -113.0867
   XY=              1.6930   XZ=              8.0251   YZ=            -11.4920

 Normal termination of Gaussian 09 at Sun Jan 24 22:41:38 2021.
