 Gaussian 09, Revision D.01,

 -----------------
 #p b3lyp/6-31G(d)
 -----------------

 ----------------------------------------------
 SET_328_BBB292_conf1.geo_255_060_255.n.pdb.xyz
 ----------------------------------------------
 Symbolic Z-matrix:
 Charge =  0 Multiplicity = 1

 SCF Done:  E(RB3LYP) =  -705.210989868     A.U. after   15 cycles
 Normal termination of Gaussian 09 at Mon Jan 25 16:25:41 2021.
 Gaussian 09:  AM64L-G09RevD.01 24-Apr-2013

 ----------------------------------------------------------------------
 #p b3lyp/6-31G(d) scrf=(iefpcm,read,solvent=n-Octanol) geom=allcheck g
 uess=read
 ----------------------------------------------------------------------

 Structure from the checkpoint file:  "SET_328_BBB292_conf1.geo_255_060_255.n.pdb.xyz.mst.n.o.chk"
 ----------------------------------------------
 SET_328_BBB292_conf1.geo_255_060_255.n.pdb.xyz
 ----------------------------------------------
 Charge =  0 Multiplicity = 1

                         Standard orientation:
 ---------------------------------------------------------------------
 Center     Atomic      Atomic             Coordinates (Angstroms)
 Number     Number       Type             X           Y           Z
 ---------------------------------------------------------------------
      1          7           0       -3.559665   -1.292953   -0.153347
      2          1           0       -4.220069   -1.101084    0.596439
      3          1           0       -3.431174   -2.301806   -0.162393
      4          6           0       -2.266560   -0.662578    0.170075
      5          6           0       -2.529570    0.839526    0.219781
      6          8           0       -3.284319    1.151652    1.294303
      7          1           0       -3.470930    2.111275    1.259535
      8          8           0       -2.162522    1.667392   -0.587948
      9          1           0       -1.878613   -0.954703    1.158051
     10          6           0       -1.226923   -1.025281   -0.902107
     11          1           0       -1.490295   -0.495243   -1.820459
     12          1           0       -1.330770   -2.096537   -1.101359
     13          6           0        0.205329   -0.750823   -0.500796
     14          6           0        0.767428    0.530246   -0.614846
     15          1           0        0.156750    1.342703   -0.996073
     16          6           0        2.082879    0.781772   -0.232633
     17          8           0        2.670246    2.012703   -0.329433
     18          1           0        2.022425    2.635796   -0.696169
     19          6           0        2.874842   -0.264223    0.279830
     20          8           0        4.157314    0.042476    0.638773
     21          1           0        4.587467   -0.760909    0.970229
     22          6           0        2.322389   -1.536401    0.390288
     23          1           0        2.932557   -2.347260    0.776331
     24          6           0        1.003086   -1.778137    0.002755
     25          1           0        0.597164   -2.779946    0.089652
 ---------------------------------------------------------------------

 SCF Done:  E(RB3LYP) =  -705.241621141     A.U. after   11 cycles

 The electronic state is 1-A.
 Alpha  occ. eigenvalues --  -19.20038 -19.17372 -19.17271 -19.14697 -14.32084
 Alpha  occ. eigenvalues --  -10.32430 -10.24391 -10.24341 -10.23003 -10.18943
 Alpha  occ. eigenvalues --  -10.18759 -10.18671 -10.18143 -10.18089  -1.10958
 Alpha  occ. eigenvalues --   -1.06349  -1.04307  -1.01986  -0.89510  -0.84773
 Alpha  occ. eigenvalues --   -0.77408  -0.73737  -0.72011  -0.67512  -0.63112
 Alpha  occ. eigenvalues --   -0.59699  -0.57258  -0.54088  -0.53029  -0.51069
 Alpha  occ. eigenvalues --   -0.49470  -0.48573  -0.47739  -0.45765  -0.43593
 Alpha  occ. eigenvalues --   -0.43227  -0.42293  -0.41721  -0.40960  -0.39297
 Alpha  occ. eigenvalues --   -0.38497  -0.38152  -0.35997  -0.35776  -0.34222
 Alpha  occ. eigenvalues --   -0.33856  -0.32350  -0.31491  -0.28501  -0.24570
 Alpha  occ. eigenvalues --   -0.23428  -0.20326
 Alpha virt. eigenvalues --   -0.00112   0.00830   0.01909   0.07770   0.08200
 Alpha virt. eigenvalues --    0.09264   0.09922   0.10631   0.13954   0.14980
 Alpha virt. eigenvalues --    0.15289   0.17469   0.17869   0.18787   0.19909

 Mulliken charges:
               1
     1  N   -0.752034
     2  H    0.324311
     3  H    0.323379
     4  C   -0.034475
     5  C    0.606019
     6  O   -0.578594
     7  H    0.436673
     8  O   -0.482683
     9  H    0.150242
    10  C   -0.349981
    11  H    0.164842
    12  H    0.145595
    13  C    0.145094
    14  C   -0.274793
    15  H    0.156692
    16  C    0.316764
    17  O   -0.658391
    18  H    0.431360
    19  C    0.307668
    20  O   -0.655592
    21  H    0.430512
    22  C   -0.206868
    23  H    0.136635
    24  C   -0.209684
    25  H    0.127309
 Sum of Mulliken charges =   0.00000

 Dipole moment (field-independent basis, Debye):
    X=             -1.8355    Y=             -2.1803    Z=              2.4950  Tot=              3.7878
 Quadrupole moment (field-independent basis, Debye-Ang):
   XX=            -77.1340   YY=            -66.8786   ZZ=            -82.0835
   XY=             -8.6174   XZ=             -5.1178   YZ=             -1.8783

 Normal termination of Gaussian 09 at Mon Jan 25 16:27:18 2021.
