 Gaussian 09, Revision D.01,

 -----------------
 #p b3lyp/6-31G(d)
 -----------------

 ----------------------------------------------
 SET_328_BBB292_conf1.geo_105_165_120.n.pdb.xyz
 ----------------------------------------------
 Symbolic Z-matrix:
 Charge =  0 Multiplicity = 1

 SCF Done:  E(RB3LYP) =  -705.222934435     A.U. after   15 cycles
 Normal termination of Gaussian 09 at Mon Jan 25 16:25:43 2021.
 Gaussian 09:  AM64L-G09RevD.01 24-Apr-2013

 ----------------------------------------------------------------------
 #p b3lyp/6-31G(d) scrf=(iefpcm,read,solvent=n-Octanol) geom=allcheck g
 uess=read
 ----------------------------------------------------------------------

 Structure from the checkpoint file:  "SET_328_BBB292_conf1.geo_105_165_120.n.pdb.xyz.mst.n.o.chk"
 ----------------------------------------------
 SET_328_BBB292_conf1.geo_105_165_120.n.pdb.xyz
 ----------------------------------------------
 Charge =  0 Multiplicity = 1

                         Standard orientation:
 ---------------------------------------------------------------------
 Center     Atomic      Atomic             Coordinates (Angstroms)
 Number     Number       Type             X           Y           Z
 ---------------------------------------------------------------------
      1          7           0        1.890780    0.991542    1.272072
      2          1           0        2.018345    0.767892    2.257798
      3          1           0        0.937993    1.338425    1.171723
      4          6           0        2.116449   -0.194181    0.430585
      5          6           0        3.577616   -0.162710   -0.057340
      6          8           0        4.178782    1.011764    0.157336
      7          1           0        3.477893    1.540530    0.638729
      8          8           0        4.118142   -1.096697   -0.613799
      9          1           0        1.975208   -1.133742    0.973735
     10          6           0        1.190854   -0.197983   -0.810617
     11          1           0        1.509259   -1.031542   -1.443009
     12          1           0        1.368729    0.721729   -1.378984
     13          6           0       -0.279416   -0.308700   -0.472529
     14          6           0       -1.119240    0.808680   -0.603035
     15          1           0       -0.716017    1.746262   -0.975473
     16          6           0       -2.470184    0.723198   -0.279283
     17          8           0       -3.370977    1.751884   -0.377863
     18          1           0       -2.944500    2.547803   -0.736421
     19          6           0       -3.010276   -0.487607    0.185534
     20          8           0       -4.335055   -0.573446    0.500784
     21          1           0       -4.733772    0.298583    0.328638
     22          6           0       -2.182754   -1.599306    0.314871
     23          1           0       -2.613526   -2.528798    0.665822
     24          6           0       -0.829910   -1.509223   -0.012518
     25          1           0       -0.201036   -2.388984    0.087260
 ---------------------------------------------------------------------

 SCF Done:  E(RB3LYP) =  -705.253410150     A.U. after   11 cycles

 The electronic state is 1-A.
 Alpha  occ. eigenvalues --  -19.19071 -19.17827 -19.17697 -19.12798 -14.34511
 Alpha  occ. eigenvalues --  -10.30964 -10.25419 -10.24943 -10.23773 -10.20293
 Alpha  occ. eigenvalues --  -10.20040 -10.19688 -10.19137 -10.18975  -1.09135
 Alpha  occ. eigenvalues --   -1.07784  -1.04807  -1.00853  -0.91010  -0.85692
 Alpha  occ. eigenvalues --   -0.78287  -0.74868  -0.72669  -0.65864  -0.64317
 Alpha  occ. eigenvalues --   -0.59250  -0.58417  -0.55226  -0.54149  -0.52264
 Alpha  occ. eigenvalues --   -0.51615  -0.48606  -0.48157  -0.45420  -0.43827
 Alpha  occ. eigenvalues --   -0.43427  -0.43251  -0.42943  -0.40911  -0.40215
 Alpha  occ. eigenvalues --   -0.38510  -0.38318  -0.36927  -0.36379  -0.35355
 Alpha  occ. eigenvalues --   -0.34503  -0.32417  -0.30580  -0.29297  -0.25621
 Alpha  occ. eigenvalues --   -0.24526  -0.21139
 Alpha virt. eigenvalues --   -0.00209  -0.00043   0.02381   0.06250   0.07674
 Alpha virt. eigenvalues --    0.09642   0.11376   0.12629   0.13246   0.14832
 Alpha virt. eigenvalues --    0.15673   0.16215   0.17285   0.18423   0.19118

 Mulliken charges:
               1
     1  N   -0.798079
     2  H    0.352922
     3  H    0.339633
     4  C   -0.058883
     5  C    0.603763
     6  O   -0.593878
     7  H    0.441375
     8  O   -0.511212
     9  H    0.172666
    10  C   -0.380584
    11  H    0.181241
    12  H    0.161698
    13  C    0.159818
    14  C   -0.275500
    15  H    0.144659
    16  C    0.310335
    17  O   -0.685077
    18  H    0.445697
    19  C    0.315193
    20  O   -0.665971
    21  H    0.440486
    22  C   -0.182518
    23  H    0.145891
    24  C   -0.201728
    25  H    0.138053
 Sum of Mulliken charges =   0.00000

 Dipole moment (field-independent basis, Debye):
    X=             -4.8909    Y=              4.4182    Z=              1.9761  Tot=              6.8809
 Quadrupole moment (field-independent basis, Debye-Ang):
   XX=           -113.8282   YY=            -72.8899   ZZ=            -76.9229
   XY=             -3.7225   XZ=             11.2301   YZ=             -3.5216

 Normal termination of Gaussian 09 at Mon Jan 25 16:27:21 2021.
