 Gaussian 09, Revision D.01,

 -----------------
 #p b3lyp/6-31G(d)
 -----------------

 ---------------------------------------------
 SET_328_BBB29_conf1.geo_285_180_300.n.pdb.xyz
 ---------------------------------------------
 Symbolic Z-matrix:
 Charge =  0 Multiplicity = 1

 SCF Done:  E(RB3LYP) =  -1548.51017206     A.U. after   16 cycles
 Normal termination of Gaussian 09 at Sun Jan 24 23:16:52 2021.
 Gaussian 09:  AM64L-G09RevD.01 24-Apr-2013

 ----------------------------------------------------------------------
 #p b3lyp/6-31G(d) scrf=(iefpcm,read,solvent=n-Octanol) geom=allcheck g
 uess=read
 ----------------------------------------------------------------------

 Structure from the checkpoint file:  "SET_328_BBB29_conf1.geo_285_180_300.n.pdb.xyz.mst.n.o.chk"
 ---------------------------------------------
 SET_328_BBB29_conf1.geo_285_180_300.n.pdb.xyz
 ---------------------------------------------
 Charge =  0 Multiplicity = 1

                         Standard orientation:
 ---------------------------------------------------------------------
 Center     Atomic      Atomic             Coordinates (Angstroms)
 Number     Number       Type             X           Y           Z
 ---------------------------------------------------------------------
      1          7           0       -2.703645    3.093166    0.316994
      2          1           0       -3.193812    2.871305   -0.546958
      3          1           0       -3.319450    3.724624    0.828179
      4          6           0       -1.436028    3.766277   -0.001466
      5          1           0       -1.103976    4.296671    0.897123
      6          1           0       -1.526186    4.519923   -0.797971
      7          6           0       -0.382068    2.727629   -0.396773
      8          1           0        0.489867    3.234175   -0.817390
      9          1           0       -0.781610    2.094053   -1.196739
     10          6           0        0.019808    1.856372    0.808871
     11          1           0       -0.857160    1.720367    1.443532
     12          1           0        0.773699    2.370678    1.410429
     13          7           0        0.547607    0.524173    0.498818
     14          6           0       -0.376588   -0.506269    0.237365
     15          6           0       -1.745354   -0.224523    0.069140
     16          1           0       -2.125980    0.787313    0.153128
     17          6           0       -2.640303   -1.262371   -0.185117
     18         17           0       -4.349687   -0.870181   -0.371842
     19          6           0       -2.235163   -2.584214   -0.310485
     20          1           0       -2.947692   -3.371102   -0.520918
     21          6           0       -0.878797   -2.863536   -0.143424
     22          1           0       -0.527277   -3.886903   -0.217984
     23          6           0        0.034745   -1.854219    0.154871
     24         16           0        1.696772   -2.314336    0.587693
     25          6           0        2.546379   -0.843742    0.054585
     26          6           0        1.905472    0.411254    0.124697
     27          6           0        2.677789    1.546631   -0.171354
     28          1           0        2.224894    2.526323   -0.136057
     29          6           0        4.024812    1.438264   -0.516739
     30          1           0        4.587399    2.341325   -0.727958
     31          6           0        4.634716    0.191456   -0.608059
     32          1           0        5.676890    0.101255   -0.887941
     33          6           0        3.881707   -0.948451   -0.330384
     34          1           0        4.332225   -1.932270   -0.389309
 ---------------------------------------------------------------------

 SCF Done:  E(RB3LYP) =  -1548.53205695     A.U. after   10 cycles

 The electronic state is 1-A.
 Alpha  occ. eigenvalues -- -101.54867 -88.89491 -14.37682 -14.31739 -10.25218
 Alpha  occ. eigenvalues --  -10.24915 -10.24358 -10.22753 -10.22511 -10.22098
 Alpha  occ. eigenvalues --  -10.21154 -10.20451 -10.19847 -10.19767 -10.19679
 Alpha  occ. eigenvalues --  -10.19387 -10.19332 -10.18949 -10.18608  -9.46491
 Alpha  occ. eigenvalues --   -7.95561  -7.22876  -7.21927  -7.21893  -5.92064
 Alpha  occ. eigenvalues --   -5.91705  -5.91058  -0.97370  -0.88909  -0.88388
 Alpha  occ. eigenvalues --   -0.86203  -0.84623  -0.79824  -0.77245  -0.76824
 Alpha  occ. eigenvalues --   -0.74448  -0.73349  -0.69104  -0.67037  -0.63439
 Alpha  occ. eigenvalues --   -0.61121  -0.60631  -0.59376  -0.56300  -0.54355
 Alpha  occ. eigenvalues --   -0.51549  -0.49595  -0.48547  -0.48192  -0.47718
 Alpha  occ. eigenvalues --   -0.46227  -0.45434  -0.44339  -0.44006  -0.43293
 Alpha  occ. eigenvalues --   -0.42646  -0.40617  -0.39980  -0.39924  -0.39003
 Alpha  occ. eigenvalues --   -0.38213  -0.37874  -0.36755  -0.35426  -0.35249
 Alpha  occ. eigenvalues --   -0.34603  -0.34196  -0.32871  -0.31400  -0.31225
 Alpha  occ. eigenvalues --   -0.29503  -0.26215  -0.25335  -0.24343  -0.22809
 Alpha  occ. eigenvalues --   -0.18552
 Alpha virt. eigenvalues --   -0.02431  -0.01405  -0.00742   0.01511   0.02529
 Alpha virt. eigenvalues --    0.03756   0.07294   0.08579   0.10420   0.11928
 Alpha virt. eigenvalues --    0.12405   0.13512   0.14118   0.14350   0.14973

 Mulliken charges:
               1
     1  N   -0.736890
     2  H    0.317722
     3  H    0.323996
     4  C   -0.149664
     5  H    0.148442
     6  H    0.135519
     7  C   -0.273193
     8  H    0.152286
     9  H    0.154005
    10  C   -0.176920
    11  H    0.189161
    12  H    0.165962
    13  N   -0.596997
    14  C    0.317963
    15  C   -0.194412
    16  H    0.216379
    17  C   -0.099042
    18  Cl  -0.044472
    19  C   -0.130872
    20  H    0.158779
    21  C   -0.188282
    22  H    0.159103
    23  C   -0.126599
    24  S    0.152425
    25  C   -0.132293
    26  C    0.325385
    27  C   -0.177401
    28  H    0.145218
    29  C   -0.155582
    30  H    0.144049
    31  C   -0.129747
    32  H    0.142028
    33  C   -0.187057
    34  H    0.151001
 Sum of Mulliken charges =   0.00000

 Dipole moment (field-independent basis, Debye):
    X=              0.3345    Y=              4.5859    Z=             -0.9051  Tot=              4.6864
 Quadrupole moment (field-independent basis, Debye-Ang):
   XX=           -121.8692   YY=           -104.3392   ZZ=           -129.1333
   XY=             -5.0796   XZ=             -1.4275   YZ=              1.4571

 Normal termination of Gaussian 09 at Sun Jan 24 23:20:23 2021.
