 Gaussian 09, Revision D.01,

 -----------------
 #p b3lyp/6-31G(d)
 -----------------

 ----------------------------------------------
 SET_328_BBB256_conf1.geo_075_180_255.n.pdb.xyz
 ----------------------------------------------
 Symbolic Z-matrix:
 Charge =  0 Multiplicity = 1

 SCF Done:  E(RB3LYP) =  -421.566846785     A.U. after   14 cycles
 Normal termination of Gaussian 09 at Sun Jan 24 23:00:11 2021.
 Gaussian 09:  AM64L-G09RevD.01 24-Apr-2013

 ----------------------------------------------------------------------
 #p b3lyp/6-31G(d) scrf=(iefpcm,read,solvent=n-Octanol) geom=allcheck g
 uess=read
 ----------------------------------------------------------------------

 Structure from the checkpoint file:  "SET_328_BBB256_conf1.geo_075_180_255.n.pdb.xyz.mst.n.o.chk"
 ----------------------------------------------
 SET_328_BBB256_conf1.geo_075_180_255.n.pdb.xyz
 ----------------------------------------------
 Charge =  0 Multiplicity = 1

                         Standard orientation:
 ---------------------------------------------------------------------
 Center     Atomic      Atomic             Coordinates (Angstroms)
 Number     Number       Type             X           Y           Z
 ---------------------------------------------------------------------
      1          6           0       -3.820103    0.669283   -0.177107
      2          1           0       -3.402845    1.406511    0.514759
      3          1           0       -4.880897    0.553904    0.062326
      4          1           0       -3.738799    1.087883   -1.196855
      5          7           0       -3.138241   -0.609808   -0.004156
      6          1           0       -3.607666   -1.305502   -0.575971
      7          6           0       -1.729155   -0.566809   -0.393767
      8          1           0       -1.576541   -0.082751   -1.375886
      9          1           0       -1.355446   -1.589941   -0.473847
     10          6           0       -0.876353    0.158796    0.657047
     11          1           0       -1.054380   -0.322670    1.625044
     12          1           0       -1.191389    1.200977    0.748903
     13          6           0        0.594481    0.107495    0.327510
     14          7           0        1.154369   -1.114214    0.267390
     15          6           0        2.455620   -1.194562   -0.033513
     16          1           0        2.874527   -2.197120   -0.069925
     17          6           0        3.264077   -0.087318   -0.287431
     18          1           0        4.313477   -0.217425   -0.524078
     19          6           0        2.683340    1.176704   -0.226354
     20          1           0        3.270766    2.068129   -0.417973
     21          6           0        1.328362    1.274503    0.083373
     22          1           0        0.834674    2.237600    0.142316
 ---------------------------------------------------------------------

 SCF Done:  E(RB3LYP) =  -421.578401527     A.U. after   10 cycles

 The electronic state is 1-A.
 Alpha  occ. eigenvalues --  -14.32713 -14.31279 -10.22631 -10.22154 -10.20619
 Alpha  occ. eigenvalues --  -10.20147 -10.19630 -10.19536 -10.19466 -10.18011
 Alpha  occ. eigenvalues --   -0.94000  -0.89468  -0.80074  -0.78570  -0.72487
 Alpha  occ. eigenvalues --   -0.67061  -0.62916  -0.61661  -0.57804  -0.51655
 Alpha  occ. eigenvalues --   -0.48898  -0.48351  -0.46014  -0.44734  -0.43232
 Alpha  occ. eigenvalues --   -0.41186  -0.40525  -0.39754  -0.38903  -0.36770
 Alpha  occ. eigenvalues --   -0.35718  -0.34569  -0.33318  -0.28378  -0.25401
 Alpha  occ. eigenvalues --   -0.25335  -0.21908
 Alpha virt. eigenvalues --   -0.02345  -0.00683   0.09355   0.09744   0.11698
 Alpha virt. eigenvalues --    0.13776   0.14668   0.14977   0.15922   0.16599
 Alpha virt. eigenvalues --    0.17381   0.17919   0.18283   0.19705   0.21599

 Mulliken charges:
               1
     1  C   -0.311665
     2  H    0.155303
     3  H    0.150477
     4  H    0.122810
     5  N   -0.555951
     6  H    0.314120
     7  C   -0.128895
     8  H    0.111761
     9  H    0.154418
    10  C   -0.318420
    11  H    0.157793
    12  H    0.145659
    13  C    0.299674
    14  N   -0.482788
    15  C    0.027330
    16  H    0.145079
    17  C   -0.149629
    18  H    0.149162
    19  C   -0.107077
    20  H    0.156090
    21  C   -0.180469
    22  H    0.145218
 Sum of Mulliken charges =   0.00000

 Dipole moment (field-independent basis, Debye):
    X=              0.8376    Y=              1.9508    Z=             -1.5309  Tot=              2.6174
 Quadrupole moment (field-independent basis, Debye-Ang):
   XX=            -49.8386   YY=            -57.8117   ZZ=            -62.6525
   XY=              0.9396   XZ=              2.1201   YZ=              2.2464

 Normal termination of Gaussian 09 at Sun Jan 24 23:00:59 2021.
