 Gaussian 09, Revision D.01,

 -----------------
 #p b3lyp/6-31G(d)
 -----------------

 ----------------------------------------------
 SET_328_BBB292_conf1.geo_255_060_105.n.pdb.xyz
 ----------------------------------------------
 Symbolic Z-matrix:
 Charge =  0 Multiplicity = 1

 SCF Done:  E(RB3LYP) =  -705.217753581     A.U. after   15 cycles
 Normal termination of Gaussian 09 at Mon Jan 25 16:25:43 2021.
 Gaussian 09:  AM64L-G09RevD.01 24-Apr-2013

 ----------------------------------------------------------------------
 #p b3lyp/6-31G(d) scrf=(iefpcm,read,solvent=n-Octanol) geom=allcheck g
 uess=read
 ----------------------------------------------------------------------

 Structure from the checkpoint file:  "SET_328_BBB292_conf1.geo_255_060_105.n.pdb.xyz.mst.n.o.chk"
 ----------------------------------------------
 SET_328_BBB292_conf1.geo_255_060_105.n.pdb.xyz
 ----------------------------------------------
 Charge =  0 Multiplicity = 1

                         Standard orientation:
 ---------------------------------------------------------------------
 Center     Atomic      Atomic             Coordinates (Angstroms)
 Number     Number       Type             X           Y           Z
 ---------------------------------------------------------------------
      1          7           0       -3.722780   -0.909865   -0.404576
      2          1           0       -4.365554   -1.220961    0.320020
      3          1           0       -3.699035   -1.637589   -1.115243
      4          6           0       -2.386356   -0.659344    0.153052
      5          6           0       -2.363719    0.777259    0.690230
      6          8           0       -3.277004    1.574452    0.116272
      7          1           0       -3.823220    0.959935   -0.447871
      8          8           0       -1.583388    1.178643    1.526062
      9          1           0       -2.125804   -1.319892    0.985808
     10          6           0       -1.330650   -0.829399   -0.968325
     11          1           0       -1.570579   -0.124223   -1.771066
     12          1           0       -1.472335   -1.836528   -1.378335
     13          6           0        0.106679   -0.657185   -0.539271
     14          6           0        0.802711    0.517017   -0.849150
     15          1           0        0.318953    1.319698   -1.397056
     16          6           0        2.127507    0.686549   -0.462027
     17          8           0        2.786094    1.838266   -0.778179
     18          1           0        3.688523    1.776091   -0.414462
     19          6           0        2.781986   -0.334327    0.248135
     20          8           0        4.087710   -0.067403    0.575349
     21          1           0        4.460430   -0.795365    1.098643
     22          6           0        2.101600   -1.507510    0.555976
     23          1           0        2.611784   -2.299728    1.096587
     24          6           0        0.772217   -1.668300    0.161072
     25          1           0        0.257144   -2.592609    0.400837
 ---------------------------------------------------------------------

 SCF Done:  E(RB3LYP) =  -705.249620025     A.U. after   11 cycles

 The electronic state is 1-A.
 Alpha  occ. eigenvalues --  -19.18557 -19.17758 -19.17269 -19.12589 -14.34245
 Alpha  occ. eigenvalues --  -10.30731 -10.24726 -10.24426 -10.23562 -10.20248
 Alpha  occ. eigenvalues --  -10.19407 -10.19121 -10.18473 -10.18393  -1.08920
 Alpha  occ. eigenvalues --   -1.07250  -1.04361  -1.00625  -0.90832  -0.85204
 Alpha  occ. eigenvalues --   -0.78081  -0.74264  -0.71880  -0.66144  -0.62596
 Alpha  occ. eigenvalues --   -0.60530  -0.58522  -0.54894  -0.53392  -0.51935
 Alpha  occ. eigenvalues --   -0.50050  -0.48316  -0.47342  -0.45115  -0.44601
 Alpha  occ. eigenvalues --   -0.43504  -0.42578  -0.42507  -0.40891  -0.39511
 Alpha  occ. eigenvalues --   -0.38319  -0.37768  -0.36438  -0.35812  -0.35098
 Alpha  occ. eigenvalues --   -0.34143  -0.32001  -0.30380  -0.28562  -0.25580
 Alpha  occ. eigenvalues --   -0.23653  -0.20615
 Alpha virt. eigenvalues --    0.00479   0.01022   0.01840   0.06560   0.07495
 Alpha virt. eigenvalues --    0.09764   0.11697   0.12659   0.12873   0.14813
 Alpha virt. eigenvalues --    0.15779   0.17264   0.17886   0.18715   0.19386

 Mulliken charges:
               1
     1  N   -0.789681
     2  H    0.348639
     3  H    0.342120
     4  C   -0.060759
     5  C    0.606603
     6  O   -0.597207
     7  H    0.439109
     8  O   -0.497767
     9  H    0.165872
    10  C   -0.383025
    11  H    0.164670
    12  H    0.164105
    13  C    0.186065
    14  C   -0.234050
    15  H    0.136309
    16  C    0.320136
    17  O   -0.669479
    18  H    0.438613
    19  C    0.295953
    20  O   -0.685103
    21  H    0.442723
    22  C   -0.199545
    23  H    0.142191
    24  C   -0.206687
    25  H    0.130194
 Sum of Mulliken charges =   0.00000

 Dipole moment (field-independent basis, Debye):
    X=             -0.3321    Y=             -7.1193    Z=             -1.0412  Tot=              7.2027
 Quadrupole moment (field-independent basis, Debye-Ang):
   XX=            -53.0727   YY=            -80.4882   ZZ=            -82.9598
   XY=              8.3266   XZ=             11.4080   YZ=             -5.4239

 Normal termination of Gaussian 09 at Mon Jan 25 16:27:23 2021.
