 Gaussian 09, Revision D.01,

 -----------------
 #p b3lyp/6-31G(d)
 -----------------

 ---------------------------------------------
 SET_328_BBB30_conf1.geo_105_180_285.n.pdb.xyz
 ---------------------------------------------
 Symbolic Z-matrix:
 Charge =  0 Multiplicity = 1

 SCF Done:  E(RB3LYP) =  -444.843461796     A.U. after   14 cycles
 Normal termination of Gaussian 09 at Sun Jan 24 23:14:49 2021.
 Gaussian 09:  AM64L-G09RevD.01 24-Apr-2013

 ----------------------------------------------------------------------
 #p b3lyp/6-31G(d) scrf=(iefpcm,read,solvent=n-Octanol) geom=allcheck g
 uess=read
 ----------------------------------------------------------------------

 Structure from the checkpoint file:  "SET_328_BBB30_conf1.geo_105_180_285.n.pdb.xyz.mst.n.o.chk"
 ---------------------------------------------
 SET_328_BBB30_conf1.geo_105_180_285.n.pdb.xyz
 ---------------------------------------------
 Charge =  0 Multiplicity = 1

                         Standard orientation:
 ---------------------------------------------------------------------
 Center     Atomic      Atomic             Coordinates (Angstroms)
 Number     Number       Type             X           Y           Z
 ---------------------------------------------------------------------
      1          6           0        3.521282   -1.213663   -0.259317
      2          1           0        2.993939   -1.674446   -1.112327
      3          1           0        3.362748   -1.859483    0.610930
      4          1           0        4.591130   -1.217122   -0.488468
      5          7           0        3.105544    0.143469    0.070400
      6          1           0        3.342107    0.770798   -0.697649
      7          6           0        1.684908    0.299069    0.397016
      8          6           0        1.458358    1.693034    0.983233
      9          1           0        1.702652    2.465310    0.243600
     10          1           0        2.099437    1.845992    1.856167
     11          1           0        0.415151    1.833976    1.279923
     12          1           0        1.465244   -0.447182    1.173825
     13          6           0        0.737594    0.018983   -0.802416
     14          1           0        1.056271   -0.916757   -1.276014
     15          1           0        0.879366    0.814704   -1.545736
     16          6           0       -0.724144   -0.082007   -0.436744
     17          6           0       -1.617354    0.958289   -0.720814
     18          1           0       -1.252499    1.844745   -1.230755
     19          6           0       -2.963564    0.869901   -0.364002
     20          1           0       -3.637221    1.688271   -0.598443
     21          6           0       -3.442989   -0.267071    0.285770
     22          1           0       -4.489833   -0.339713    0.562179
     23          6           0       -2.565051   -1.315105    0.573700
     24          1           0       -2.928037   -2.206476    1.073928
     25          6           0       -1.220785   -1.221780    0.213913
     26          1           0       -0.548795   -2.044791    0.434012
 ---------------------------------------------------------------------

 SCF Done:  E(RB3LYP) =  -444.855948703     A.U. after   10 cycles

 The electronic state is 1-A.
 Alpha  occ. eigenvalues --  -14.31261 -10.21087 -10.19758 -10.19343 -10.18785
 Alpha  occ. eigenvalues --  -10.18746 -10.18601 -10.18510 -10.18481 -10.18047
 Alpha  occ. eigenvalues --  -10.16817  -0.89892  -0.85190  -0.77992  -0.74090
 Alpha  occ. eigenvalues --   -0.73687  -0.67764  -0.65424  -0.60398  -0.59189
 Alpha  occ. eigenvalues --   -0.56942  -0.50936  -0.47228  -0.46370  -0.45613
 Alpha  occ. eigenvalues --   -0.44700  -0.42654  -0.42212  -0.41529  -0.39805
 Alpha  occ. eigenvalues --   -0.37976  -0.37537  -0.36432  -0.35212  -0.34184
 Alpha  occ. eigenvalues --   -0.33904  -0.33245  -0.32592  -0.24849  -0.24635
 Alpha  occ. eigenvalues --   -0.21110
 Alpha virt. eigenvalues --   -0.00041   0.00220   0.08919   0.09925   0.10828
 Alpha virt. eigenvalues --    0.12637   0.13428   0.14966   0.15376   0.16035
 Alpha virt. eigenvalues --    0.16780   0.17180   0.17548   0.18431   0.18474

 Mulliken charges:
               1
     1  C   -0.308117
     2  H    0.128584
     3  H    0.150673
     4  H    0.151267
     5  N   -0.550679
     6  H    0.303772
     7  C    0.044351
     8  C   -0.448374
     9  H    0.136411
    10  H    0.149614
    11  H    0.151589
    12  H    0.130433
    13  C   -0.366967
    14  H    0.150659
    15  H    0.136324
    16  C    0.174852
    17  C   -0.193586
    18  H    0.130964
    19  C   -0.138405
    20  H    0.136698
    21  C   -0.143751
    22  H    0.136234
    23  C   -0.139826
    24  H    0.137092
    25  C   -0.191254
    26  H    0.131443
 Sum of Mulliken charges =   0.00000

 Dipole moment (field-independent basis, Debye):
    X=             -0.0179    Y=             -0.1764    Z=             -1.0165  Tot=              1.0319
 Quadrupole moment (field-independent basis, Debye-Ang):
   XX=            -66.1809   YY=            -64.0534   ZZ=            -68.9788
   XY=             -1.5830   XZ=             -5.5712   YZ=             -3.6694

 Normal termination of Gaussian 09 at Sun Jan 24 23:15:56 2021.
