 Gaussian 09, Revision D.01,

 -----------------
 #p b3lyp/6-31G(d)
 -----------------

 ---------------------------------------------
 SET_328_BBB29_conf1.geo_120_180_285.n.pdb.xyz
 ---------------------------------------------
 Symbolic Z-matrix:
 Charge =  0 Multiplicity = 1

 SCF Done:  E(RB3LYP) =  -1548.50853829     A.U. after   16 cycles
 Normal termination of Gaussian 09 at Sun Jan 24 23:16:48 2021.
 Gaussian 09:  AM64L-G09RevD.01 24-Apr-2013

 ----------------------------------------------------------------------
 #p b3lyp/6-31G(d) scrf=(iefpcm,read,solvent=n-Octanol) geom=allcheck g
 uess=read
 ----------------------------------------------------------------------

 Structure from the checkpoint file:  "SET_328_BBB29_conf1.geo_120_180_285.n.pdb.xyz.mst.n.o.chk"
 ---------------------------------------------
 SET_328_BBB29_conf1.geo_120_180_285.n.pdb.xyz
 ---------------------------------------------
 Charge =  0 Multiplicity = 1

                         Standard orientation:
 ---------------------------------------------------------------------
 Center     Atomic      Atomic             Coordinates (Angstroms)
 Number     Number       Type             X           Y           Z
 ---------------------------------------------------------------------
      1          7           0        2.807040    3.819673   -0.327081
      2          1           0        3.426766    4.627427   -0.322472
      3          1           0        2.025148    4.087814   -0.919380
      4          6           0        2.338570    3.556533    1.041752
      5          1           0        1.523406    4.227321    1.356467
      6          1           0        3.171742    3.742055    1.725503
      7          6           0        1.899751    2.098314    1.203672
      8          1           0        1.593807    1.911884    2.238201
      9          1           0        2.756320    1.453041    0.989747
     10          6           0        0.740073    1.749190    0.267586
     11          1           0        0.954626    2.107218   -0.747560
     12          1           0       -0.152652    2.273007    0.611524
     13          7           0        0.428357    0.315551    0.262984
     14          6           0       -0.919364   -0.094146    0.174931
     15          6           0       -1.934168    0.769814   -0.262877
     16          1           0       -1.706149    1.774334   -0.589334
     17          6           0       -3.254257    0.330405   -0.287372
     18         17           0       -4.502370    1.452267   -0.815510
     19          6           0       -3.611308   -0.963998    0.069534
     20          1           0       -4.644366   -1.283842    0.036893
     21          6           0       -2.595670   -1.838697    0.459415
     22          1           0       -2.839263   -2.861217    0.729459
     23          6           0       -1.271793   -1.411976    0.530928
     24         16           0       -0.009186   -2.501271    1.148231
     25          6           0        1.323873   -1.951159    0.100758
     26          6           0        1.423438   -0.581404   -0.202546
     27          6           0        2.514825   -0.147913   -0.968325
     28          1           0        2.620514    0.900600   -1.216674
     29          6           0        3.482739   -1.053597   -1.398717
     30          1           0        4.324287   -0.689412   -1.978676
     31          6           0        3.370565   -2.410867   -1.101747
     32          1           0        4.121177   -3.115924   -1.443437
     33          6           0        2.276486   -2.859796   -0.361036
     34          1           0        2.161572   -3.913309   -0.125332
 ---------------------------------------------------------------------

 SCF Done:  E(RB3LYP) =  -1548.53067563     A.U. after   10 cycles

 The electronic state is 1-A.
 Alpha  occ. eigenvalues -- -101.55263 -88.89519 -14.37369 -14.31297 -10.25683
 Alpha  occ. eigenvalues --  -10.24989 -10.23981 -10.22884 -10.22402 -10.22380
 Alpha  occ. eigenvalues --  -10.20840 -10.20810 -10.20619 -10.20265 -10.19868
 Alpha  occ. eigenvalues --  -10.19369 -10.19245 -10.19086 -10.18112  -9.46896
 Alpha  occ. eigenvalues --   -7.95569  -7.23283  -7.22328  -7.22297  -5.92071
 Alpha  occ. eigenvalues --   -5.91721  -5.91068  -0.97365  -0.89393  -0.88007
 Alpha  occ. eigenvalues --   -0.86122  -0.84890  -0.79971  -0.77564  -0.76568
 Alpha  occ. eigenvalues --   -0.74564  -0.73459  -0.69129  -0.67217  -0.63323
 Alpha  occ. eigenvalues --   -0.61649  -0.60557  -0.58017  -0.56679  -0.54090
 Alpha  occ. eigenvalues --   -0.52184  -0.49050  -0.48902  -0.48341  -0.47991
 Alpha  occ. eigenvalues --   -0.46403  -0.45722  -0.45110  -0.44290  -0.43022
 Alpha  occ. eigenvalues --   -0.42359  -0.41341  -0.39955  -0.39768  -0.39131
 Alpha  occ. eigenvalues --   -0.38566  -0.36818  -0.36217  -0.35712  -0.35405
 Alpha  occ. eigenvalues --   -0.35022  -0.33942  -0.32798  -0.31795  -0.30813
 Alpha  occ. eigenvalues --   -0.29257  -0.26254  -0.25324  -0.23871  -0.23015
 Alpha  occ. eigenvalues --   -0.19419
 Alpha virt. eigenvalues --   -0.02192  -0.01724  -0.00738   0.00483   0.02198
 Alpha virt. eigenvalues --    0.03769   0.07078   0.08350   0.11295   0.11568
 Alpha virt. eigenvalues --    0.12123   0.13493   0.13876   0.14138   0.14282

 Mulliken charges:
               1
     1  N   -0.743234
     2  H    0.319699
     3  H    0.315176
     4  C   -0.155605
     5  H    0.127643
     6  H    0.149651
     7  C   -0.249895
     8  H    0.144179
     9  H    0.158236
    10  C   -0.158821
    11  H    0.158664
    12  H    0.164219
    13  N   -0.578388
    14  C    0.314441
    15  C   -0.174842
    16  H    0.168123
    17  C   -0.088454
    18  Cl  -0.036928
    19  C   -0.128252
    20  H    0.162469
    21  C   -0.183118
    22  H    0.162619
    23  C   -0.121195
    24  S    0.147647
    25  C   -0.130578
    26  C    0.300664
    27  C   -0.177750
    28  H    0.166686
    29  C   -0.159975
    30  H    0.145258
    31  C   -0.128079
    32  H    0.142424
    33  C   -0.184822
    34  H    0.152140
 Sum of Mulliken charges =   0.00000

 Dipole moment (field-independent basis, Debye):
    X=              2.1171    Y=              2.9175    Z=             -0.2364  Tot=              3.6124
 Quadrupole moment (field-independent basis, Debye-Ang):
   XX=           -124.9154   YY=           -105.4325   ZZ=           -128.0814
   XY=              9.4901   XZ=             -3.6500   YZ=              1.3991

 Normal termination of Gaussian 09 at Sun Jan 24 23:20:16 2021.
