 Gaussian 09, Revision D.01,

 -----------------
 #p b3lyp/6-31G(d)
 -----------------

 ---------------------------------------------
 SET_328_BBB29_conf1.geo_105_180_075.n.pdb.xyz
 ---------------------------------------------
 Symbolic Z-matrix:
 Charge =  0 Multiplicity = 1

 SCF Done:  E(RB3LYP) =  -1548.50854096     A.U. after   16 cycles
 Normal termination of Gaussian 09 at Sun Jan 24 23:16:51 2021.
 Gaussian 09:  AM64L-G09RevD.01 24-Apr-2013

 ----------------------------------------------------------------------
 #p b3lyp/6-31G(d) scrf=(iefpcm,read,solvent=n-Octanol) geom=allcheck g
 uess=read
 ----------------------------------------------------------------------

 Structure from the checkpoint file:  "SET_328_BBB29_conf1.geo_105_180_075.n.pdb.xyz.mst.n.o.chk"
 ---------------------------------------------
 SET_328_BBB29_conf1.geo_105_180_075.n.pdb.xyz
 ---------------------------------------------
 Charge =  0 Multiplicity = 1

                         Standard orientation:
 ---------------------------------------------------------------------
 Center     Atomic      Atomic             Coordinates (Angstroms)
 Number     Number       Type             X           Y           Z
 ---------------------------------------------------------------------
      1          7           0       -2.666360    3.884559   -0.009061
      2          1           0       -3.390760    3.170025    0.029256
      3          1           0       -2.208950    3.781884   -0.910415
      4          6           0       -1.710434    3.687088    1.085792
      5          1           0       -2.236041    3.892121    2.025174
      6          1           0       -0.936221    4.457600    0.993522
      7          6           0       -1.048447    2.301176    1.199053
      8          1           0       -1.826445    1.534731    1.255629
      9          1           0       -0.478739    2.244524    2.135747
     10          6           0       -0.096406    1.996665    0.038531
     11          1           0        0.722463    2.715915    0.067104
     12          1           0       -0.599726    2.127687   -0.929114
     13          7           0        0.504593    0.662459    0.139917
     14          6           0       -0.342829   -0.462246    0.093865
     15          6           0       -1.650464   -0.377243   -0.403432
     16          1           0       -2.036369    0.559220   -0.778043
     17          6           0       -2.462160   -1.507405   -0.411171
     18         17           0       -4.103755   -1.354001   -1.019599
     19          6           0       -2.011881   -2.744271    0.033382
     20          1           0       -2.661659   -3.609853    0.015367
     21          6           0       -0.701158   -2.836057    0.501619
     22          1           0       -0.317433   -3.789745    0.846708
     23          6           0        0.120385   -1.711516    0.554319
     24         16           0        1.741452   -1.807167    1.281911
     25          6           0        2.563727   -0.646822    0.211789
     26          6           0        1.862191    0.489683   -0.230949
     27          6           0        2.541807    1.412467   -1.039305
     28          1           0        2.020199    2.274582   -1.432594
     29          6           0        3.888392    1.229731   -1.351754
     30          1           0        4.393071    1.967693   -1.966597
     31          6           0        4.575433    0.104561   -0.900333
     32          1           0        5.619745   -0.042078   -1.148239
     33          6           0        3.898826   -0.843293   -0.133225
     34          1           0        4.407950   -1.735854    0.214020
 ---------------------------------------------------------------------

 SCF Done:  E(RB3LYP) =  -1548.53092230     A.U. after   10 cycles

 The electronic state is 1-A.
 Alpha  occ. eigenvalues -- -101.55389 -88.89690 -14.37652 -14.31547 -10.25817
 Alpha  occ. eigenvalues --  -10.25078 -10.24369 -10.23050 -10.22906 -10.22611
 Alpha  occ. eigenvalues --  -10.21071 -10.20925 -10.20767 -10.20390 -10.20033
 Alpha  occ. eigenvalues --  -10.19733 -10.19633 -10.19263 -10.18649  -9.47023
 Alpha  occ. eigenvalues --   -7.95742  -7.23411  -7.22454  -7.22424  -5.92244
 Alpha  occ. eigenvalues --   -5.91892  -5.91240  -0.97694  -0.89552  -0.88256
 Alpha  occ. eigenvalues --   -0.86441  -0.85036  -0.80208  -0.77525  -0.77207
 Alpha  occ. eigenvalues --   -0.74775  -0.73581  -0.69302  -0.67488  -0.63628
 Alpha  occ. eigenvalues --   -0.61701  -0.61348  -0.58830  -0.56864  -0.54381
 Alpha  occ. eigenvalues --   -0.52290  -0.49682  -0.49062  -0.48745  -0.47630
 Alpha  occ. eigenvalues --   -0.46741  -0.46272  -0.44858  -0.43985  -0.43097
 Alpha  occ. eigenvalues --   -0.42855  -0.41732  -0.40373  -0.39990  -0.39118
 Alpha  occ. eigenvalues --   -0.38541  -0.38190  -0.36877  -0.36022  -0.35591
 Alpha  occ. eigenvalues --   -0.35033  -0.34378  -0.33080  -0.31908  -0.31107
 Alpha  occ. eigenvalues --   -0.29462  -0.26468  -0.25518  -0.23991  -0.23137
 Alpha  occ. eigenvalues --   -0.19548
 Alpha virt. eigenvalues --   -0.02378  -0.01879  -0.01023   0.00296   0.02085
 Alpha virt. eigenvalues --    0.03575   0.06390   0.07897   0.10792   0.11059
 Alpha virt. eigenvalues --    0.11825   0.13050   0.13591   0.13941   0.14506

 Mulliken charges:
               1
     1  N   -0.736922
     2  H    0.307612
     3  H    0.313826
     4  C   -0.150631
     5  H    0.151692
     6  H    0.145989
     7  C   -0.279874
     8  H    0.151428
     9  H    0.151133
    10  C   -0.155962
    11  H    0.171389
    12  H    0.147889
    13  N   -0.579628
    14  C    0.317030
    15  C   -0.166457
    16  H    0.158190
    17  C   -0.090518
    18  Cl  -0.034339
    19  C   -0.126943
    20  H    0.163383
    21  C   -0.183765
    22  H    0.163586
    23  C   -0.122938
    24  S    0.152201
    25  C   -0.128024
    26  C    0.305677
    27  C   -0.176639
    28  H    0.152859
    29  C   -0.154998
    30  H    0.146839
    31  C   -0.127861
    32  H    0.144583
    33  C   -0.183402
    34  H    0.153594
 Sum of Mulliken charges =   0.00000

 Dipole moment (field-independent basis, Debye):
    X=              1.8367    Y=              0.8055    Z=             -0.8378  Tot=              2.1735
 Quadrupole moment (field-independent basis, Debye-Ang):
   XX=           -126.0383   YY=           -125.0558   ZZ=           -126.9034
   XY=              6.6821   XZ=             -5.1379   YZ=             -4.4583

 Normal termination of Gaussian 09 at Sun Jan 24 23:20:14 2021.
