 Gaussian 09, Revision D.01,

 -----------------
 #p b3lyp/6-31G(d)
 -----------------

 ----------------------------------------------
 SET_328_BBB301_conf1.geo_090_105_105.n.pdb.xyz
 ----------------------------------------------
 Symbolic Z-matrix:
 Charge =  0 Multiplicity = 1

 SCF Done:  E(RB3LYP) =  -788.423711314     A.U. after   14 cycles
 Normal termination of Gaussian 09 at Mon Jan 25 16:27:27 2021.
 Gaussian 09:  AM64L-G09RevD.01 24-Apr-2013

 ----------------------------------------------------------------------
 #p b3lyp/6-31G(d) scrf=(iefpcm,read,solvent=n-Octanol) geom=allcheck g
 uess=read
 ----------------------------------------------------------------------

 Structure from the checkpoint file:  "SET_328_BBB301_conf1.geo_090_105_105.n.pdb.xyz.mst.n.o.chk"
 ----------------------------------------------
 SET_328_BBB301_conf1.geo_090_105_105.n.pdb.xyz
 ----------------------------------------------
 Charge =  0 Multiplicity = 1

                         Standard orientation:
 ---------------------------------------------------------------------
 Center     Atomic      Atomic             Coordinates (Angstroms)
 Number     Number       Type             X           Y           Z
 ---------------------------------------------------------------------
      1          6           0        3.692544    0.353291    1.993283
      2          1           0        4.602895    0.875193    2.301599
      3          1           0        3.827166   -0.716771    2.176406
      4          1           0        2.871767    0.708458    2.628228
      5          6           0        3.394845    0.612009    0.513201
      6          6           0        3.195531    2.117055    0.272546
      7          1           0        2.392246    2.508659    0.905411
      8          1           0        2.927380    2.312089   -0.768018
      9          1           0        4.106947    2.678902    0.497795
     10          6           0        4.559756    0.090587   -0.334965
     11          1           0        5.489768    0.589912   -0.047667
     12          1           0        4.403218    0.276561   -1.400461
     13          1           0        4.684856   -0.985429   -0.191990
     14          7           0        2.171623   -0.161060    0.186327
     15          1           0        1.451961    0.073160    0.871067
     16          6           0        1.608708    0.009965   -1.154526
     17          1           0        2.422498   -0.085645   -1.877690
     18          1           0        1.126601    0.982304   -1.318843
     19          6           0        0.613588   -1.146556   -1.392633
     20          8           0        1.256691   -2.356090   -1.023945
     21          1           0        1.859792   -2.059987   -0.306036
     22          1           0        0.401524   -1.201616   -2.468693
     23          6           0       -0.701941   -0.944158   -0.645474
     24          6           0       -1.569200    0.101566   -0.981807
     25          1           0       -1.308174    0.780131   -1.791185
     26          6           0       -2.778162    0.314457   -0.315706
     27          6           0       -3.664320    1.478047   -0.696170
     28          8           0       -3.067547    2.748350   -0.417088
     29          1           0       -2.902640    2.779534    0.537926
     30          1           0       -4.635961    1.381567   -0.200093
     31          1           0       -3.836820    1.480788   -1.775517
     32          6           0       -3.122760   -0.553670    0.734966
     33          8           0       -4.304799   -0.325957    1.385210
     34          1           0       -4.425243   -0.995774    2.079093
     35          6           0       -2.275688   -1.610655    1.077833
     36          1           0       -2.555858   -2.286909    1.882093
     37          6           0       -1.078425   -1.800154    0.391410
     38          1           0       -0.426889   -2.628857    0.637110
 ---------------------------------------------------------------------

 SCF Done:  E(RB3LYP) =  -788.449066125     A.U. after   10 cycles

 The electronic state is 1-A.
 Alpha  occ. eigenvalues --  -19.17815 -19.13882 -19.12964 -14.32835 -10.24894
 Alpha  occ. eigenvalues --  -10.23439 -10.22715 -10.22473 -10.20871 -10.18856
 Alpha  occ. eigenvalues --  -10.18780 -10.18753 -10.18581 -10.18430 -10.17428
 Alpha  occ. eigenvalues --  -10.17242 -10.17231  -1.05832  -1.01234  -1.00884
 Alpha  occ. eigenvalues --   -0.91222  -0.85131  -0.79012  -0.76433  -0.75199
 Alpha  occ. eigenvalues --   -0.70264  -0.68827  -0.68586  -0.67126  -0.63303
 Alpha  occ. eigenvalues --   -0.60860  -0.57082  -0.55496  -0.53943  -0.50412
 Alpha  occ. eigenvalues --   -0.49521  -0.48822  -0.47866  -0.46687  -0.45392
 Alpha  occ. eigenvalues --   -0.44039  -0.43712  -0.42969  -0.42782  -0.42402
 Alpha  occ. eigenvalues --   -0.41718  -0.39872  -0.39722  -0.38931  -0.38220
 Alpha  occ. eigenvalues --   -0.37863  -0.36671  -0.36038  -0.35182  -0.34847
 Alpha  occ. eigenvalues --   -0.33822  -0.33377  -0.32671  -0.32247  -0.31319
 Alpha  occ. eigenvalues --   -0.27126  -0.26249  -0.24444  -0.23684  -0.21647
 Alpha virt. eigenvalues --   -0.00897   0.01231   0.07082   0.07886   0.09895
 Alpha virt. eigenvalues --    0.10815   0.11551   0.11900   0.12106   0.13305
 Alpha virt. eigenvalues --    0.13624   0.14004   0.15165   0.15396   0.15858

 Mulliken charges:
               1
     1  C   -0.453455
     2  H    0.149906
     3  H    0.152190
     4  H    0.140052
     5  C    0.213735
     6  C   -0.451195
     7  H    0.140007
     8  H    0.151295
     9  H    0.147292
    10  C   -0.446433
    11  H    0.147618
    12  H    0.148726
    13  H    0.150820
    14  N   -0.600988
    15  H    0.306737
    16  C   -0.157718
    17  H    0.158155
    18  H    0.143230
    19  C    0.067814
    20  O   -0.667367
    21  H    0.406298
    22  H    0.141584
    23  C    0.123928
    24  C   -0.243413
    25  H    0.133184
    26  C    0.091956
    27  C   -0.111696
    28  O   -0.634086
    29  H    0.404509
    30  H    0.151229
    31  H    0.150683
    32  C    0.290960
    33  O   -0.662832
    34  H    0.433504
    35  C   -0.197340
    36  H    0.136459
    37  C   -0.196990
    38  H    0.141643
 Sum of Mulliken charges =   0.00000

 Dipole moment (field-independent basis, Debye):
    X=              0.8214    Y=              0.6570    Z=              3.4175  Tot=              3.5757
 Quadrupole moment (field-independent basis, Debye-Ang):
   XX=            -95.9920   YY=           -113.3957   ZZ=            -95.4214
   XY=             12.7468   XZ=             -7.6143   YZ=             -4.2426

 Normal termination of Gaussian 09 at Mon Jan 25 16:30:22 2021.
