 Gaussian 09, Revision D.01,

 -----------------
 #p b3lyp/6-31G(d)
 -----------------

 ---------------------------------------------
 SET_328_BBB20_conf1.geo_120_180_300.n.pdb.xyz
 ---------------------------------------------
 Symbolic Z-matrix:
 Charge =  0 Multiplicity = 1

 SCF Done:  E(RB3LYP) =  -769.345361232     A.U. after   15 cycles
 Normal termination of Gaussian 09 at Sun Jan 24 22:53:46 2021.
 Gaussian 09:  AM64L-G09RevD.01 24-Apr-2013

 ----------------------------------------------------------------------
 #p b3lyp/6-31G(d) scrf=(iefpcm,read,solvent=n-Octanol) geom=allcheck g
 uess=read
 ----------------------------------------------------------------------

 Structure from the checkpoint file:  "SET_328_BBB20_conf1.geo_120_180_300.n.pdb.xyz.mst.n.o.chk"
 ---------------------------------------------
 SET_328_BBB20_conf1.geo_120_180_300.n.pdb.xyz
 ---------------------------------------------
 Charge =  0 Multiplicity = 1

                         Standard orientation:
 ---------------------------------------------------------------------
 Center     Atomic      Atomic             Coordinates (Angstroms)
 Number     Number       Type             X           Y           Z
 ---------------------------------------------------------------------
      1          7           0       -3.827561   -2.322820   -0.377920
      2          1           0       -4.385821   -1.478459   -0.503599
      3          1           0       -4.475831   -3.097985   -0.498019
      4          6           0       -3.289102   -2.340902    0.989950
      5          1           0       -2.859730   -3.334174    1.164816
      6          1           0       -4.052958   -2.186917    1.768234
      7          6           0       -2.202366   -1.274526    1.146413
      8          1           0       -1.893248   -1.209353    2.195013
      9          1           0       -2.619610   -0.298830    0.880707
     10          6           0       -0.984248   -1.560800    0.270885
     11          1           0       -1.327590   -1.854313   -0.729805
     12          1           0       -0.443495   -2.414061    0.686281
     13          7           0       -0.045588   -0.432461    0.244667
     14          6           0        1.317638   -0.720211   -0.055725
     15          6           0        1.625012   -1.927825   -0.714587
     16          1           0        0.818371   -2.579090   -1.023967
     17          6           0        2.934856   -2.298230   -1.002546
     18          1           0        3.124809   -3.237805   -1.510783
     19          6           0        3.985847   -1.455134   -0.650721
     20          1           0        5.013269   -1.725634   -0.865531
     21          6           0        3.689402   -0.255549   -0.011986
     22          1           0        4.502379    0.407882    0.275014
     23          6           0        2.383491    0.140747    0.302511
     24          6           0        2.256829    1.475575    1.024404
     25          1           0        2.588597    2.273892    0.347861
     26          1           0        2.970792    1.474520    1.854157
     27          6           0        0.871257    1.851133    1.563121
     28          1           0        0.951926    2.790606    2.117040
     29          1           0        0.535662    1.078316    2.263435
     30          6           0       -0.144294    1.988085    0.466900
     31          6           0       -0.661191    3.221942    0.065462
     32          1           0       -0.317832    4.122191    0.568448
     33          6           0       -1.621226    3.307582   -0.942086
     34          1           0       -2.021029    4.271779   -1.234128
     35          6           0       -2.072186    2.140989   -1.559820
     36          1           0       -2.825155    2.191499   -2.339907
     37          6           0       -1.553655    0.902822   -1.182605
     38          1           0       -1.909570   -0.003443   -1.661092
     39          6           0       -0.579715    0.820359   -0.179804
 ---------------------------------------------------------------------

 SCF Done:  E(RB3LYP) =  -769.365710387     A.U. after   10 cycles

 The electronic state is 1-A.
 Alpha  occ. eigenvalues --  -14.34463 -14.30863 -10.22444 -10.21749 -10.20538
 Alpha  occ. eigenvalues --  -10.20411 -10.19136 -10.18736 -10.18706 -10.18628
 Alpha  occ. eigenvalues --  -10.18499 -10.18380 -10.18356 -10.18318 -10.18246
 Alpha  occ. eigenvalues --  -10.18142 -10.18006 -10.17902 -10.17554  -0.94627
 Alpha  occ. eigenvalues --   -0.87562  -0.85115  -0.84081  -0.79560  -0.76163
 Alpha  occ. eigenvalues --   -0.75160  -0.74749  -0.72036  -0.69805  -0.65901
 Alpha  occ. eigenvalues --   -0.64313  -0.60648  -0.59652  -0.58276  -0.56847
 Alpha  occ. eigenvalues --   -0.56211  -0.51273  -0.50634  -0.48804  -0.47400
 Alpha  occ. eigenvalues --   -0.46888  -0.46779  -0.45168  -0.45077  -0.43567
 Alpha  occ. eigenvalues --   -0.43184  -0.42601  -0.41944  -0.41144  -0.39413
 Alpha  occ. eigenvalues --   -0.38609  -0.38264  -0.37647  -0.36504  -0.35955
 Alpha  occ. eigenvalues --   -0.35162  -0.34575  -0.34072  -0.33617  -0.33137
 Alpha  occ. eigenvalues --   -0.33016  -0.32430  -0.28468  -0.24392  -0.23965
 Alpha  occ. eigenvalues --   -0.23476  -0.23350  -0.19218
 Alpha virt. eigenvalues --   -0.00337   0.00415   0.00729   0.01220   0.08278
 Alpha virt. eigenvalues --    0.10015   0.10689   0.11001   0.11938   0.13012
 Alpha virt. eigenvalues --    0.13721   0.14155   0.14818   0.15083   0.15635

 Mulliken charges:
               1
     1  N   -0.738587
     2  H    0.307929
     3  H    0.314232
     4  C   -0.142917
     5  H    0.139238
     6  H    0.124935
     7  C   -0.271705
     8  H    0.140075
     9  H    0.149094
    10  C   -0.140205
    11  H    0.164453
    12  H    0.151756
    13  N   -0.578725
    14  C    0.233896
    15  C   -0.185913
    16  H    0.141645
    17  C   -0.159154
    18  H    0.133478
    19  C   -0.137427
    20  H    0.130657
    21  C   -0.211179
    22  H    0.127265
    23  C    0.153973
    24  C   -0.341903
    25  H    0.156310
    26  H    0.153830
    27  C   -0.346834
    28  H    0.141035
    29  H    0.158234
    30  C    0.158592
    31  C   -0.223699
    32  H    0.130902
    33  C   -0.133176
    34  H    0.133280
    35  C   -0.158912
    36  H    0.135481
    37  C   -0.167260
    38  H    0.148055
    39  C    0.209252
 Sum of Mulliken charges =   0.00000

 Dipole moment (field-independent basis, Debye):
    X=             -2.4398    Y=             -0.3674    Z=              1.0415  Tot=              2.6781
 Quadrupole moment (field-independent basis, Debye-Ang):
   XX=            -97.1163   YY=           -103.8023   ZZ=           -113.7249
   XY=              6.2346   XZ=              1.5584   YZ=              1.0472

 Normal termination of Gaussian 09 at Sun Jan 24 22:57:45 2021.
