 Gaussian 09, Revision D.01,

 -----------------
 #p b3lyp/6-31G(d)
 -----------------

 ----------------------------------------------
 SET_328_BBB321_conf1.geo_330_345_315.n.pdb.xyz
 ----------------------------------------------
 Symbolic Z-matrix:
 Charge =  0 Multiplicity = 1

 SCF Done:  E(RB3LYP) =  -1212.29715669     A.U. after   16 cycles
 Normal termination of Gaussian 09 at Thu Jan 28 04:53:35 2021.
 Gaussian 09:  AM64L-G09RevD.01 24-Apr-2013

 ----------------------------------------------------------------------
 #p b3lyp/6-31G(d) scrf=(iefpcm,read,solvent=n-Octanol) geom=allcheck g
 uess=read
 ----------------------------------------------------------------------

 Structure from the checkpoint file:  "SET_328_BBB321_conf1.geo_330_345_315.n.pdb.xyz.mst.n.o.chk"
 ----------------------------------------------
 SET_328_BBB321_conf1.geo_330_345_315.n.pdb.xyz
 ----------------------------------------------
 Charge =  0 Multiplicity = 1

                         Standard orientation:
 ---------------------------------------------------------------------
 Center     Atomic      Atomic             Coordinates (Angstroms)
 Number     Number       Type             X           Y           Z
 ---------------------------------------------------------------------
      1          6           0       -5.011403    2.935079    0.115510
      2          1           0       -4.783923    3.888402   -0.360728
      3          1           0       -5.240959    3.128306    1.169952
      4          1           0       -5.898214    2.497027   -0.350472
      5          6           0       -3.787142    2.042138    0.021033
      6          8           0       -2.652292    2.501883   -0.037486
      7          7           0       -4.070391    0.697849    0.037546
      8          1           0       -5.051654    0.449320    0.090300
      9          6           0       -3.180140   -0.396496    0.029314
     10          6           0       -3.741385   -1.681260    0.085884
     11          6           0       -2.915190   -2.800911    0.083170
     12          6           0       -1.531994   -2.661435    0.023039
     13          1           0       -0.899049   -3.541654    0.020221
     14          1           0       -3.357901   -3.789878    0.127315
     15          1           0       -4.819471   -1.799601    0.133126
     16          6           0       -1.788433   -0.249267   -0.034205
     17          1           0       -1.349620    0.733855   -0.080261
     18          6           0       -0.959550   -1.381471   -0.036456
     19          6           0        0.502463   -1.198776   -0.099603
     20          7           0        1.016088    0.082451   -0.176441
     21          6           0        1.428398   -2.207552   -0.088047
     22          1           0        1.259162   -3.271356   -0.030004
     23         16           0        3.036253   -1.566160   -0.178002
     24          6           0        2.322171    0.108142   -0.214834
     25          7           0        3.044883    1.242854   -0.385101
     26          6           0        4.249695    1.432518    0.085768
     27          7           0        4.961878    2.502372   -0.386862
     28          1           0        4.416657    3.152267   -0.937479
     29          1           0        5.634439    2.934223    0.235160
     30          7           0        4.885139    0.682116    1.029719
     31          1           0        4.450658   -0.167735    1.357372
     32          1           0        5.890047    0.732574    1.117954
 ---------------------------------------------------------------------

 SCF Done:  E(RB3LYP) =  -1212.33251075     A.U. after   12 cycles

 The electronic state is 1-A.
 Alpha  occ. eigenvalues --  -88.89998 -19.11858 -14.37509 -14.36421 -14.35596
 Alpha  occ. eigenvalues --  -14.31493 -14.31325 -10.31292 -10.29548 -10.27432
 Alpha  occ. eigenvalues --  -10.23504 -10.21864 -10.20579 -10.19825 -10.19118
 Alpha  occ. eigenvalues --  -10.19056 -10.18999 -10.18481 -10.17700  -7.96185
 Alpha  occ. eigenvalues --   -5.92568  -5.92240  -5.91872  -1.03749  -1.00050
 Alpha  occ. eigenvalues --   -0.95386  -0.94000  -0.88790  -0.87916  -0.84785
 Alpha  occ. eigenvalues --   -0.78577  -0.77280  -0.75618  -0.72225  -0.70671
 Alpha  occ. eigenvalues --   -0.64649  -0.62750  -0.61662  -0.59704  -0.57161
 Alpha  occ. eigenvalues --   -0.56141  -0.54966  -0.52480  -0.51426  -0.49149
 Alpha  occ. eigenvalues --   -0.48549  -0.47829  -0.47448  -0.45234  -0.44615
 Alpha  occ. eigenvalues --   -0.43498  -0.43230  -0.42086  -0.41150  -0.40651
 Alpha  occ. eigenvalues --   -0.40099  -0.39921  -0.39229  -0.37472  -0.35798
 Alpha  occ. eigenvalues --   -0.35312  -0.34336  -0.31890  -0.29970  -0.28145
 Alpha  occ. eigenvalues --   -0.27760  -0.26910  -0.25487  -0.25070  -0.24128
 Alpha  occ. eigenvalues --   -0.22200  -0.19437
 Alpha virt. eigenvalues --   -0.03384  -0.00826  -0.00674   0.02055   0.04029
 Alpha virt. eigenvalues --    0.06543   0.07464   0.07987   0.09409   0.10123
 Alpha virt. eigenvalues --    0.11712   0.12899   0.13266   0.13327   0.14099

 Mulliken charges:
               1
     1  C   -0.546893
     2  H    0.186109
     3  H    0.191993
     4  H    0.169225
     5  C    0.593124
     6  O   -0.515304
     7  N   -0.710691
     8  H    0.355250
     9  C    0.357757
    10  C   -0.204417
    11  C   -0.149789
    12  C   -0.196636
    13  H    0.131901
    14  H    0.140913
    15  H    0.139255
    16  C   -0.243201
    17  H    0.197244
    18  C    0.097941
    19  C    0.277091
    20  N   -0.490005
    21  C   -0.413170
    22  H    0.183119
    23  S    0.144766
    24  C    0.240436
    25  N   -0.531486
    26  C    0.652958
    27  N   -0.757933
    28  H    0.365988
    29  H    0.362118
    30  N   -0.768522
    31  H    0.367180
    32  H    0.373680
 Sum of Mulliken charges =   0.00000

 Dipole moment (field-independent basis, Debye):
    X=              2.3262    Y=             -0.2617    Z=              2.5457  Tot=              3.4583
 Quadrupole moment (field-independent basis, Debye-Ang):
   XX=            -36.9934   YY=           -103.7278   ZZ=           -119.1785
   XY=             13.5798   XZ=              9.1944   YZ=              0.2825

 Normal termination of Gaussian 09 at Thu Jan 28 04:56:38 2021.
