 Gaussian 09, Revision D.01,

 -----------------
 #p b3lyp/6-31G(d)
 -----------------

 ---------------------------------------------
 SET_328_BBB20_conf1.geo_090_285_300.n.pdb.xyz
 ---------------------------------------------
 Symbolic Z-matrix:
 Charge =  0 Multiplicity = 1

 SCF Done:  E(RB3LYP) =  -769.345434237     A.U. after   15 cycles
 Normal termination of Gaussian 09 at Sun Jan 24 22:41:30 2021.
 Gaussian 09:  AM64L-G09RevD.01 24-Apr-2013

 ----------------------------------------------------------------------
 #p b3lyp/6-31G(d) scrf=(iefpcm,read,solvent=n-Octanol) geom=allcheck g
 uess=read
 ----------------------------------------------------------------------

 Structure from the checkpoint file:  "SET_328_BBB20_conf1.geo_090_285_300.n.pdb.xyz.mst.n.o.chk"
 ---------------------------------------------
 SET_328_BBB20_conf1.geo_090_285_300.n.pdb.xyz
 ---------------------------------------------
 Charge =  0 Multiplicity = 1

                         Standard orientation:
 ---------------------------------------------------------------------
 Center     Atomic      Atomic             Coordinates (Angstroms)
 Number     Number       Type             X           Y           Z
 ---------------------------------------------------------------------
      1          7           0        0.153050    3.621401    1.520468
      2          1           0       -0.713419    3.114551    1.344991
      3          1           0        0.080185    4.491012    0.990429
      4          6           0        1.294301    2.840241    1.034937
      5          1           0        1.278820    1.880192    1.558914
      6          1           0        2.209911    3.355713    1.348286
      7          6           0        1.370230    2.581691   -0.479096
      8          1           0        2.303465    2.052441   -0.704789
      9          1           0        1.417886    3.539844   -1.014785
     10          6           0        0.173151    1.805133   -1.037405
     11          1           0        0.264625    1.713865   -2.131289
     12          1           0       -0.733789    2.385273   -0.855643
     13          7           0       -0.017164    0.508382   -0.381142
     14          6           0       -1.336182   -0.032906   -0.356434
     15          6           0       -2.274856    0.423898   -1.304190
     16          1           0       -1.955569    1.133377   -2.056119
     17          6           0       -3.590514   -0.027081   -1.315789
     18          1           0       -4.280242    0.353170   -2.062980
     19          6           0       -4.004343   -0.972100   -0.379533
     20          1           0       -5.025362   -1.338798   -0.370117
     21          6           0       -3.080654   -1.439745    0.549814
     22          1           0       -3.393228   -2.170934    1.291083
     23          6           0       -1.751815   -0.995055    0.596594
     24          6           0       -0.895075   -1.601016    1.698778
     25          1           0       -0.776327   -2.674533    1.500261
     26          1           0       -1.459201   -1.536622    2.637386
     27          6           0        0.499183   -1.002361    1.919631
     28          1           0        0.958060   -1.492261    2.784168
     29          1           0        0.401913    0.064709    2.151557
     30          6           0        1.376757   -1.165736    0.710272
     31          6           0        2.452778   -2.055938    0.673850
     32          1           0        2.676853   -2.646786    1.558601
     33          6           0        3.248897   -2.177256   -0.466914
     34          1           0        4.087699   -2.865363   -0.473947
     35          6           0        2.964696   -1.402079   -1.591941
     36          1           0        3.576531   -1.486595   -2.484855
     37          6           0        1.882678   -0.520553   -1.576056
     38          1           0        1.653711    0.077633   -2.450500
     39          6           0        1.083481   -0.402198   -0.432509
 ---------------------------------------------------------------------

 SCF Done:  E(RB3LYP) =  -769.366400275     A.U. after   10 cycles

 The electronic state is 1-A.
 Alpha  occ. eigenvalues --  -14.34817 -14.30853 -10.22696 -10.22073 -10.21497
 Alpha  occ. eigenvalues --  -10.20044 -10.19366 -10.19065 -10.18903 -10.18903
 Alpha  occ. eigenvalues --  -10.18762 -10.18751 -10.18631 -10.18531 -10.18521
 Alpha  occ. eigenvalues --  -10.18327 -10.18264 -10.18110 -10.17897  -0.94976
 Alpha  occ. eigenvalues --   -0.87445  -0.85316  -0.84286  -0.79760  -0.76239
 Alpha  occ. eigenvalues --   -0.75369  -0.74957  -0.72219  -0.69905  -0.66547
 Alpha  occ. eigenvalues --   -0.64518  -0.61038  -0.60071  -0.58346  -0.57365
 Alpha  occ. eigenvalues --   -0.56084  -0.51580  -0.50728  -0.49364  -0.47507
 Alpha  occ. eigenvalues --   -0.47082  -0.46770  -0.45433  -0.45224  -0.43686
 Alpha  occ. eigenvalues --   -0.43293  -0.42737  -0.41613  -0.40911  -0.39975
 Alpha  occ. eigenvalues --   -0.39465  -0.38538  -0.37798  -0.37294  -0.35967
 Alpha  occ. eigenvalues --   -0.35525  -0.34946  -0.33982  -0.33801  -0.33590
 Alpha  occ. eigenvalues --   -0.32936  -0.32666  -0.28748  -0.24677  -0.24163
 Alpha  occ. eigenvalues --   -0.23590  -0.23172  -0.19717
 Alpha virt. eigenvalues --   -0.00587   0.00119   0.00474   0.00962   0.07609
 Alpha virt. eigenvalues --    0.09321   0.10279   0.10700   0.12007   0.12519
 Alpha virt. eigenvalues --    0.13235   0.13888   0.14462   0.15050   0.15926

 Mulliken charges:
               1
     1  N   -0.737927
     2  H    0.308842
     3  H    0.307045
     4  C   -0.148761
     5  H    0.159663
     6  H    0.139546
     7  C   -0.284721
     8  H    0.146133
     9  H    0.136629
    10  C   -0.149380
    11  H    0.142853
    12  H    0.149354
    13  N   -0.575561
    14  C    0.232202
    15  C   -0.183930
    16  H    0.140875
    17  C   -0.158469
    18  H    0.135141
    19  C   -0.137233
    20  H    0.132245
    21  C   -0.209679
    22  H    0.129227
    23  C    0.155413
    24  C   -0.343157
    25  H    0.158037
    26  H    0.155526
    27  C   -0.358129
    28  H    0.144339
    29  H    0.166739
    30  C    0.160549
    31  C   -0.222818
    32  H    0.133785
    33  C   -0.131998
    34  H    0.135759
    35  C   -0.158220
    36  H    0.138559
    37  C   -0.160052
    38  H    0.140022
    39  C    0.211550
 Sum of Mulliken charges =   0.00000

 Dipole moment (field-independent basis, Debye):
    X=              0.2445    Y=              0.1772    Z=             -1.5875  Tot=              1.6160
 Quadrupole moment (field-independent basis, Debye-Ang):
   XX=           -108.1654   YY=           -109.3328   ZZ=           -112.2918
   XY=             -2.4088   XZ=             -1.6662   YZ=            -12.8928

 Normal termination of Gaussian 09 at Sun Jan 24 22:46:16 2021.
