 Gaussian 09, Revision D.01,

 -----------------
 #p b3lyp/6-31G(d)
 -----------------

 ----------------------------------------------
 SET_328_BBB321_conf1.geo_195_330_315.n.pdb.xyz
 ----------------------------------------------
 Symbolic Z-matrix:
 Charge =  0 Multiplicity = 1

 SCF Done:  E(RB3LYP) =  -1212.31447237     A.U. after   15 cycles
 Normal termination of Gaussian 09 at Thu Jan 28 04:53:30 2021.
 Gaussian 09:  AM64L-G09RevD.01 24-Apr-2013

 ----------------------------------------------------------------------
 #p b3lyp/6-31G(d) scrf=(iefpcm,read,solvent=n-Octanol) geom=allcheck g
 uess=read
 ----------------------------------------------------------------------

 Structure from the checkpoint file:  "SET_328_BBB321_conf1.geo_195_330_315.n.pdb.xyz.mst.n.o.chk"
 ----------------------------------------------
 SET_328_BBB321_conf1.geo_195_330_315.n.pdb.xyz
 ----------------------------------------------
 Charge =  0 Multiplicity = 1

                         Standard orientation:
 ---------------------------------------------------------------------
 Center     Atomic      Atomic             Coordinates (Angstroms)
 Number     Number       Type             X           Y           Z
 ---------------------------------------------------------------------
      1          6           0       -4.571064    2.875669    0.057390
      2          1           0       -4.460519    3.601587   -0.751432
      3          1           0       -4.557238    3.431117    0.998697
      4          1           0       -5.539310    2.377970   -0.042561
      5          6           0       -3.381738    1.932322    0.029077
      6          8           0       -2.230526    2.358082    0.039776
      7          7           0       -3.710474    0.599679    0.002024
      8          1           0       -4.700529    0.384389   -0.001657
      9          6           0       -2.860283   -0.525299   -0.011489
     10          6           0       -3.464860   -1.790414   -0.037958
     11          6           0       -2.672631   -2.935668   -0.051993
     12          6           0       -1.283633   -2.839874   -0.040459
     13          1           0       -0.679197   -3.739983   -0.055251
     14          1           0       -3.146216   -3.910925   -0.073820
     15          1           0       -4.547170   -1.875379   -0.047488
     16          6           0       -1.463894   -0.424112    0.000585
     17          1           0       -1.002459    0.550031    0.022031
     18          6           0       -0.668483   -1.578231   -0.012903
     19          6           0        0.799879   -1.444840    0.003619
     20          7           0        1.368077   -0.182627   -0.024594
     21          6           0        1.693411   -2.481511    0.048281
     22          1           0        1.485577   -3.539804    0.078174
     23         16           0        3.322885   -1.887471    0.058690
     24          6           0        2.686420   -0.223146    0.000670
     25          7           0        3.596954    0.777776   -0.010151
     26          6           0        3.209940    2.042292   -0.033043
     27          7           0        4.187223    2.993983    0.071522
     28          1           0        5.126291    2.648840   -0.073721
     29          1           0        4.005470    3.912183   -0.312778
     30          7           0        1.935177    2.475501   -0.136403
     31          1           0        1.212480    1.761011   -0.075752
     32          1           0        1.703770    3.440529    0.050863
 ---------------------------------------------------------------------

 SCF Done:  E(RB3LYP) =  -1212.34495811     A.U. after   11 cycles

 The electronic state is 1-A.
 Alpha  occ. eigenvalues --  -88.89920 -19.12011 -14.37852 -14.35386 -14.35180
 Alpha  occ. eigenvalues --  -14.32118 -14.30824 -10.30601 -10.29809 -10.27318
 Alpha  occ. eigenvalues --  -10.23713 -10.22076 -10.20494 -10.20085 -10.19297
 Alpha  occ. eigenvalues --  -10.19251 -10.19189 -10.18671 -10.18041  -7.96096
 Alpha  occ. eigenvalues --   -5.92486  -5.92151  -5.91779  -1.03902  -0.99786
 Alpha  occ. eigenvalues --   -0.95311  -0.94280  -0.88220  -0.87530  -0.84940
 Alpha  occ. eigenvalues --   -0.78621  -0.77435  -0.75748  -0.72465  -0.70821
 Alpha  occ. eigenvalues --   -0.64382  -0.63009  -0.61614  -0.58475  -0.58003
 Alpha  occ. eigenvalues --   -0.56380  -0.54737  -0.52732  -0.51064  -0.49430
 Alpha  occ. eigenvalues --   -0.48503  -0.47802  -0.47170  -0.45383  -0.44873
 Alpha  occ. eigenvalues --   -0.43431  -0.43395  -0.42025  -0.41053  -0.40590
 Alpha  occ. eigenvalues --   -0.40237  -0.40015  -0.39086  -0.37515  -0.35799
 Alpha  occ. eigenvalues --   -0.35455  -0.34526  -0.31573  -0.29230  -0.28043
 Alpha  occ. eigenvalues --   -0.27723  -0.27319  -0.26853  -0.25435  -0.24292
 Alpha  occ. eigenvalues --   -0.22409  -0.19144
 Alpha virt. eigenvalues --   -0.03199  -0.01055  -0.00810   0.02779   0.03898
 Alpha virt. eigenvalues --    0.07490   0.07561   0.08237   0.09548   0.10451
 Alpha virt. eigenvalues --    0.11630   0.12732   0.13140   0.13660   0.13953

 Mulliken charges:
               1
     1  C   -0.543673
     2  H    0.190018
     3  H    0.191962
     4  H    0.163884
     5  C    0.601354
     6  O   -0.524516
     7  N   -0.716436
     8  H    0.356400
     9  C    0.351221
    10  C   -0.202071
    11  C   -0.150929
    12  C   -0.193692
    13  H    0.134573
    14  H    0.142525
    15  H    0.141153
    16  C   -0.238790
    17  H    0.197822
    18  C    0.101973
    19  C    0.287642
    20  N   -0.573731
    21  C   -0.427556
    22  H    0.182294
    23  S    0.195924
    24  C    0.299671
    25  N   -0.575708
    26  C    0.654933
    27  N   -0.760593
    28  H    0.363830
    29  H    0.361091
    30  N   -0.784552
    31  H    0.411668
    32  H    0.362310
 Sum of Mulliken charges =   0.00000

 Dipole moment (field-independent basis, Debye):
    X=             -4.1606    Y=              3.6683    Z=             -0.5492  Tot=              5.5740
 Quadrupole moment (field-independent basis, Debye-Ang):
   XX=            -82.2891   YY=            -89.1410   ZZ=           -121.5656
   XY=             15.2417   XZ=             -3.6293   YZ=             -2.3286

 Normal termination of Gaussian 09 at Thu Jan 28 04:56:28 2021.
