 Gaussian 09, Revision D.01,

 -----------------
 #p b3lyp/6-31G(d)
 -----------------

 ----------------------------------------------
 SET_328_BBB321_conf1.geo_180_150_120.n.pdb.xyz
 ----------------------------------------------
 Symbolic Z-matrix:
 Charge =  0 Multiplicity = 1

 SCF Done:  E(RB3LYP) =  -1212.31327072     A.U. after   16 cycles
 Normal termination of Gaussian 09 at Thu Jan 28 04:51:37 2021.
 Gaussian 09:  AM64L-G09RevD.01 24-Apr-2013

 ----------------------------------------------------------------------
 #p b3lyp/6-31G(d) scrf=(iefpcm,read,solvent=n-Octanol) geom=allcheck g
 uess=read
 ----------------------------------------------------------------------

 Structure from the checkpoint file:  "SET_328_BBB321_conf1.geo_180_150_120.n.pdb.xyz.mst.n.o.chk"
 ----------------------------------------------
 SET_328_BBB321_conf1.geo_180_150_120.n.pdb.xyz
 ----------------------------------------------
 Charge =  0 Multiplicity = 1

                         Standard orientation:
 ---------------------------------------------------------------------
 Center     Atomic      Atomic             Coordinates (Angstroms)
 Number     Number       Type             X           Y           Z
 ---------------------------------------------------------------------
      1          6           0       -6.400421    1.173244    0.437999
      2          1           0       -5.968258    2.157788    0.623759
      3          1           0       -7.016524    0.889442    1.294617
      4          1           0       -7.060548    1.236717   -0.432529
      5          6           0       -5.370889    0.083806    0.195098
      6          8           0       -5.702964   -1.085139    0.022182
      7          7           0       -4.069604    0.522382    0.182942
      8          1           0       -3.930154    1.511188    0.338784
      9          6           0       -2.888699   -0.219941   -0.021079
     10          6           0       -2.883158   -1.603937   -0.247534
     11          6           0       -1.662886   -2.252344   -0.429757
     12          6           0       -0.457295   -1.555446   -0.394773
     13          1           0        0.486470   -2.062635   -0.545822
     14          1           0       -1.657901   -3.323517   -0.604653
     15          1           0       -3.820366   -2.138688   -0.271527
     16          6           0       -1.679768    0.480423    0.017625
     17          1           0       -1.691859    1.548324    0.214312
     18          6           0       -0.456354   -0.170278   -0.172270
     19          6           0        0.812479    0.578038   -0.148136
     20          7           0        2.004782   -0.118991   -0.046001
     21          6           0        0.939054    1.938118   -0.238407
     22          1           0        0.158882    2.674160   -0.360550
     23         16           0        2.611458    2.399844   -0.189951
     24          6           0        3.053692    0.680632   -0.047512
     25          7           0        4.373114    0.398212    0.044879
     26          6           0        4.786404   -0.843183    0.235393
     27          7           0        6.126766   -1.032565    0.427149
     28          1           0        6.702923   -0.237998    0.182697
     29          1           0        6.520441   -1.934494    0.191653
     30          7           0        3.996450   -1.940298    0.275121
     31          1           0        4.351209   -2.808715    0.648944
     32          1           0        2.992563   -1.763943    0.273553
 ---------------------------------------------------------------------

 SCF Done:  E(RB3LYP) =  -1212.34491739     A.U. after   12 cycles

 The electronic state is 1-A.
 Alpha  occ. eigenvalues --  -88.90098 -19.12068 -14.37890 -14.35555 -14.35379
 Alpha  occ. eigenvalues --  -14.32390 -14.31023 -10.30782 -10.29872 -10.27512
 Alpha  occ. eigenvalues --  -10.23820 -10.22314 -10.20704 -10.20310 -10.19302
 Alpha  occ. eigenvalues --  -10.19265 -10.19043 -10.18402 -10.18349  -7.96277
 Alpha  occ. eigenvalues --   -5.92667  -5.92331  -5.91958  -1.03979  -0.99986
 Alpha  occ. eigenvalues --   -0.95546  -0.94395  -0.88400  -0.87746  -0.85052
 Alpha  occ. eigenvalues --   -0.78825  -0.77400  -0.76037  -0.72503  -0.70895
 Alpha  occ. eigenvalues --   -0.64483  -0.62577  -0.62367  -0.59031  -0.58097
 Alpha  occ. eigenvalues --   -0.55856  -0.54373  -0.53675  -0.51352  -0.49655
 Alpha  occ. eigenvalues --   -0.48641  -0.47490  -0.47317  -0.45412  -0.44630
 Alpha  occ. eigenvalues --   -0.43849  -0.43534  -0.42575  -0.40945  -0.40528
 Alpha  occ. eigenvalues --   -0.40326  -0.40216  -0.39220  -0.37350  -0.36277
 Alpha  occ. eigenvalues --   -0.35843  -0.34113  -0.31467  -0.29471  -0.28081
 Alpha  occ. eigenvalues --   -0.27949  -0.27474  -0.27089  -0.25582  -0.24717
 Alpha  occ. eigenvalues --   -0.22240  -0.19444
 Alpha virt. eigenvalues --   -0.03200  -0.01588  -0.00557   0.02619   0.03730
 Alpha virt. eigenvalues --    0.07193   0.07564   0.08104   0.09623   0.10314
 Alpha virt. eigenvalues --    0.11514   0.12716   0.12966   0.13345   0.14073

 Mulliken charges:
               1
     1  C   -0.544080
     2  H    0.164418
     3  H    0.191258
     4  H    0.192001
     5  C    0.601498
     6  O   -0.525605
     7  N   -0.712339
     8  H    0.357269
     9  C    0.351895
    10  C   -0.172570
    11  C   -0.157777
    12  C   -0.181337
    13  H    0.144950
    14  H    0.140528
    15  H    0.175829
    16  C   -0.272475
    17  H    0.138869
    18  C    0.112300
    19  C    0.280247
    20  N   -0.570536
    21  C   -0.423863
    22  H    0.181306
    23  S    0.198859
    24  C    0.300996
    25  N   -0.573116
    26  C    0.653238
    27  N   -0.759614
    28  H    0.364727
    29  H    0.361957
    30  N   -0.775671
    31  H    0.362789
    32  H    0.394047
 Sum of Mulliken charges =   0.00000

 Dipole moment (field-independent basis, Debye):
    X=              3.9428    Y=             -0.2367    Z=              0.9017  Tot=              4.0515
 Quadrupole moment (field-independent basis, Debye-Ang):
   XX=            -87.5452   YY=           -101.6526   ZZ=           -120.8887
   XY=            -45.0040   XZ=             -2.9013   YZ=             -0.5871

 Normal termination of Gaussian 09 at Thu Jan 28 04:54:45 2021.
