 Gaussian 09, Revision D.01,

 -----------------
 #p b3lyp/6-31G(d)
 -----------------

 ----------------------------------------------
 SET_328_BBB256_conf1.geo_180_075_255.n.pdb.xyz
 ----------------------------------------------
 Symbolic Z-matrix:
 Charge =  0 Multiplicity = 1

 SCF Done:  E(RB3LYP) =  -421.570516228     A.U. after   14 cycles
 Normal termination of Gaussian 09 at Sun Jan 24 23:00:48 2021.
 Gaussian 09:  AM64L-G09RevD.01 24-Apr-2013

 ----------------------------------------------------------------------
 #p b3lyp/6-31G(d) scrf=(iefpcm,read,solvent=n-Octanol) geom=allcheck g
 uess=read
 ----------------------------------------------------------------------

 Structure from the checkpoint file:  "SET_328_BBB256_conf1.geo_180_075_255.n.pdb.xyz.mst.n.o.chk"
 ----------------------------------------------
 SET_328_BBB256_conf1.geo_180_075_255.n.pdb.xyz
 ----------------------------------------------
 Charge =  0 Multiplicity = 1

                         Standard orientation:
 ---------------------------------------------------------------------
 Center     Atomic      Atomic             Coordinates (Angstroms)
 Number     Number       Type             X           Y           Z
 ---------------------------------------------------------------------
      1          6           0        3.504170   -0.909987    0.455848
      2          1           0        3.211335   -1.113365    1.501574
      3          1           0        4.367538   -0.236591    0.485156
      4          1           0        3.832127   -1.852170    0.004520
      5          7           0        2.446045   -0.319260   -0.351949
      6          1           0        1.673983   -0.979714   -0.452542
      7          6           0        1.903065    0.888777    0.258678
      8          1           0        2.674332    1.668871    0.227671
      9          1           0        1.646814    0.746672    1.324903
     10          6           0        0.663259    1.391055   -0.492186
     11          1           0        0.893540    1.380704   -1.564727
     12          1           0        0.467745    2.430938   -0.214114
     13          6           0       -0.583219    0.578543   -0.240774
     14          7           0       -0.509077   -0.748398   -0.459076
     15          6           0       -1.601490   -1.490369   -0.241737
     16          1           0       -1.496010   -2.555962   -0.425800
     17          6           0       -2.818466   -0.967580    0.191887
     18          1           0       -3.672180   -1.617988    0.346011
     19          6           0       -2.895797    0.405117    0.417946
     20          1           0       -3.820899    0.859121    0.758785
     21          6           0       -1.763598    1.185587    0.202585
     22          1           0       -1.784647    2.256226    0.372261
 ---------------------------------------------------------------------

 SCF Done:  E(RB3LYP) =  -421.581293328     A.U. after   10 cycles

 The electronic state is 1-A.
 Alpha  occ. eigenvalues --  -14.33322 -14.30159 -10.23049 -10.22523 -10.20897
 Alpha  occ. eigenvalues --  -10.20188 -10.19829 -10.19728 -10.19244 -10.18537
 Alpha  occ. eigenvalues --   -0.94497  -0.88932  -0.80352  -0.78856  -0.72900
 Alpha  occ. eigenvalues --   -0.66073  -0.63234  -0.62038  -0.58636  -0.51557
 Alpha  occ. eigenvalues --   -0.48968  -0.47805  -0.46565  -0.44181  -0.43445
 Alpha  occ. eigenvalues --   -0.41560  -0.40569  -0.40119  -0.38101  -0.37459
 Alpha  occ. eigenvalues --   -0.35355  -0.34560  -0.33940  -0.28796  -0.25973
 Alpha  occ. eigenvalues --   -0.25556  -0.21187
 Alpha virt. eigenvalues --   -0.02710  -0.00985   0.09336   0.10921   0.11972
 Alpha virt. eigenvalues --    0.13455   0.14807   0.15453   0.16308   0.17055
 Alpha virt. eigenvalues --    0.17216   0.17741   0.18546   0.19031   0.20970

 Mulliken charges:
               1
     1  C   -0.302558
     2  H    0.118906
     3  H    0.143737
     4  H    0.145519
     5  N   -0.570204
     6  H    0.325444
     7  C   -0.109698
     8  H    0.136973
     9  H    0.109075
    10  C   -0.341427
    11  H    0.163770
    12  H    0.148479
    13  C    0.316048
    14  N   -0.488205
    15  C    0.034709
    16  H    0.149867
    17  C   -0.153775
    18  H    0.152965
    19  C   -0.103192
    20  H    0.158732
    21  C   -0.184432
    22  H    0.149268
 Sum of Mulliken charges =   0.00000

 Dipole moment (field-independent basis, Debye):
    X=             -2.9048    Y=              0.7263    Z=              1.5440  Tot=              3.3689
 Quadrupole moment (field-independent basis, Debye-Ang):
   XX=            -55.2445   YY=            -54.1498   ZZ=            -63.8182
   XY=              0.7838   XZ=              1.1037   YZ=              0.1291

 Normal termination of Gaussian 09 at Sun Jan 24 23:01:35 2021.
