 Gaussian 09, Revision D.01,

 -----------------
 #p b3lyp/6-31G(d)
 -----------------

 ----------------------------------------------
 SET_328_BBB292_conf1.geo_090_300_120.n.pdb.xyz
 ----------------------------------------------
 Symbolic Z-matrix:
 Charge =  0 Multiplicity = 1

 SCF Done:  E(RB3LYP) =  -705.226822732     A.U. after   15 cycles
 Normal termination of Gaussian 09 at Mon Jan 25 16:25:53 2021.
 Gaussian 09:  AM64L-G09RevD.01 24-Apr-2013

 ----------------------------------------------------------------------
 #p b3lyp/6-31G(d) scrf=(iefpcm,read,solvent=n-Octanol) geom=allcheck g
 uess=read
 ----------------------------------------------------------------------

 Structure from the checkpoint file:  "SET_328_BBB292_conf1.geo_090_300_120.n.pdb.xyz.mst.n.o.chk"
 ----------------------------------------------
 SET_328_BBB292_conf1.geo_090_300_120.n.pdb.xyz
 ----------------------------------------------
 Charge =  0 Multiplicity = 1

                         Standard orientation:
 ---------------------------------------------------------------------
 Center     Atomic      Atomic             Coordinates (Angstroms)
 Number     Number       Type             X           Y           Z
 ---------------------------------------------------------------------
      1          7           0        2.305360   -1.398317    1.049322
      2          1           0        1.324293   -1.571520    1.263796
      3          1           0        2.774236   -2.299795    1.012333
      4          6           0        2.435137   -0.665603   -0.217936
      5          6           0        2.581600    0.833484    0.112940
      6          8           0        2.844255    1.059303    1.400788
      7          1           0        2.806814    0.141344    1.801762
      8          8           0        2.500766    1.720044   -0.714137
      9          1           0        3.392583   -0.950780   -0.667671
     10          6           0        1.329026   -0.914437   -1.267185
     11          1           0        1.423859   -1.947341   -1.614542
     12          1           0        1.540051   -0.260552   -2.117192
     13          6           0       -0.075249   -0.685259   -0.754451
     14          6           0       -0.598836    0.616084   -0.654117
     15          1           0        0.009771    1.462130   -0.959025
     16          6           0       -1.881449    0.822317   -0.164385
     17          8           0       -2.487030    2.044610   -0.031784
     18          1           0       -1.881905    2.753780   -0.303607
     19          6           0       -2.676074   -0.266720    0.240917
     20          8           0       -3.934065   -0.051353    0.717258
     21          1           0       -4.089345    0.909839    0.708832
     22          6           0       -2.166435   -1.556608    0.144855
     23          1           0       -2.789067   -2.389308    0.453390
     24          6           0       -0.872870   -1.761251   -0.350839
     25          1           0       -0.489308   -2.772454   -0.439119
 ---------------------------------------------------------------------

 SCF Done:  E(RB3LYP) =  -705.254908687     A.U. after   11 cycles

 The electronic state is 1-A.
 Alpha  occ. eigenvalues --  -19.18801 -19.17868 -19.17517 -19.12962 -14.34511
 Alpha  occ. eigenvalues --  -10.31132 -10.25095 -10.24732 -10.23823 -10.19644
 Alpha  occ. eigenvalues --  -10.19575 -10.18954 -10.18909 -10.18837  -1.09315
 Alpha  occ. eigenvalues --   -1.07625  -1.04647  -1.01004  -0.91026  -0.85320
 Alpha  occ. eigenvalues --   -0.77918  -0.74411  -0.72460  -0.65972  -0.63924
 Alpha  occ. eigenvalues --   -0.59388  -0.58144  -0.55143  -0.54601  -0.52995
 Alpha  occ. eigenvalues --   -0.49797  -0.48309  -0.47499  -0.44768  -0.44330
 Alpha  occ. eigenvalues --   -0.43369  -0.43056  -0.42325  -0.41539  -0.40095
 Alpha  occ. eigenvalues --   -0.39387  -0.37853  -0.36737  -0.35975  -0.34834
 Alpha  occ. eigenvalues --   -0.34055  -0.32324  -0.30621  -0.29425  -0.25605
 Alpha  occ. eigenvalues --   -0.23999  -0.21019
 Alpha virt. eigenvalues --   -0.00352   0.01053   0.01503   0.06595   0.07932
 Alpha virt. eigenvalues --    0.10816   0.11959   0.12804   0.13912   0.14817
 Alpha virt. eigenvalues --    0.15933   0.16996   0.17739   0.18319   0.19449

 Mulliken charges:
               1
     1  N   -0.792245
     2  H    0.339141
     3  H    0.351879
     4  C   -0.081239
     5  C    0.620782
     6  O   -0.594176
     7  H    0.442928
     8  O   -0.514042
     9  H    0.190959
    10  C   -0.355519
    11  H    0.155550
    12  H    0.172585
    13  C    0.131166
    14  C   -0.261807
    15  H    0.160421
    16  C    0.307341
    17  O   -0.686035
    18  H    0.445853
    19  C    0.317610
    20  O   -0.666499
    21  H    0.440452
    22  C   -0.183548
    23  H    0.142953
    24  C   -0.218305
    25  H    0.133797
 Sum of Mulliken charges =   0.00000

 Dipole moment (field-independent basis, Debye):
    X=              0.5681    Y=             -3.4931    Z=              0.0696  Tot=              3.5397
 Quadrupole moment (field-independent basis, Debye-Ang):
   XX=            -86.3127   YY=            -72.0190   ZZ=            -82.8809
   XY=            -21.1417   XZ=              0.8437   YZ=             -1.7378

 Normal termination of Gaussian 09 at Mon Jan 25 16:27:39 2021.
