 Gaussian 09, Revision D.01,

 -----------------
 #p b3lyp/6-31G(d)
 -----------------

 ---------------------------------------------
 SET_328_BBB29_conf1.geo_285_180_180.n.pdb.xyz
 ---------------------------------------------
 Symbolic Z-matrix:
 Charge =  0 Multiplicity = 1

 SCF Done:  E(RB3LYP) =  -1548.50735287     A.U. after   16 cycles
 Normal termination of Gaussian 09 at Sun Jan 24 23:16:44 2021.
 Gaussian 09:  AM64L-G09RevD.01 24-Apr-2013

 ----------------------------------------------------------------------
 #p b3lyp/6-31G(d) scrf=(iefpcm,read,solvent=n-Octanol) geom=allcheck g
 uess=read
 ----------------------------------------------------------------------

 Structure from the checkpoint file:  "SET_328_BBB29_conf1.geo_285_180_180.n.pdb.xyz.mst.n.o.chk"
 ---------------------------------------------
 SET_328_BBB29_conf1.geo_285_180_180.n.pdb.xyz
 ---------------------------------------------
 Charge =  0 Multiplicity = 1

                         Standard orientation:
 ---------------------------------------------------------------------
 Center     Atomic      Atomic             Coordinates (Angstroms)
 Number     Number       Type             X           Y           Z
 ---------------------------------------------------------------------
      1          7           0       -0.790108    5.016099   -0.590901
      2          1           0        0.030198    5.179365   -1.175921
      3          1           0       -1.014598    5.923079   -0.179785
      4          6           0       -0.436104    4.076062    0.477668
      5          1           0       -1.285250    4.020015    1.169132
      6          1           0        0.434925    4.388537    1.078168
      7          6           0       -0.167295    2.690927   -0.107495
      8          1           0        0.666486    2.749388   -0.814292
      9          1           0       -1.037814    2.382727   -0.691918
     10          6           0        0.149427    1.665417    0.990648
     11          1           0       -0.700764    1.579539    1.672787
     12          1           0        0.991987    2.018280    1.592318
     13          7           0        0.481854    0.308137    0.544847
     14          6           0       -0.569172   -0.577171    0.250198
     15          6           0       -1.888127   -0.113733    0.107421
     16          1           0       -2.116548    0.936748    0.199405
     17          6           0       -2.923355   -1.005079   -0.160247
     18         17           0       -4.556709   -0.369212   -0.308623
     19          6           0       -2.703071   -2.364603   -0.331814
     20          1           0       -3.519181   -3.039674   -0.552297
     21          6           0       -1.393606   -2.828104   -0.203213
     22          1           0       -1.184670   -3.885791   -0.319720
     23          6           0       -0.346013   -1.964565    0.109775
     24         16           0        1.247492   -2.657531    0.479930
     25          6           0        2.275251   -1.287587    0.001759
     26          6           0        1.811967    0.035935    0.147810
     27          6           0        2.729478    1.072992   -0.094643
     28          1           0        2.417716    2.102540    0.004056
     29          6           0        4.046332    0.801637   -0.468346
     30          1           0        4.725453    1.629873   -0.637254
     31          6           0        4.478773   -0.509495   -0.638672
     32          1           0        5.496152   -0.724701   -0.941803
     33          6           0        3.579736   -1.551062   -0.411528
     34          1           0        3.892543   -2.581912   -0.528700
 ---------------------------------------------------------------------

 SCF Done:  E(RB3LYP) =  -1548.52996848     A.U. after   11 cycles

 The electronic state is 1-A.
 Alpha  occ. eigenvalues -- -101.55250 -88.89755 -14.38160 -14.31122 -10.25658
 Alpha  occ. eigenvalues --  -10.25398 -10.24684 -10.23124 -10.23054 -10.22757
 Alpha  occ. eigenvalues --  -10.21053 -10.20787 -10.20577 -10.20203 -10.19972
 Alpha  occ. eigenvalues --  -10.19682 -10.19566 -10.19166 -10.18764  -9.46881
 Alpha  occ. eigenvalues --   -7.95830  -7.23269  -7.22312  -7.22281  -5.92334
 Alpha  occ. eigenvalues --   -5.91973  -5.91327  -0.97848  -0.89431  -0.87957
 Alpha  occ. eigenvalues --   -0.86504  -0.85054  -0.80188  -0.77859  -0.77246
 Alpha  occ. eigenvalues --   -0.74789  -0.73751  -0.69222  -0.67181  -0.63845
 Alpha  occ. eigenvalues --   -0.61521  -0.60823  -0.59967  -0.56651  -0.54777
 Alpha  occ. eigenvalues --   -0.51850  -0.49493  -0.49014  -0.48243  -0.47758
 Alpha  occ. eigenvalues --   -0.46887  -0.45714  -0.45169  -0.43992  -0.43233
 Alpha  occ. eigenvalues --   -0.42976  -0.41985  -0.40252  -0.39532  -0.39320
 Alpha  occ. eigenvalues --   -0.38649  -0.37992  -0.36985  -0.35778  -0.35701
 Alpha  occ. eigenvalues --   -0.35091  -0.34228  -0.33042  -0.31772  -0.31538
 Alpha  occ. eigenvalues --   -0.29799  -0.26525  -0.25659  -0.23735  -0.23175
 Alpha  occ. eigenvalues --   -0.18891
 Alpha virt. eigenvalues --   -0.02715  -0.01830  -0.01024   0.01189   0.02100
 Alpha virt. eigenvalues --    0.03543   0.06965   0.08375   0.09992   0.11127
 Alpha virt. eigenvalues --    0.11974   0.12725   0.13207   0.13856   0.14787

 Mulliken charges:
               1
     1  N   -0.741886
     2  H    0.309435
     3  H    0.314632
     4  C   -0.136980
     5  H    0.145497
     6  H    0.124601
     7  C   -0.276761
     8  H    0.151046
     9  H    0.160829
    10  C   -0.174220
    11  H    0.169933
    12  H    0.170083
    13  N   -0.598350
    14  C    0.337237
    15  C   -0.175555
    16  H    0.163595
    17  C   -0.088510
    18  Cl  -0.035237
    19  C   -0.129275
    20  H    0.162549
    21  C   -0.186464
    22  H    0.162216
    23  C   -0.125832
    24  S    0.159421
    25  C   -0.131678
    26  C    0.326851
    27  C   -0.178014
    28  H    0.148171
    29  C   -0.155526
    30  H    0.146050
    31  C   -0.128250
    32  H    0.144018
    33  C   -0.186623
    34  H    0.152998
 Sum of Mulliken charges =   0.00000

 Dipole moment (field-independent basis, Debye):
    X=              2.9924    Y=              3.1602    Z=              0.6406  Tot=              4.3990
 Quadrupole moment (field-independent basis, Debye-Ang):
   XX=           -126.7668   YY=           -104.7429   ZZ=           -129.5344
   XY=              8.4791   XZ=             -5.2009   YZ=              6.3407

 Normal termination of Gaussian 09 at Sun Jan 24 23:20:23 2021.
