 Gaussian 09, Revision D.01,

 -----------------
 #p b3lyp/6-31G(d)
 -----------------

 ----------------------------------------------
 SET_328_BBB321_conf1.geo_165_150_255.n.pdb.xyz
 ----------------------------------------------
 Symbolic Z-matrix:
 Charge =  0 Multiplicity = 1

 SCF Done:  E(RB3LYP) =  -1212.31317022     A.U. after   16 cycles
 Normal termination of Gaussian 09 at Sat Feb  6 18:53:33 2021.
 Gaussian 09:  AM64L-G09RevD.01 24-Apr-2013

 ----------------------------------------------------------------------
 #p b3lyp/6-31G(d) scrf=(iefpcm,read,solvent=n-Octanol) geom=allcheck g
 uess=read
 ----------------------------------------------------------------------

 Structure from the checkpoint file:  "SET_328_BBB321_conf1.geo_165_150_255.n.pdb.xyz.mst.n.o.chk"
 ----------------------------------------------
 SET_328_BBB321_conf1.geo_165_150_255.n.pdb.xyz
 ----------------------------------------------
 Charge =  0 Multiplicity = 1

                         Standard orientation:
 ---------------------------------------------------------------------
 Center     Atomic      Atomic             Coordinates (Angstroms)
 Number     Number       Type             X           Y           Z
 ---------------------------------------------------------------------
      1          6           0       -6.408570    1.178423    0.408895
      2          1           0       -5.986911    2.182246    0.484240
      3          1           0       -6.956047    0.955364    1.328250
      4          1           0       -7.128323    1.157256   -0.412002
      5          6           0       -5.377114    0.087935    0.178321
      6          8           0       -5.708290   -1.085729    0.037647
      7          7           0       -4.077136    0.528684    0.146933
      8          1           0       -3.939064    1.520967    0.275043
      9          6           0       -2.894146   -0.218631   -0.031037
     10          6           0       -2.887246   -1.609186   -0.230028
     11          6           0       -1.666044   -2.262625   -0.388915
     12          6           0       -0.458484   -1.567389   -0.355562
     13          1           0        0.485410   -2.080248   -0.488534
     14          1           0       -1.660265   -3.336685   -0.543382
     15          1           0       -3.825392   -2.141752   -0.251679
     16          6           0       -1.681234    0.481300    0.004135
     17          1           0       -1.689169    1.554475    0.176025
     18          6           0       -0.456593   -0.177405   -0.160621
     19          6           0        0.813824    0.571208   -0.136635
     20          7           0        2.009611   -0.123376   -0.048049
     21          6           0        0.936321    1.931975   -0.212874
     22          1           0        0.149803    2.663239   -0.315584
     23         16           0        2.606121    2.399863   -0.168821
     24          6           0        3.055960    0.681380   -0.046243
     25          7           0        4.377380    0.403722    0.035224
     26          6           0        4.797503   -0.836957    0.214789
     27          7           0        4.013152   -1.936797    0.252683
     28          1           0        3.009354   -1.765136    0.254612
     29          1           0        4.374391   -2.806630    0.618569
     30          7           0        6.140028   -1.020238    0.397905
     31          1           0        6.537783   -1.918537    0.159799
     32          1           0        6.710500   -0.220670    0.156377
 ---------------------------------------------------------------------

 SCF Done:  E(RB3LYP) =  -1212.34487754     A.U. after   12 cycles

 The electronic state is 1-A.
 Alpha  occ. eigenvalues --  -88.90114 -19.12079 -14.37918 -14.35547 -14.35391
 Alpha  occ. eigenvalues --  -14.32403 -14.31017 -10.30778 -10.29887 -10.27523
 Alpha  occ. eigenvalues --  -10.23898 -10.22321 -10.20683 -10.20358 -10.19371
 Alpha  occ. eigenvalues --  -10.19255 -10.19065 -10.18434 -10.18387  -7.96293
 Alpha  occ. eigenvalues --   -5.92683  -5.92347  -5.91974  -1.03986  -0.99995
 Alpha  occ. eigenvalues --   -0.95519  -0.94387  -0.88419  -0.87737  -0.85002
 Alpha  occ. eigenvalues --   -0.78838  -0.77378  -0.76020  -0.72496  -0.70893
 Alpha  occ. eigenvalues --   -0.64479  -0.62578  -0.62370  -0.59032  -0.58102
 Alpha  occ. eigenvalues --   -0.55868  -0.54382  -0.53675  -0.51363  -0.49665
 Alpha  occ. eigenvalues --   -0.48642  -0.47494  -0.47342  -0.45427  -0.44615
 Alpha  occ. eigenvalues --   -0.43808  -0.43557  -0.42575  -0.40959  -0.40526
 Alpha  occ. eigenvalues --   -0.40323  -0.40232  -0.39218  -0.37342  -0.36288
 Alpha  occ. eigenvalues --   -0.35839  -0.34111  -0.31476  -0.29476  -0.28086
 Alpha  occ. eigenvalues --   -0.27947  -0.27478  -0.27089  -0.25597  -0.24707
 Alpha  occ. eigenvalues --   -0.22236  -0.19431
 Alpha virt. eigenvalues --   -0.03217  -0.01618  -0.00563   0.02621   0.03719
 Alpha virt. eigenvalues --    0.07244   0.07537   0.08098   0.09577   0.10279
 Alpha virt. eigenvalues --    0.11493   0.12700   0.12968   0.13349   0.14065

 Mulliken charges:
               1
     1  C   -0.543904
     2  H    0.164434
     3  H    0.192190
     4  H    0.191483
     5  C    0.601154
     6  O   -0.525820
     7  N   -0.711524
     8  H    0.357439
     9  C    0.349360
    10  C   -0.172378
    11  C   -0.157613
    12  C   -0.182059
    13  H    0.145198
    14  H    0.140683
    15  H    0.175812
    16  C   -0.272330
    17  H    0.138922
    18  C    0.113180
    19  C    0.281074
    20  N   -0.572187
    21  C   -0.423971
    22  H    0.181229
    23  S    0.199725
    24  C    0.300763
    25  N   -0.573381
    26  C    0.653765
    27  N   -0.775871
    28  H    0.394608
    29  H    0.362980
    30  N   -0.759799
    31  H    0.362003
    32  H    0.364836
 Sum of Mulliken charges =   0.00000

 Dipole moment (field-independent basis, Debye):
    X=              3.9833    Y=             -0.2146    Z=              0.7965  Tot=              4.0679
 Quadrupole moment (field-independent basis, Debye-Ang):
   XX=            -87.1485   YY=           -101.6127   ZZ=           -121.0252
   XY=            -45.1087   XZ=             -2.7191   YZ=             -0.5788

 Normal termination of Gaussian 09 at Sat Feb  6 18:56:37 2021.
