 Gaussian 09, Revision D.01,

 -----------------
 #p b3lyp/6-31G(d)
 -----------------

 ----------------------------------------------
 SET_328_BBB321_conf1.geo_165_150_225.n.pdb.xyz
 ----------------------------------------------
 Symbolic Z-matrix:
 Charge =  0 Multiplicity = 1

 SCF Done:  E(RB3LYP) =  -1212.31306027     A.U. after   16 cycles
 Normal termination of Gaussian 09 at Thu Jan 28 04:44:06 2021.
 Gaussian 09:  AM64L-G09RevD.01 24-Apr-2013

 ----------------------------------------------------------------------
 #p b3lyp/6-31G(d) scrf=(iefpcm,read,solvent=n-Octanol) geom=allcheck g
 uess=read
 ----------------------------------------------------------------------

 Structure from the checkpoint file:  "SET_328_BBB321_conf1.geo_165_150_225.n.pdb.xyz.mst.n.o.chk"
 ----------------------------------------------
 SET_328_BBB321_conf1.geo_165_150_225.n.pdb.xyz
 ----------------------------------------------
 Charge =  0 Multiplicity = 1

                         Standard orientation:
 ---------------------------------------------------------------------
 Center     Atomic      Atomic             Coordinates (Angstroms)
 Number     Number       Type             X           Y           Z
 ---------------------------------------------------------------------
      1          6           0       -6.409829    1.189807    0.312391
      2          1           0       -7.131780    0.878618    1.069726
      3          1           0       -6.953065    1.308026   -0.630191
      4          1           0       -5.987290    2.156359    0.595507
      5          6           0       -5.376937    0.089105    0.147276
      6          8           0       -5.707344   -1.084992    0.012814
      7          7           0       -4.075982    0.524776    0.145372
      8          1           0       -3.937640    1.518610    0.262784
      9          6           0       -2.892658   -0.225579   -0.009685
     10          6           0       -2.883722   -1.619474   -0.174385
     11          6           0       -1.660092   -2.274389   -0.312026
     12          6           0       -0.455548   -1.576248   -0.289332
     13          1           0        0.489794   -2.089588   -0.403629
     14          1           0       -1.651931   -3.351778   -0.440820
     15          1           0       -3.821387   -2.154059   -0.189663
     16          6           0       -1.682602    0.476879    0.015003
     17          1           0       -1.694162    1.552198    0.156172
     18          6           0       -0.456369   -0.182800   -0.126033
     19          6           0        0.811223    0.568619   -0.110643
     20          7           0        2.008918   -0.122776   -0.041401
     21          6           0        0.927536    1.930935   -0.172640
     22          1           0        0.137915    2.661947   -0.256564
     23         16           0        2.597297    2.402842   -0.140056
     24          6           0        3.052078    0.685348   -0.041982
     25          7           0        4.374736    0.411131    0.022669
     26          6           0        4.801895   -0.830219    0.171526
     27          7           0        6.146583   -1.013006    0.338887
     28          1           0        6.546012   -1.904554    0.077154
     29          1           0        6.712493   -0.206663    0.110185
     30          7           0        4.022136   -1.935141    0.190550
     31          1           0        4.390202   -2.812837    0.530724
     32          1           0        3.018241   -1.768602    0.207660
 ---------------------------------------------------------------------

 SCF Done:  E(RB3LYP) =  -1212.34474516     A.U. after   12 cycles

 The electronic state is 1-A.
 Alpha  occ. eigenvalues --  -88.90119 -19.12063 -14.37876 -14.35547 -14.35374
 Alpha  occ. eigenvalues --  -14.32392 -14.31009 -10.30777 -10.29849 -10.27513
 Alpha  occ. eigenvalues --  -10.23850 -10.22310 -10.20690 -10.20316 -10.19307
 Alpha  occ. eigenvalues --  -10.19250 -10.19043 -10.18389 -10.18365  -7.96297
 Alpha  occ. eigenvalues --   -5.92687  -5.92352  -5.91979  -1.04004  -0.99991
 Alpha  occ. eigenvalues --   -0.95544  -0.94402  -0.88402  -0.87753  -0.85027
 Alpha  occ. eigenvalues --   -0.78846  -0.77393  -0.76037  -0.72489  -0.70901
 Alpha  occ. eigenvalues --   -0.64495  -0.62603  -0.62370  -0.59033  -0.58096
 Alpha  occ. eigenvalues --   -0.55849  -0.54365  -0.53682  -0.51376  -0.49677
 Alpha  occ. eigenvalues --   -0.48630  -0.47485  -0.47331  -0.45436  -0.44619
 Alpha  occ. eigenvalues --   -0.43783  -0.43598  -0.42568  -0.40959  -0.40545
 Alpha  occ. eigenvalues --   -0.40294  -0.40230  -0.39225  -0.37331  -0.36268
 Alpha  occ. eigenvalues --   -0.35859  -0.34117  -0.31502  -0.29480  -0.28093
 Alpha  occ. eigenvalues --   -0.27941  -0.27475  -0.27083  -0.25574  -0.24702
 Alpha  occ. eigenvalues --   -0.22226  -0.19422
 Alpha virt. eigenvalues --   -0.03241  -0.01584  -0.00538   0.02625   0.03738
 Alpha virt. eigenvalues --    0.07221   0.07630   0.08078   0.09561   0.10316
 Alpha virt. eigenvalues --    0.11456   0.12703   0.12987   0.13351   0.14052

 Mulliken charges:
               1
     1  C   -0.544174
     2  H    0.189899
     3  H    0.193150
     4  H    0.164917
     5  C    0.600120
     6  O   -0.525174
     7  N   -0.710805
     8  H    0.357355
     9  C    0.350385
    10  C   -0.172668
    11  C   -0.157943
    12  C   -0.181513
    13  H    0.145014
    14  H    0.140494
    15  H    0.175696
    16  C   -0.272870
    17  H    0.138398
    18  C    0.113464
    19  C    0.282976
    20  N   -0.573060
    21  C   -0.425203
    22  H    0.181624
    23  S    0.200056
    24  C    0.301256
    25  N   -0.573289
    26  C    0.653741
    27  N   -0.759978
    28  H    0.362069
    29  H    0.364705
    30  N   -0.777457
    31  H    0.362889
    32  H    0.395927
 Sum of Mulliken charges =   0.00000

 Dipole moment (field-independent basis, Debye):
    X=              4.0044    Y=             -0.1799    Z=              0.5674  Tot=              4.0484
 Quadrupole moment (field-independent basis, Debye-Ang):
   XX=            -86.9890   YY=           -101.5436   ZZ=           -121.2325
   XY=            -45.1320   XZ=             -2.9006   YZ=             -0.5201

 Normal termination of Gaussian 09 at Thu Jan 28 04:47:46 2021.
