 Gaussian 09, Revision D.01,

 -----------------
 #p b3lyp/6-31G(d)
 -----------------

 ---------------------------------------------
 SET_328_BBB20_conf1.geo_060_180_060.n.pdb.xyz
 ---------------------------------------------
 Symbolic Z-matrix:
 Charge =  0 Multiplicity = 1

 SCF Done:  E(RB3LYP) =  -769.344921207     A.U. after   15 cycles
 Normal termination of Gaussian 09 at Sun Jan 24 22:17:54 2021.
 Gaussian 09:  AM64L-G09RevD.01 24-Apr-2013

 ----------------------------------------------------------------------
 #p b3lyp/6-31G(d) scrf=(iefpcm,read,solvent=n-Octanol) geom=allcheck g
 uess=read
 ----------------------------------------------------------------------

 Structure from the checkpoint file:  "SET_328_BBB20_conf1.geo_060_180_060.n.pdb.xyz.mst.n.o.chk"
 ---------------------------------------------
 SET_328_BBB20_conf1.geo_060_180_060.n.pdb.xyz
 ---------------------------------------------
 Charge =  0 Multiplicity = 1

                         Standard orientation:
 ---------------------------------------------------------------------
 Center     Atomic      Atomic             Coordinates (Angstroms)
 Number     Number       Type             X           Y           Z
 ---------------------------------------------------------------------
      1          7           0        4.079725   -2.517972   -0.203043
      2          1           0        4.493599   -1.643580   -0.524564
      3          1           0        3.434104   -2.806158   -0.938575
      4          6           0        3.352710   -2.284758    1.048565
      5          1           0        4.093677   -2.054805    1.823683
      6          1           0        2.886151   -3.233465    1.342165
      7          6           0        2.294979   -1.168792    1.047371
      8          1           0        2.763136   -0.229733    0.731991
      9          1           0        1.936015   -1.009739    2.070391
     10          6           0        1.090977   -1.477533    0.158689
     11          1           0        0.601258   -2.376990    0.538967
     12          1           0        1.422713   -1.712083   -0.866261
     13          7           0        0.090242   -0.405514    0.179812
     14          6           0        0.539030    0.895227   -0.208557
     15          6           0        1.460110    1.068431   -1.249114
     16          1           0        1.829303    0.200080   -1.783600
     17          6           0        1.901200    2.343298   -1.598072
     18          1           0        2.614299    2.462921   -2.407002
     19          6           0        1.418114    3.459737   -0.916964
     20          1           0        1.756662    4.455597   -1.184918
     21          6           0        0.502569    3.287403    0.122328
     22          1           0        0.131715    4.152437    0.667023
     23          6           0        0.063768    2.014221    0.497476
     24          6           0       -0.921031    1.795570    1.613688
     25          1           0       -1.047855    2.718817    2.187222
     26          1           0       -0.532636    1.030854    2.293535
     27          6           0       -2.291396    1.352389    1.082286
     28          1           0       -2.674040    2.145840    0.426817
     29          1           0       -2.997297    1.297709    1.919172
     30          6           0       -2.362957    0.029311    0.333127
     31          6           0       -3.655306   -0.432542    0.052729
     32          1           0       -4.489185    0.176488    0.389639
     33          6           0       -3.908430   -1.630237   -0.610192
     34          1           0       -4.926033   -1.951063   -0.795266
     35          6           0       -2.824784   -2.401902   -1.023772
     36          1           0       -2.979210   -3.337522   -1.554324
     37          6           0       -1.528639   -1.965406   -0.770293
     38          1           0       -0.698768   -2.559969   -1.129012
     39          6           0       -1.265478   -0.761289   -0.086707
 ---------------------------------------------------------------------

 SCF Done:  E(RB3LYP) =  -769.366360426     A.U. after   10 cycles

 The electronic state is 1-A.
 Alpha  occ. eigenvalues --  -14.34862 -14.31124 -10.22684 -10.22087 -10.21564
 Alpha  occ. eigenvalues --  -10.20580 -10.19315 -10.19054 -10.18872 -10.18852
 Alpha  occ. eigenvalues --  -10.18730 -10.18723 -10.18586 -10.18502 -10.18482
 Alpha  occ. eigenvalues --  -10.18278 -10.18227 -10.18056 -10.17830  -0.94889
 Alpha  occ. eigenvalues --   -0.87767  -0.85306  -0.84290  -0.79711  -0.76412
 Alpha  occ. eigenvalues --   -0.75352  -0.74953  -0.72213  -0.70012  -0.66376
 Alpha  occ. eigenvalues --   -0.64498  -0.61074  -0.59911  -0.58580  -0.57144
 Alpha  occ. eigenvalues --   -0.56492  -0.51474  -0.51048  -0.49189  -0.47657
 Alpha  occ. eigenvalues --   -0.47111  -0.46888  -0.45379  -0.45315  -0.43852
 Alpha  occ. eigenvalues --   -0.43305  -0.42533  -0.41407  -0.41349  -0.39788
 Alpha  occ. eigenvalues --   -0.38909  -0.38493  -0.37899  -0.37743  -0.36496
 Alpha  occ. eigenvalues --   -0.35442  -0.34712  -0.34132  -0.33863  -0.33388
 Alpha  occ. eigenvalues --   -0.33295  -0.32656  -0.28681  -0.24638  -0.24145
 Alpha  occ. eigenvalues --   -0.23590  -0.23524  -0.19537
 Alpha virt. eigenvalues --   -0.00542   0.00156   0.00526   0.01027   0.06941
 Alpha virt. eigenvalues --    0.09948   0.10335   0.10782   0.11868   0.11946
 Alpha virt. eigenvalues --    0.13475   0.13735   0.14521   0.15213   0.15693

 Mulliken charges:
               1
     1  N   -0.735694
     2  H    0.307028
     3  H    0.309655
     4  C   -0.150091
     5  H    0.145605
     6  H    0.141267
     7  C   -0.275720
     8  H    0.147053
     9  H    0.142469
    10  C   -0.142192
    11  H    0.159771
    12  H    0.130164
    13  N   -0.577829
    14  C    0.212923
    15  C   -0.160771
    16  H    0.137021
    17  C   -0.157555
    18  H    0.137718
    19  C   -0.132130
    20  H    0.135459
    21  C   -0.223105
    22  H    0.132991
    23  C    0.157026
    24  C   -0.346411
    25  H    0.143503
    26  H    0.159276
    27  C   -0.344207
    28  H    0.157774
    29  H    0.154653
    30  C    0.156103
    31  C   -0.210472
    32  H    0.128595
    33  C   -0.137276
    34  H    0.132109
    35  C   -0.158757
    36  H    0.134661
    37  C   -0.185219
    38  H    0.139235
    39  C    0.235373
 Sum of Mulliken charges =   0.00000

 Dipole moment (field-independent basis, Debye):
    X=             -0.2998    Y=              1.0681    Z=             -0.1231  Tot=              1.1162
 Quadrupole moment (field-independent basis, Debye-Ang):
   XX=           -116.5291   YY=           -110.5282   ZZ=           -110.7051
   XY=              6.1303   XZ=             -4.9689   YZ=              3.9289

 Normal termination of Gaussian 09 at Sun Jan 24 22:22:12 2021.
