 Gaussian 09, Revision D.01,

 -----------------
 #p b3lyp/6-31G(d)
 -----------------

 ---------------------------------------------
 SET_328_BBB20_conf1.geo_135_300_300.n.pdb.xyz
 ---------------------------------------------
 Symbolic Z-matrix:
 Charge =  0 Multiplicity = 1

 SCF Done:  E(RB3LYP) =  -769.345060044     A.U. after   15 cycles
 Normal termination of Gaussian 09 at Sun Jan 24 22:54:58 2021.
 Gaussian 09:  AM64L-G09RevD.01 24-Apr-2013

 ----------------------------------------------------------------------
 #p b3lyp/6-31G(d) scrf=(iefpcm,read,solvent=n-Octanol) geom=allcheck g
 uess=read
 ----------------------------------------------------------------------

 Structure from the checkpoint file:  "SET_328_BBB20_conf1.geo_135_300_300.n.pdb.xyz.mst.n.o.chk"
 ---------------------------------------------
 SET_328_BBB20_conf1.geo_135_300_300.n.pdb.xyz
 ---------------------------------------------
 Charge =  0 Multiplicity = 1

                         Standard orientation:
 ---------------------------------------------------------------------
 Center     Atomic      Atomic             Coordinates (Angstroms)
 Number     Number       Type             X           Y           Z
 ---------------------------------------------------------------------
      1          7           0       -0.958997    3.508401    1.413872
      2          1           0       -1.648486    2.851491    1.048613
      3          1           0       -1.078004    4.366051    0.875752
      4          6           0        0.393199    2.982610    1.211416
      5          1           0        0.452958    2.020457    1.729712
      6          1           0        1.093502    3.655611    1.718002
      7          6           0        0.860153    2.801402   -0.240404
      8          1           0        1.910255    2.490777   -0.241943
      9          1           0        0.817049    3.766000   -0.763352
     10          6           0        0.027213    1.798829   -1.044432
     11          1           0        0.361073    1.789503   -2.092231
     12          1           0       -1.010959    2.134242   -1.062824
     13          7           0        0.012246    0.456045   -0.446830
     14          6           0       -1.238298   -0.230233   -0.486224
     15          6           0       -2.065277   -0.145856   -1.616021
     16          1           0       -1.724293    0.403260   -2.487802
     17          6           0       -3.313279   -0.769124   -1.631473
     18          1           0       -3.939546   -0.696407   -2.514862
     19          6           0       -3.745117   -1.491605   -0.518071
     20          1           0       -4.712750   -1.980264   -0.522225
     21          6           0       -2.923032   -1.574135    0.605925
     22          1           0       -3.257749   -2.123076    1.483681
     23          6           0       -1.678023   -0.940491    0.645133
     24          6           0       -0.779277   -1.017607    1.848236
     25          1           0       -1.326188   -1.453838    2.689341
     26          1           0       -0.467653   -0.007873    2.143906
     27          6           0        0.464351   -1.873950    1.565972
     28          1           0        0.126300   -2.868683    1.247202
     29          1           0        1.012197   -2.035007    2.502229
     30          6           0        1.457230   -1.333362    0.545294
     31          6           0        2.711548   -1.960881    0.537844
     32          1           0        2.869661   -2.772330    1.241967
     33          6           0        3.750331   -1.577290   -0.303620
     34          1           0        4.705663   -2.087291   -0.264698
     35          6           0        3.536598   -0.515284   -1.179673
     36          1           0        4.322377   -0.180333   -1.850595
     37          6           0        2.300238    0.120545   -1.203519
     38          1           0        2.148262    0.935795   -1.896785
     39          6           0        1.237040   -0.266768   -0.361780
 ---------------------------------------------------------------------

 SCF Done:  E(RB3LYP) =  -769.365826646     A.U. after   10 cycles

 The electronic state is 1-A.
 Alpha  occ. eigenvalues --  -14.35092 -14.30922 -10.22818 -10.22286 -10.21600
 Alpha  occ. eigenvalues --  -10.20079 -10.19330 -10.19137 -10.18907 -10.18881
 Alpha  occ. eigenvalues --  -10.18766 -10.18741 -10.18621 -10.18591 -10.18496
 Alpha  occ. eigenvalues --  -10.18268 -10.18183 -10.17995 -10.17843  -0.94959
 Alpha  occ. eigenvalues --   -0.87544  -0.85344  -0.84274  -0.79737  -0.76328
 Alpha  occ. eigenvalues --   -0.75347  -0.75029  -0.72234  -0.69878  -0.66633
 Alpha  occ. eigenvalues --   -0.64542  -0.60895  -0.60062  -0.58613  -0.57677
 Alpha  occ. eigenvalues --   -0.55922  -0.51631  -0.50643  -0.49403  -0.47714
 Alpha  occ. eigenvalues --   -0.46958  -0.46771  -0.45750  -0.45295  -0.43612
 Alpha  occ. eigenvalues --   -0.43137  -0.42608  -0.41428  -0.40939  -0.39997
 Alpha  occ. eigenvalues --   -0.39731  -0.38580  -0.37986  -0.37111  -0.35891
 Alpha  occ. eigenvalues --   -0.35612  -0.34794  -0.34379  -0.33891  -0.33609
 Alpha  occ. eigenvalues --   -0.32918  -0.32693  -0.28924  -0.24707  -0.24217
 Alpha  occ. eigenvalues --   -0.23701  -0.23187  -0.19404
 Alpha virt. eigenvalues --   -0.00567   0.00111   0.00436   0.01169   0.07496
 Alpha virt. eigenvalues --    0.09201   0.09966   0.10736   0.11742   0.12456
 Alpha virt. eigenvalues --    0.13481   0.13832   0.14280   0.14918   0.15985

 Mulliken charges:
               1
     1  N   -0.736075
     2  H    0.305625
     3  H    0.307184
     4  C   -0.150036
     5  H    0.158762
     6  H    0.140744
     7  C   -0.279728
     8  H    0.147222
     9  H    0.135952
    10  C   -0.157974
    11  H    0.148116
    12  H    0.150343
    13  N   -0.577015
    14  C    0.207919
    15  C   -0.165091
    16  H    0.142888
    17  C   -0.156514
    18  H    0.138358
    19  C   -0.133146
    20  H    0.135876
    21  C   -0.220400
    22  H    0.133436
    23  C    0.158099
    24  C   -0.362025
    25  H    0.146011
    26  H    0.167453
    27  C   -0.341459
    28  H    0.158419
    29  H    0.154404
    30  C    0.150602
    31  C   -0.211613
    32  H    0.128706
    33  C   -0.137509
    34  H    0.131601
    35  C   -0.159431
    36  H    0.134836
    37  C   -0.180510
    38  H    0.138729
    39  C    0.247240
 Sum of Mulliken charges =   0.00000

 Dipole moment (field-independent basis, Debye):
    X=             -0.3103    Y=              0.3790    Z=             -1.5525  Tot=              1.6279
 Quadrupole moment (field-independent basis, Debye-Ang):
   XX=           -107.7206   YY=           -109.3399   ZZ=           -112.6949
   XY=              2.2646   XZ=              2.1903   YZ=            -13.0542

 Normal termination of Gaussian 09 at Sun Jan 24 22:59:02 2021.
