 Gaussian 09, Revision D.01,

 -----------------
 #p b3lyp/6-31G(d)
 -----------------

 ----------------------------------------------
 SET_328_BBB256_conf1.geo_180_300_120.n.pdb.xyz
 ----------------------------------------------
 Symbolic Z-matrix:
 Charge =  0 Multiplicity = 1

 SCF Done:  E(RB3LYP) =  -421.566945622     A.U. after   14 cycles
 Normal termination of Gaussian 09 at Sun Jan 24 23:04:34 2021.
 Gaussian 09:  AM64L-G09RevD.01 24-Apr-2013

 ----------------------------------------------------------------------
 #p b3lyp/6-31G(d) scrf=(iefpcm,read,solvent=n-Octanol) geom=allcheck g
 uess=read
 ----------------------------------------------------------------------

 Structure from the checkpoint file:  "SET_328_BBB256_conf1.geo_180_300_120.n.pdb.xyz.mst.n.o.chk"
 ----------------------------------------------
 SET_328_BBB256_conf1.geo_180_300_120.n.pdb.xyz
 ----------------------------------------------
 Charge =  0 Multiplicity = 1

                         Standard orientation:
 ---------------------------------------------------------------------
 Center     Atomic      Atomic             Coordinates (Angstroms)
 Number     Number       Type             X           Y           Z
 ---------------------------------------------------------------------
      1          6           0        3.440243   -0.707577   -0.967415
      2          1           0        4.337398   -0.362291   -0.424648
      3          1           0        3.357151   -0.106654   -1.878755
      4          1           0        3.601749   -1.747204   -1.266374
      5          7           0        2.203529   -0.603944   -0.202533
      6          1           0        2.242071   -1.251154    0.582549
      7          6           0        1.974962    0.742159    0.309687
      8          1           0        1.834157    1.410259   -0.549208
      9          1           0        2.839924    1.139918    0.871695
     10          6           0        0.741298    0.800211    1.218527
     11          1           0        0.642113    1.826861    1.591038
     12          1           0        0.894322    0.156504    2.088720
     13          6           0       -0.542541    0.369260    0.552628
     14          7           0       -1.089873   -0.780833    0.979261
     15          6           0       -2.228351   -1.187864    0.402775
     16          1           0       -2.639515   -2.122775    0.775167
     17          6           0       -2.880341   -0.491162   -0.610225
     18          1           0       -3.801459   -0.871238   -1.038338
     19          6           0       -2.314049    0.707670   -1.047001
     20          1           0       -2.787413    1.292367   -1.829054
     21          6           0       -1.132404    1.143087   -0.457407
     22          1           0       -0.668995    2.074143   -0.769296
 ---------------------------------------------------------------------

 SCF Done:  E(RB3LYP) =  -421.578615879     A.U. after   10 cycles

 The electronic state is 1-A.
 Alpha  occ. eigenvalues --  -14.32437 -14.31231 -10.22462 -10.21817 -10.20603
 Alpha  occ. eigenvalues --  -10.20406 -10.19650 -10.19317 -10.19250 -10.18363
 Alpha  occ. eigenvalues --   -0.93716  -0.89633  -0.79802  -0.78507  -0.72744
 Alpha  occ. eigenvalues --   -0.66170  -0.62928  -0.61958  -0.58586  -0.51320
 Alpha  occ. eigenvalues --   -0.48514  -0.47629  -0.45856  -0.44691  -0.44060
 Alpha  occ. eigenvalues --   -0.41682  -0.39763  -0.39301  -0.38872  -0.37145
 Alpha  occ. eigenvalues --   -0.35046  -0.34632  -0.34274  -0.28179  -0.25223
 Alpha  occ. eigenvalues --   -0.24989  -0.21747
 Alpha virt. eigenvalues --   -0.01814  -0.00697   0.09119   0.10362   0.12295
 Alpha virt. eigenvalues --    0.12610   0.14385   0.14984   0.16280   0.16652
 Alpha virt. eigenvalues --    0.17724   0.17980   0.18546   0.18727   0.20809

 Mulliken charges:
               1
     1  C   -0.302875
     2  H    0.122516
     3  H    0.149994
     4  H    0.150259
     5  N   -0.546958
     6  H    0.309252
     7  C   -0.112910
     8  H    0.141451
     9  H    0.116661
    10  C   -0.361952
    11  H    0.154086
    12  H    0.154195
    13  C    0.331767
    14  N   -0.487945
    15  C    0.026212
    16  H    0.142118
    17  C   -0.148772
    18  H    0.147191
    19  C   -0.111141
    20  H    0.153785
    21  C   -0.169648
    22  H    0.142714
 Sum of Mulliken charges =   0.00000

 Dipole moment (field-independent basis, Debye):
    X=              0.2313    Y=              1.4624    Z=             -0.8345  Tot=              1.6995
 Quadrupole moment (field-independent basis, Debye-Ang):
   XX=            -51.5525   YY=            -57.3179   ZZ=            -60.9139
   XY=              0.0394   XZ=              4.7811   YZ=             -0.9899

 Normal termination of Gaussian 09 at Sun Jan 24 23:05:26 2021.
