 Gaussian 09, Revision D.01,

 -----------------
 #p b3lyp/6-31G(d)
 -----------------

 ---------------------------------------------
 SET_328_BBB29_conf1.geo_120_180_180.n.pdb.xyz
 ---------------------------------------------
 Symbolic Z-matrix:
 Charge =  0 Multiplicity = 1

 SCF Done:  E(RB3LYP) =  -1548.50856358     A.U. after   16 cycles
 Normal termination of Gaussian 09 at Sun Jan 24 23:16:41 2021.
 Gaussian 09:  AM64L-G09RevD.01 24-Apr-2013

 ----------------------------------------------------------------------
 #p b3lyp/6-31G(d) scrf=(iefpcm,read,solvent=n-Octanol) geom=allcheck g
 uess=read
 ----------------------------------------------------------------------

 Structure from the checkpoint file:  "SET_328_BBB29_conf1.geo_120_180_180.n.pdb.xyz.mst.n.o.chk"
 ---------------------------------------------
 SET_328_BBB29_conf1.geo_120_180_180.n.pdb.xyz
 ---------------------------------------------
 Charge =  0 Multiplicity = 1

                         Standard orientation:
 ---------------------------------------------------------------------
 Center     Atomic      Atomic             Coordinates (Angstroms)
 Number     Number       Type             X           Y           Z
 ---------------------------------------------------------------------
      1          7           0       -3.512519    3.999398   -1.163214
      2          1           0       -3.716958    4.985520   -1.000134
      3          1           0       -4.346646    3.497328   -0.864515
      4          6           0       -2.384975    3.596900   -0.315075
      5          1           0       -2.569766    3.735900    0.763940
      6          1           0       -1.532995    4.239539   -0.568049
      7          6           0       -2.015107    2.136049   -0.576875
      8          1           0       -1.787480    2.005252   -1.638345
      9          1           0       -2.879256    1.499930   -0.353891
     10          6           0       -0.805123    1.701890    0.255667
     11          1           0       -0.976778    1.894497    1.325367
     12          1           0        0.047791    2.313188   -0.038512
     13          7           0       -0.430219    0.303818    0.020444
     14          6           0        0.933435   -0.034931   -0.088710
     15          6           0        1.949414    0.786245    0.422488
     16          1           0        1.712932    1.696697    0.953548
     17          6           0        3.283997    0.424013    0.251201
     18         17           0        4.531222    1.494164    0.882043
     19          6           0        3.655573   -0.757552   -0.378286
     20          1           0        4.698891   -1.020822   -0.494187
     21          6           0        2.643626   -1.597384   -0.845692
     22          1           0        2.901339   -2.533431   -1.329645
     23          6           0        1.303210   -1.239770   -0.723494
     24         16           0        0.029862   -2.257086   -1.438484
     25          6           0       -1.222737   -1.995437   -0.196746
     26          6           0       -1.342978   -0.717717    0.382196
     27          6           0       -2.368258   -0.504659    1.315317
     28          1           0       -2.471992    0.464629    1.786992
     29          6           0       -3.261586   -1.528416    1.635856
     30          1           0       -4.054473   -1.334387    2.349624
     31          6           0       -3.130223   -2.789230    1.059644
     32          1           0       -3.819648   -3.586429    1.312716
     33          6           0       -2.095936   -3.024176    0.154322
     34          1           0       -1.968363   -4.002281   -0.295399
 ---------------------------------------------------------------------

 SCF Done:  E(RB3LYP) =  -1548.53153151     A.U. after   11 cycles

 The electronic state is 1-A.
 Alpha  occ. eigenvalues -- -101.55288 -88.89622 -14.37477 -14.30958 -10.25759
 Alpha  occ. eigenvalues --  -10.25077 -10.24228 -10.22970 -10.22805 -10.22579
 Alpha  occ. eigenvalues --  -10.20861 -10.20819 -10.20697 -10.20323 -10.20007
 Alpha  occ. eigenvalues --  -10.19732 -10.19624 -10.19244 -10.18440  -9.46919
 Alpha  occ. eigenvalues --   -7.95668  -7.23307  -7.22351  -7.22319  -5.92170
 Alpha  occ. eigenvalues --   -5.91820  -5.91166  -0.97534  -0.89404  -0.87785
 Alpha  occ. eigenvalues --   -0.86318  -0.84940  -0.80092  -0.77848  -0.76840
 Alpha  occ. eigenvalues --   -0.74694  -0.73587  -0.69002  -0.67077  -0.63484
 Alpha  occ. eigenvalues --   -0.61556  -0.60721  -0.58919  -0.56817  -0.54292
 Alpha  occ. eigenvalues --   -0.51881  -0.49451  -0.48974  -0.48308  -0.47057
 Alpha  occ. eigenvalues --   -0.46795  -0.45906  -0.45232  -0.44565  -0.43377
 Alpha  occ. eigenvalues --   -0.42887  -0.41561  -0.40182  -0.39467  -0.38776
 Alpha  occ. eigenvalues --   -0.38360  -0.37148  -0.36832  -0.35651  -0.35491
 Alpha  occ. eigenvalues --   -0.35123  -0.34123  -0.32910  -0.31817  -0.30983
 Alpha  occ. eigenvalues --   -0.29361  -0.26370  -0.25436  -0.23644  -0.23083
 Alpha  occ. eigenvalues --   -0.19536
 Alpha virt. eigenvalues --   -0.02292  -0.01839  -0.00956   0.00286   0.02131
 Alpha virt. eigenvalues --    0.03652   0.07191   0.08391   0.09849   0.11714
 Alpha virt. eigenvalues --    0.11957   0.13274   0.13421   0.13905   0.14597

 Mulliken charges:
               1
     1  N   -0.743118
     2  H    0.313499
     3  H    0.308681
     4  C   -0.136977
     5  H    0.121049
     6  H    0.143145
     7  C   -0.263551
     8  H    0.157976
     9  H    0.148767
    10  C   -0.158441
    11  H    0.155016
    12  H    0.168261
    13  N   -0.579093
    14  C    0.314346
    15  C   -0.173768
    16  H    0.169963
    17  C   -0.088201
    18  Cl  -0.036066
    19  C   -0.127895
    20  H    0.163099
    21  C   -0.182676
    22  H    0.163183
    23  C   -0.121888
    24  S    0.151197
    25  C   -0.129288
    26  C    0.304942
    27  C   -0.166477
    28  H    0.147586
    29  C   -0.156577
    30  H    0.146481
    31  C   -0.126859
    32  H    0.144189
    33  C   -0.184032
    34  H    0.153530
 Sum of Mulliken charges =   0.00000

 Dipole moment (field-independent basis, Debye):
    X=             -3.0328    Y=              1.2139    Z=              2.3327  Tot=              4.0141
 Quadrupole moment (field-independent basis, Debye-Ang):
   XX=           -118.1775   YY=           -113.2584   ZZ=           -131.2982
   XY=             -8.1511   XZ=            -12.0941   YZ=              5.9583

 Normal termination of Gaussian 09 at Sun Jan 24 23:20:22 2021.
