 Gaussian 09, Revision D.01,

 -----------------
 #p b3lyp/6-31G(d)
 -----------------

 ---------------------------------------------
 SET_328_BBB20_conf1.geo_090_075_060.n.pdb.xyz
 ---------------------------------------------
 Symbolic Z-matrix:
 Charge =  0 Multiplicity = 1

 SCF Done:  E(RB3LYP) =  -769.345250209     A.U. after   15 cycles
 Normal termination of Gaussian 09 at Sun Jan 24 22:43:00 2021.
 Gaussian 09:  AM64L-G09RevD.01 24-Apr-2013

 ----------------------------------------------------------------------
 #p b3lyp/6-31G(d) scrf=(iefpcm,read,solvent=n-Octanol) geom=allcheck g
 uess=read
 ----------------------------------------------------------------------

 Structure from the checkpoint file:  "SET_328_BBB20_conf1.geo_090_075_060.n.pdb.xyz.mst.n.o.chk"
 ---------------------------------------------
 SET_328_BBB20_conf1.geo_090_075_060.n.pdb.xyz
 ---------------------------------------------
 Charge =  0 Multiplicity = 1

                         Standard orientation:
 ---------------------------------------------------------------------
 Center     Atomic      Atomic             Coordinates (Angstroms)
 Number     Number       Type             X           Y           Z
 ---------------------------------------------------------------------
      1          7           0        0.000894    3.554456    1.371002
      2          1           0        0.754431    2.869905    1.389462
      3          1           0       -0.061650    3.904315    2.322245
      4          6           0       -1.258746    2.876522    1.027348
      5          1           0       -2.082921    3.539813    1.309446
      6          1           0       -1.408400    1.933059    1.576105
      7          6           0       -1.351528    2.604255   -0.478211
      8          1           0       -1.376696    3.558305   -1.013696
      9          1           0       -2.291191    2.086491   -0.692304
     10          6           0       -0.166130    1.811342   -1.039606
     11          1           0        0.742036    2.388043   -0.858761
     12          1           0       -0.266933    1.719427   -2.132171
     13          7           0        0.017208    0.511692   -0.385507
     14          6           0       -1.093052   -0.384500   -0.433995
     15          6           0       -1.900977   -0.492208   -1.570798
     16          1           0       -1.670843    0.102472   -2.447310
     17          6           0       -2.992383   -1.358855   -1.579630
     18          1           0       -3.610064   -1.433810   -2.468919
     19          6           0       -3.282909   -2.129958   -0.454880
     20          1           0       -4.131389   -2.806350   -0.458070
     21          6           0       -2.479154   -2.018158    0.680554
     22          1           0       -2.703372   -2.601528    1.568472
     23          6           0       -1.391659   -1.142593    0.708961
     24          6           0       -0.509292   -0.987695    1.912040
     25          1           0       -0.973962   -1.470967    2.775171
     26          1           0       -0.403748    0.077353    2.142922
     27          6           0        0.876904   -1.600245    1.693122
     28          1           0        0.745338   -2.673281    1.497156
     29          1           0        1.441274   -1.539060    2.630550
     30          6           0        1.739236   -1.005971    0.589192
     31          6           0        3.062920   -1.463609    0.541565
     32          1           0        3.370932   -2.197757    1.282017
     33          6           0        3.988557   -1.006398   -0.390563
     34          1           0        5.005864   -1.382808   -0.382902
     35          6           0        3.582608   -0.058596   -1.326344
     36          1           0        4.274343    0.312159   -2.074858
     37          6           0        2.271201    0.404778   -1.313565
     38          1           0        1.962269    1.115651   -2.069650
     39          6           0        1.330730   -0.042191   -0.364086
 ---------------------------------------------------------------------

 SCF Done:  E(RB3LYP) =  -769.365582738     A.U. after   10 cycles

 The electronic state is 1-A.
 Alpha  occ. eigenvalues --  -14.34705 -14.30654 -10.22634 -10.21948 -10.21187
 Alpha  occ. eigenvalues --  -10.20062 -10.19310 -10.18935 -10.18873 -10.18806
 Alpha  occ. eigenvalues --  -10.18673 -10.18649 -10.18563 -10.18452 -10.18420
 Alpha  occ. eigenvalues --  -10.18283 -10.18202 -10.18048 -10.17666  -0.94898
 Alpha  occ. eigenvalues --   -0.87352  -0.85314  -0.84257  -0.79776  -0.76197
 Alpha  occ. eigenvalues --   -0.75356  -0.74925  -0.72201  -0.69934  -0.66447
 Alpha  occ. eigenvalues --   -0.64503  -0.60815  -0.59967  -0.58149  -0.57168
 Alpha  occ. eigenvalues --   -0.55771  -0.51548  -0.50701  -0.49240  -0.47715
 Alpha  occ. eigenvalues --   -0.47357  -0.46502  -0.45451  -0.44828  -0.43926
 Alpha  occ. eigenvalues --   -0.43317  -0.43188  -0.41408  -0.40726  -0.39986
 Alpha  occ. eigenvalues --   -0.39351  -0.38487  -0.37720  -0.36638  -0.36176
 Alpha  occ. eigenvalues --   -0.35448  -0.34372  -0.33878  -0.33562  -0.33408
 Alpha  occ. eigenvalues --   -0.33231  -0.32624  -0.28587  -0.24620  -0.24136
 Alpha  occ. eigenvalues --   -0.23619  -0.23205  -0.19637
 Alpha virt. eigenvalues --   -0.00517   0.00210   0.00541   0.01020   0.07653
 Alpha virt. eigenvalues --    0.09317   0.10368   0.10722   0.12680   0.12753
 Alpha virt. eigenvalues --    0.13442   0.13925   0.14311   0.15099   0.15550

 Mulliken charges:
               1
     1  N   -0.748158
     2  H    0.309314
     3  H    0.313587
     4  C   -0.145507
     5  H    0.139641
     6  H    0.136274
     7  C   -0.259128
     8  H    0.140242
     9  H    0.143952
    10  C   -0.161698
    11  H    0.164748
    12  H    0.141310
    13  N   -0.576889
    14  C    0.214070
    15  C   -0.160403
    16  H    0.140221
    17  C   -0.158533
    18  H    0.137725
    19  C   -0.132469
    20  H    0.135242
    21  C   -0.222992
    22  H    0.132678
    23  C    0.161565
    24  C   -0.356395
    25  H    0.142992
    26  H    0.164434
    27  C   -0.342802
    28  H    0.157565
    29  H    0.154501
    30  C    0.155240
    31  C   -0.210078
    32  H    0.128663
    33  C   -0.137002
    34  H    0.131646
    35  C   -0.157614
    36  H    0.135009
    37  C   -0.183779
    38  H    0.141533
    39  C    0.231293
 Sum of Mulliken charges =   0.00000

 Dipole moment (field-independent basis, Debye):
    X=             -0.6760    Y=             -0.5687    Z=              1.1244  Tot=              1.4299
 Quadrupole moment (field-independent basis, Debye-Ang):
   XX=           -108.3842   YY=           -116.9114   ZZ=           -102.7859
   XY=              0.0096   XZ=              0.9171   YZ=             -2.5208

 Normal termination of Gaussian 09 at Sun Jan 24 22:47:14 2021.
