 Gaussian 09, Revision D.01,

 -----------------
 #p b3lyp/6-31G(d)
 -----------------

 ----------------------------------------------
 SET_328_BBB272_conf1.geo_195_315_180.n.pdb.xyz
 ----------------------------------------------
 Symbolic Z-matrix:
 Charge =  0 Multiplicity = 1

 SCF Done:  E(RB3LYP) =  -648.689687883     A.U. after   15 cycles

 1\1\GINC-PIRINEUS35\SP\RB3LYP\6-31G(d)\C9H8O4\UBAFAR01\25-Jan-2021\0\\
 #p b3lyp/6-31G(d)\\SET_328_BBB272_conf1.geo_195_315_180.n.pdb.xyz\\0,1
 \C,0,-0.904,2.716,-1.94\H,0,0.055,3.234,-1.846\H,0,-1.594,3.164,-1.221
 \H,0,-1.283,2.838,-2.952\C,0,-0.725,1.255,-1.654\O,0,-0.795,0.345,-2.4
 35\O,0,-0.447,1.066,-0.302\C,0,-0.251,-0.231,0.189\C,0,0.913,-0.499,0.
 927\C,0,2.022,0.471,1.217\O,0,1.827,1.773,0.94\H,0,0.936,1.913,0.559\O
 ,0,3.073,0.112,1.708\C,0,1.068,-1.788,1.457\H,0,1.973,-1.985,2.019\C,0
 ,0.103,-2.769,1.271\H,0,0.245,-3.757,1.694\C,0,-1.051,-2.472,0.542\H,0

 Normal termination of Gaussian 09 at Mon Jan 25 16:23:38 2021.
 Gaussian 09:  AM64L-G09RevD.01 24-Apr-2013

 ----------------------------------------------------------------------
 #p b3lyp/6-31G(d) scrf=(iefpcm,read,solvent=n-Octanol) geom=allcheck g
 uess=read
 ----------------------------------------------------------------------

 Structure from the checkpoint file:  "SET_328_BBB272_conf1.geo_195_315_180.n.pdb.xyz.mst.n.o.chk"
 ----------------------------------------------
 SET_328_BBB272_conf1.geo_195_315_180.n.pdb.xyz
 ----------------------------------------------
 Charge =  0 Multiplicity = 1

                         Standard orientation:
 ---------------------------------------------------------------------
 Center     Atomic      Atomic             Coordinates (Angstroms)
 Number     Number       Type             X           Y           Z
 ---------------------------------------------------------------------
      1          6           0        3.557062    0.444845   -0.194564
      2          1           0        3.468029    1.489367    0.118308
      3          1           0        3.655752    0.432543   -1.282624
      4          1           0        4.436152    0.002583    0.268334
      5          6           0        2.339442   -0.320490    0.229726
      6          8           0        2.269278   -1.166796    1.079317
      7          8           0        1.236006    0.091503   -0.514316
      8          6           0       -0.012070   -0.502058   -0.286942
      9          6           0       -1.114031    0.330896   -0.035483
     10          6           0       -1.089012    1.829139    0.062101
     11          8           0        0.024054    2.480497   -0.321010
     12          1           0        0.706043    1.846145   -0.622889
     13          8           0       -2.048204    2.459945    0.457824
     14          6           0       -2.366131   -0.276617    0.136618
     15          1           0       -3.207797    0.375535    0.336553
     16          6           0       -2.521041   -1.654004    0.053010
     17          1           0       -3.500517   -2.099016    0.186530
     18          6           0       -1.409603   -2.458480   -0.209458
     19          1           0       -1.517082   -3.535569   -0.283492
     20          6           0       -0.152380   -1.882855   -0.380612
     21          1           0        0.716930   -2.495037   -0.581614
 ---------------------------------------------------------------------

 SCF Done:  E(RB3LYP) =  -648.709021422     A.U. after   11 cycles

 The electronic state is 1-A.
 Alpha  occ. eigenvalues --  -19.23152 -19.19331 -19.16834 -19.13696 -10.34909
 Alpha  occ. eigenvalues --  -10.32898 -10.27966 -10.22350 -10.21358 -10.21134
 Alpha  occ. eigenvalues --  -10.21090 -10.20990 -10.20576  -1.13483  -1.10231
 Alpha  occ. eigenvalues --   -1.05313  -1.01827  -0.87849  -0.79432  -0.77931
 Alpha  occ. eigenvalues --   -0.75117  -0.66534  -0.65209  -0.61905  -0.59529
 Alpha  occ. eigenvalues --   -0.54748  -0.51429  -0.51215  -0.50352  -0.48602
 Alpha  occ. eigenvalues --   -0.46866  -0.45281  -0.45024  -0.44166  -0.42939
 Alpha  occ. eigenvalues --   -0.42193  -0.40859  -0.40595  -0.38304  -0.37598
 Alpha  occ. eigenvalues --   -0.36491  -0.34079  -0.31833  -0.30373  -0.28325
 Alpha  occ. eigenvalues --   -0.27054  -0.26352
 Alpha virt. eigenvalues --   -0.05623  -0.02711  -0.00715   0.04861   0.07707
 Alpha virt. eigenvalues --    0.08848   0.12754   0.13753   0.15024   0.15521
 Alpha virt. eigenvalues --    0.15672   0.16885   0.17588   0.18881   0.21353

 Mulliken charges:
               1
     1  C   -0.538225
     2  H    0.207471
     3  H    0.204937
     4  H    0.202008
     5  C    0.609929
     6  O   -0.440325
     7  O   -0.570546
     8  C    0.309896
     9  C    0.015382
    10  C    0.567044
    11  O   -0.603786
    12  H    0.443156
    13  O   -0.486337
    14  C   -0.181637
    15  H    0.173791
    16  C   -0.127139
    17  H    0.159102
    18  C   -0.141209
    19  H    0.164385
    20  C   -0.136765
    21  H    0.168868
 Sum of Mulliken charges =   0.00000

 Dipole moment (field-independent basis, Debye):
    X=              3.3348    Y=             -3.8823    Z=             -2.5370  Tot=              5.7122
 Quadrupole moment (field-independent basis, Debye-Ang):
   XX=            -62.8632   YY=            -80.9788   ZZ=            -76.1151
   XY=             15.1118   XZ=             -3.3605   YZ=              1.2083

 1\1\GINC-PIRINEUS35\SP\RB3LYP\6-31G(d)\C9H8O4\UBAFAR01\25-Jan-2021\0\\
 #p b3lyp/6-31G(d) scrf=(iefpcm,read,solvent=n-Octanol) geom=allcheck g
 uess=read\\SET_328_BBB272_conf1.geo_195_315_180.n.pdb.xyz\\0,1\C,0,-0.
 904,2.716,-1.94\H,0,0.055,3.234,-1.846\H,0,-1.594,3.164,-1.221\H,0,-1.
 283,2.838,-2.952\C,0,-0.725,1.255,-1.654\O,0,-0.795,0.345,-2.435\O,0,-
 0.447,1.066,-0.302\C,0,-0.251,-0.231,0.189\C,0,0.913,-0.499,0.927\C,0,
 2.022,0.471,1.217\O,0,1.827,1.773,0.94\H,0,0.936,1.913,0.559\O,0,3.073
 ,0.112,1.708\C,0,1.068,-1.788,1.457\H,0,1.973,-1.985,2.019\C,0,0.103,-

 Normal termination of Gaussian 09 at Mon Jan 25 16:24:42 2021.
