 Gaussian 09, Revision D.01,

 -----------------
 #p b3lyp/6-31G(d)
 -----------------

 ----------------------------------------------
 SET_328_BBB321_conf1.geo_180_015_060.n.pdb.xyz
 ----------------------------------------------
 Symbolic Z-matrix:
 Charge =  0 Multiplicity = 1

 SCF Done:  E(RB3LYP) =  -1212.31423903     A.U. after   15 cycles
 Normal termination of Gaussian 09 at Sat Feb  6 18:53:27 2021.
 Gaussian 09:  AM64L-G09RevD.01 24-Apr-2013

 ----------------------------------------------------------------------
 #p b3lyp/6-31G(d) scrf=(iefpcm,read,solvent=n-Octanol) geom=allcheck g
 uess=read
 ----------------------------------------------------------------------

 Structure from the checkpoint file:  "SET_328_BBB321_conf1.geo_180_015_060.n.pdb.xyz.mst.n.o.chk"
 ----------------------------------------------
 SET_328_BBB321_conf1.geo_180_015_060.n.pdb.xyz
 ----------------------------------------------
 Charge =  0 Multiplicity = 1

                         Standard orientation:
 ---------------------------------------------------------------------
 Center     Atomic      Atomic             Coordinates (Angstroms)
 Number     Number       Type             X           Y           Z
 ---------------------------------------------------------------------
      1          6           0        4.534273    2.888406    0.012396
      2          1           0        4.170502    3.908435   -0.098553
      3          1           0        5.234676    2.664034   -0.796787
      4          1           0        5.079531    2.806808    0.957349
      5          6           0        3.343624    1.944609   -0.003549
      6          8           0        2.185610    2.349982    0.000189
      7          7           0        3.691675    0.616186   -0.009008
      8          1           0        4.686630    0.416929   -0.009434
      9          6           0        2.856820   -0.520035   -0.003730
     10          6           0        3.470621   -1.781074    0.008664
     11          6           0        2.683753   -2.931232    0.014023
     12          6           0        1.294788   -2.843904    0.009063
     13          1           0        0.697891   -3.749719    0.015262
     14          1           0        3.163399   -3.904751    0.023484
     15          1           0        4.554302   -1.860134    0.013366
     16          6           0        1.460568   -0.428668   -0.009463
     17          1           0        0.993635    0.541339   -0.018682
     18          6           0        0.672130   -1.587523   -0.002404
     19          6           0       -0.794924   -1.455282   -0.005596
     20          7           0       -1.359578   -0.190053   -0.018220
     21          6           0       -1.692072   -2.489170    0.005104
     22          1           0       -1.489823   -3.548990    0.011529
     23         16           0       -3.320797   -1.887811    0.001460
     24          6           0       -2.676747   -0.225910   -0.012389
     25          7           0       -3.582610    0.779081   -0.014511
     26          6           0       -3.189517    2.041717    0.000102
     27          7           0       -4.163448    2.994993    0.115821
     28          1           0       -5.102787    2.659776   -0.049151
     29          1           0       -3.971053    3.921427   -0.241440
     30          7           0       -1.911381    2.471069   -0.078618
     31          1           0       -1.193883    1.751282   -0.017817
     32          1           0       -1.677648    3.428161    0.144425
 ---------------------------------------------------------------------

 SCF Done:  E(RB3LYP) =  -1212.34488955     A.U. after   11 cycles

 The electronic state is 1-A.
 Alpha  occ. eigenvalues --  -88.89891 -19.12264 -14.37649 -14.35376 -14.35142
 Alpha  occ. eigenvalues --  -14.32075 -14.30796 -10.30576 -10.29824 -10.27282
 Alpha  occ. eigenvalues --  -10.23660 -10.22047 -10.20490 -10.19997 -10.19256
 Alpha  occ. eigenvalues --  -10.19157 -10.19140 -10.18590 -10.17888  -7.96067
 Alpha  occ. eigenvalues --   -5.92457  -5.92122  -5.91749  -1.04030  -0.99779
 Alpha  occ. eigenvalues --   -0.95305  -0.94210  -0.88209  -0.87511  -0.84904
 Alpha  occ. eigenvalues --   -0.78580  -0.77435  -0.75750  -0.72407  -0.70790
 Alpha  occ. eigenvalues --   -0.64327  -0.62936  -0.61579  -0.58451  -0.57971
 Alpha  occ. eigenvalues --   -0.56304  -0.54678  -0.52681  -0.51029  -0.49357
 Alpha  occ. eigenvalues --   -0.48486  -0.47764  -0.47152  -0.45482  -0.44807
 Alpha  occ. eigenvalues --   -0.43424  -0.43381  -0.41927  -0.41098  -0.40585
 Alpha  occ. eigenvalues --   -0.40177  -0.40007  -0.39060  -0.37472  -0.35937
 Alpha  occ. eigenvalues --   -0.35420  -0.34494  -0.31687  -0.29228  -0.28012
 Alpha  occ. eigenvalues --   -0.27691  -0.27306  -0.26828  -0.25456  -0.24231
 Alpha  occ. eigenvalues --   -0.22309  -0.19139
 Alpha virt. eigenvalues --   -0.03143  -0.00981  -0.00697   0.02782   0.03709
 Alpha virt. eigenvalues --    0.07458   0.07929   0.08267   0.09602   0.10437
 Alpha virt. eigenvalues --    0.11693   0.12756   0.13071   0.13671   0.14083

 Mulliken charges:
               1
     1  C   -0.550139
     2  H    0.184661
     3  H    0.180723
     4  H    0.187840
     5  C    0.590690
     6  O   -0.517988
     7  N   -0.709877
     8  H    0.357438
     9  C    0.351039
    10  C   -0.201069
    11  C   -0.151609
    12  C   -0.194706
    13  H    0.133867
    14  H    0.141871
    15  H    0.140332
    16  C   -0.239991
    17  H    0.199391
    18  C    0.101553
    19  C    0.288418
    20  N   -0.574015
    21  C   -0.428105
    22  H    0.182085
    23  S    0.194675
    24  C    0.300302
    25  N   -0.575720
    26  C    0.653851
    27  N   -0.760421
    28  H    0.363867
    29  H    0.361064
    30  N   -0.785142
    31  H    0.413329
    32  H    0.361785
 Sum of Mulliken charges =   0.00000

 Dipole moment (field-independent basis, Debye):
    X=              4.3484    Y=              3.7634    Z=             -0.3532  Tot=              5.7617
 Quadrupole moment (field-independent basis, Debye-Ang):
   XX=            -81.8292   YY=            -89.4454   ZZ=           -121.6386
   XY=            -14.7898   XZ=              3.2750   YZ=             -1.7583

 Normal termination of Gaussian 09 at Sat Feb  6 18:56:30 2021.
