 Gaussian 09, Revision D.01,

 -----------------
 #p b3lyp/6-31G(d)
 -----------------

 ----------------------------------------------
 SET_328_BBB321_conf1.geo_165_210_060.n.pdb.xyz
 ----------------------------------------------
 Symbolic Z-matrix:
 Charge =  0 Multiplicity = 1

 SCF Done:  E(RB3LYP) =  -1212.31323439     A.U. after   16 cycles
 Normal termination of Gaussian 09 at Thu Jan 28 04:44:08 2021.
 Gaussian 09:  AM64L-G09RevD.01 24-Apr-2013

 ----------------------------------------------------------------------
 #p b3lyp/6-31G(d) scrf=(iefpcm,read,solvent=n-Octanol) geom=allcheck g
 uess=read
 ----------------------------------------------------------------------

 Structure from the checkpoint file:  "SET_328_BBB321_conf1.geo_165_210_060.n.pdb.xyz.mst.n.o.chk"
 ----------------------------------------------
 SET_328_BBB321_conf1.geo_165_210_060.n.pdb.xyz
 ----------------------------------------------
 Charge =  0 Multiplicity = 1

                         Standard orientation:
 ---------------------------------------------------------------------
 Center     Atomic      Atomic             Coordinates (Angstroms)
 Number     Number       Type             X           Y           Z
 ---------------------------------------------------------------------
      1          6           0       -6.295322   -0.865792    0.281984
      2          1           0       -6.661295   -1.443971   -0.571785
      3          1           0       -6.799318    0.101933    0.293063
      4          1           0       -6.563254   -1.416713    1.186476
      5          6           0       -4.781555   -0.773372    0.196371
      6          8           0       -4.075876   -1.776708    0.233153
      7          7           0       -4.294314    0.504514    0.074292
      8          1           0       -4.984340    1.244221    0.053806
      9          6           0       -2.957312    0.938975   -0.040909
     10          6           0       -2.742521    2.319968   -0.171729
     11          6           0       -1.447771    2.811692   -0.282842
     12          6           0       -0.356509    1.946114   -0.268791
     13          1           0        0.653543    2.324521   -0.364031
     14          1           0       -1.290334    3.880001   -0.383089
     15          1           0       -3.589325    2.999211   -0.180425
     16          6           0       -1.866447    0.066832   -0.023152
     17          1           0       -2.051222   -0.989963    0.095098
     18          6           0       -0.558933    0.565172   -0.142220
     19          6           0        0.595697   -0.353537   -0.139941
     20          7           0        1.874096    0.166498   -0.013802
     21          6           0        0.532330   -1.715648   -0.264304
     22          1           0       -0.341907   -2.335261   -0.393697
     23         16           0        2.124464   -2.405854   -0.227175
     24          6           0        2.800837   -0.772015   -0.040292
     25          7           0        4.147038   -0.679766    0.053578
     26          6           0        4.734391    0.494013    0.206775
     27          7           0        4.099110    1.673995    0.377668
     28          1           0        4.602893    2.546083    0.291841
     29          1           0        3.088661    1.656117    0.256487
     30          7           0        6.101608    0.517910    0.178858
     31          1           0        6.577587    1.273555    0.652446
     32          1           0        6.539804   -0.388876    0.273519
 ---------------------------------------------------------------------

 SCF Done:  E(RB3LYP) =  -1212.34496332     A.U. after   12 cycles

 The electronic state is 1-A.
 Alpha  occ. eigenvalues --  -88.89928 -19.12074 -14.37884 -14.35467 -14.35305
 Alpha  occ. eigenvalues --  -14.32225 -14.30869 -10.30673 -10.29856 -10.27335
 Alpha  occ. eigenvalues --  -10.23792 -10.22091 -10.20473 -10.20111 -10.19260
 Alpha  occ. eigenvalues --  -10.19253 -10.19202 -10.18386 -10.18366  -7.96111
 Alpha  occ. eigenvalues --   -5.92500  -5.92165  -5.91794  -1.03981  -0.99900
 Alpha  occ. eigenvalues --   -0.95374  -0.94350  -0.88331  -0.87610  -0.84994
 Alpha  occ. eigenvalues --   -0.78643  -0.77410  -0.75915  -0.72368  -0.70931
 Alpha  occ. eigenvalues --   -0.64270  -0.63607  -0.61195  -0.58472  -0.58010
 Alpha  occ. eigenvalues --   -0.56587  -0.54907  -0.52734  -0.51226  -0.49370
 Alpha  occ. eigenvalues --   -0.48330  -0.48166  -0.47263  -0.45392  -0.44627
 Alpha  occ. eigenvalues --   -0.43686  -0.43289  -0.42512  -0.40829  -0.40669
 Alpha  occ. eigenvalues --   -0.40266  -0.39961  -0.39106  -0.37341  -0.36251
 Alpha  occ. eigenvalues --   -0.35821  -0.34074  -0.31539  -0.29350  -0.28033
 Alpha  occ. eigenvalues --   -0.27711  -0.27402  -0.26895  -0.25571  -0.24653
 Alpha  occ. eigenvalues --   -0.22215  -0.19265
 Alpha virt. eigenvalues --   -0.03094  -0.01543  -0.00502   0.02821   0.04015
 Alpha virt. eigenvalues --    0.07250   0.07555   0.08047   0.10003   0.10437
 Alpha virt. eigenvalues --    0.11336   0.12627   0.12921   0.13730   0.14159

 Mulliken charges:
               1
     1  C   -0.543928
     2  H    0.191979
     3  H    0.164331
     4  H    0.191283
     5  C    0.601790
     6  O   -0.524177
     7  N   -0.714802
     8  H    0.356732
     9  C    0.347492
    10  C   -0.202547
    11  C   -0.147212
    12  C   -0.183099
    13  H    0.144454
    14  H    0.141513
    15  H    0.141516
    16  C   -0.242226
    17  H    0.179595
    18  C    0.101603
    19  C    0.281744
    20  N   -0.574327
    21  C   -0.423991
    22  H    0.186934
    23  S    0.198279
    24  C    0.300954
    25  N   -0.574829
    26  C    0.655671
    27  N   -0.779782
    28  H    0.362433
    29  H    0.397706
    30  N   -0.760740
    31  H    0.361280
    32  H    0.364372
 Sum of Mulliken charges =   0.00000

 Dipole moment (field-independent basis, Debye):
    X=              0.8177    Y=              7.0992    Z=              0.9025  Tot=              7.2029
 Quadrupole moment (field-independent basis, Debye-Ang):
   XX=            -49.8131   YY=           -109.0759   ZZ=           -120.8600
   XY=              6.1669   XZ=              8.0080   YZ=              1.4463

 Normal termination of Gaussian 09 at Thu Jan 28 04:47:29 2021.
