 Gaussian 09, Revision D.01,

 -----------------
 #p b3lyp/6-31G(d)
 -----------------

 ----------------------------------------------
 SET_328_BBB321_conf1.geo_180_345_240.n.pdb.xyz
 ----------------------------------------------
 Symbolic Z-matrix:
 Charge =  0 Multiplicity = 1

 SCF Done:  E(RB3LYP) =  -1212.31354179     A.U. after   15 cycles
 Normal termination of Gaussian 09 at Thu Jan 28 04:51:53 2021.
 Gaussian 09:  AM64L-G09RevD.01 24-Apr-2013

 ----------------------------------------------------------------------
 #p b3lyp/6-31G(d) scrf=(iefpcm,read,solvent=n-Octanol) geom=allcheck g
 uess=read
 ----------------------------------------------------------------------

 Structure from the checkpoint file:  "SET_328_BBB321_conf1.geo_180_345_240.n.pdb.xyz.mst.n.o.chk"
 ----------------------------------------------
 SET_328_BBB321_conf1.geo_180_345_240.n.pdb.xyz
 ----------------------------------------------
 Charge =  0 Multiplicity = 1

                         Standard orientation:
 ---------------------------------------------------------------------
 Center     Atomic      Atomic             Coordinates (Angstroms)
 Number     Number       Type             X           Y           Z
 ---------------------------------------------------------------------
      1          6           0        5.028205    2.706803    0.430144
      2          1           0        5.486086    3.126876   -0.470502
      3          1           0        5.784311    2.720877    1.217238
      4          1           0        4.193023    3.342399    0.727556
      5          6           0        4.638120    1.266199    0.154365
      6          8           0        5.483200    0.413354   -0.102666
      7          7           0        3.289573    1.018422    0.208449
      8          1           0        2.697443    1.809846    0.430750
      9          6           0        2.603844   -0.194793   -0.005069
     10          6           0        3.255031   -1.399299   -0.305294
     11          6           0        2.488631   -2.549539   -0.496804
     12          6           0        1.102361   -2.522759   -0.395752
     13          1           0        0.525095   -3.424061   -0.570099
     14          1           0        2.989687   -3.480601   -0.737881
     15          1           0        4.331015   -1.413228   -0.386819
     16          6           0        1.208052   -0.166435    0.100866
     17          1           0        0.698137    0.760456    0.341583
     18          6           0        0.444753   -1.321575   -0.087930
     19          6           0       -1.020411   -1.268256    0.046892
     20          7           0       -1.670033   -0.047151   -0.028069
     21          6           0       -1.831134   -2.347886    0.272178
     22          1           0       -1.543006   -3.379611    0.403468
     23         16           0       -3.489483   -1.849454    0.392031
     24          6           0       -2.976041   -0.166669    0.126460
     25          7           0       -3.951235    0.769449    0.109247
     26          6           0       -3.677639    2.027386   -0.187436
     27          7           0       -2.443291    2.536090   -0.410299
     28          1           0       -2.342666    3.428831   -0.874759
     29          1           0       -1.690402    1.853999   -0.466325
     30          7           0       -4.735016    2.888006   -0.296447
     31          1           0       -5.606412    2.533719    0.072825
     32          1           0       -4.568802    3.872150   -0.134091
 ---------------------------------------------------------------------

 SCF Done:  E(RB3LYP) =  -1212.34454320     A.U. after   11 cycles

 The electronic state is 1-A.
 Alpha  occ. eigenvalues --  -88.90125 -19.12111 -14.38039 -14.35598 -14.35457
 Alpha  occ. eigenvalues --  -14.32473 -14.31094 -10.30843 -10.29922 -10.27562
 Alpha  occ. eigenvalues --  -10.23831 -10.22306 -10.20700 -10.20333 -10.19319
 Alpha  occ. eigenvalues --  -10.19113 -10.19112 -10.18705 -10.18386  -7.96306
 Alpha  occ. eigenvalues --   -5.92696  -5.92360  -5.91988  -1.04025  -1.00047
 Alpha  occ. eigenvalues --   -0.95570  -0.94452  -0.88471  -0.87827  -0.85112
 Alpha  occ. eigenvalues --   -0.78844  -0.77501  -0.75982  -0.72725  -0.70859
 Alpha  occ. eigenvalues --   -0.64472  -0.63414  -0.61297  -0.59427  -0.58260
 Alpha  occ. eigenvalues --   -0.55986  -0.54942  -0.52940  -0.51288  -0.49557
 Alpha  occ. eigenvalues --   -0.48664  -0.48058  -0.47350  -0.45493  -0.44770
 Alpha  occ. eigenvalues --   -0.43908  -0.43491  -0.42485  -0.41083  -0.40698
 Alpha  occ. eigenvalues --   -0.40349  -0.40288  -0.39255  -0.37537  -0.35919
 Alpha  occ. eigenvalues --   -0.35445  -0.34727  -0.31499  -0.29438  -0.28230
 Alpha  occ. eigenvalues --   -0.28015  -0.27540  -0.27181  -0.25626  -0.24545
 Alpha  occ. eigenvalues --   -0.22492  -0.19463
 Alpha virt. eigenvalues --   -0.03186  -0.01152  -0.01116   0.02652   0.03574
 Alpha virt. eigenvalues --    0.07136   0.07198   0.08149   0.09659   0.10183
 Alpha virt. eigenvalues --    0.11569   0.12789   0.12961   0.13331   0.14039

 Mulliken charges:
               1
     1  C   -0.543517
     2  H    0.192772
     3  H    0.191838
     4  H    0.162790
     5  C    0.602260
     6  O   -0.525408
     7  N   -0.709210
     8  H    0.348827
     9  C    0.356583
    10  C   -0.172657
    11  C   -0.159755
    12  C   -0.188819
    13  H    0.136246
    14  H    0.142089
    15  H    0.176138
    16  C   -0.263449
    17  H    0.146067
    18  C    0.110764
    19  C    0.275050
    20  N   -0.567378
    21  C   -0.420134
    22  H    0.183181
    23  S    0.200699
    24  C    0.299167
    25  N   -0.571174
    26  C    0.651229
    27  N   -0.773526
    28  H    0.362672
    29  H    0.388688
    30  N   -0.759105
    31  H    0.365088
    32  H    0.361981
 Sum of Mulliken charges =   0.00000

 Dipole moment (field-independent basis, Debye):
    X=             -3.1707    Y=              7.7702    Z=              0.1893  Tot=              8.3943
 Quadrupole moment (field-independent basis, Debye-Ang):
   XX=           -130.4363   YY=            -78.9265   ZZ=           -119.9557
   XY=            -10.4128   XZ=              2.6767   YZ=              0.3992

 Normal termination of Gaussian 09 at Thu Jan 28 04:55:01 2021.
