 Gaussian 09, Revision D.01,

 -----------------
 #p b3lyp/6-31G(d)
 -----------------

 ----------------------------------------------
 SET_328_BBB321_conf1.geo_030_210_300.n.pdb.xyz
 ----------------------------------------------
 Symbolic Z-matrix:
 Charge =  0 Multiplicity = 1

 SCF Done:  E(RB3LYP) =  -1212.29965937     A.U. after   16 cycles
 Normal termination of Gaussian 09 at Thu Jan 28 04:43:40 2021.
 Gaussian 09:  AM64L-G09RevD.01 24-Apr-2013

 ----------------------------------------------------------------------
 #p b3lyp/6-31G(d) scrf=(iefpcm,read,solvent=n-Octanol) geom=allcheck g
 uess=read
 ----------------------------------------------------------------------

 Structure from the checkpoint file:  "SET_328_BBB321_conf1.geo_030_210_300.n.pdb.xyz.mst.n.o.chk"
 ----------------------------------------------
 SET_328_BBB321_conf1.geo_030_210_300.n.pdb.xyz
 ----------------------------------------------
 Charge =  0 Multiplicity = 1

                         Standard orientation:
 ---------------------------------------------------------------------
 Center     Atomic      Atomic             Coordinates (Angstroms)
 Number     Number       Type             X           Y           Z
 ---------------------------------------------------------------------
      1          6           0        6.223633   -1.541010    0.060009
      2          1           0        6.869679   -0.709743    0.351757
      3          1           0        6.514093   -1.870480   -0.943009
      4          1           0        6.386960   -2.377668    0.739596
      5          6           0        4.745772   -1.196299    0.058331
      6          8           0        3.882236   -2.067810    0.010918
      7          7           0        4.477184    0.150492    0.087742
      8          1           0        5.278485    0.763544    0.127769
      9          6           0        3.229063    0.808281    0.056203
     10          6           0        3.243406    2.213288    0.101680
     11          6           0        2.044849    2.919960    0.076374
     12          6           0        0.825101    2.248256    0.006972
     13          1           0       -0.115236    2.784676   -0.012376
     14          1           0        2.064184    4.004567    0.112202
     15          1           0        4.189276    2.742999    0.155759
     16          6           0        2.007689    0.129246   -0.012411
     17          1           0        2.016908   -0.950107   -0.041988
     18          6           0        0.801447    0.846815   -0.039764
     19          6           0       -0.492721    0.140717   -0.116904
     20          7           0       -1.658491    0.878817   -0.086755
     21          6           0       -0.652066   -1.215806   -0.221142
     22          1           0        0.108881   -1.977307   -0.267261
     23         16           0       -2.332251   -1.629321   -0.288977
     24          6           0       -2.735819    0.139060   -0.152816
     25          7           0       -3.985004    0.660767   -0.216459
     26          6           0       -5.080809    0.043637    0.138843
     27          7           0       -6.264144    0.706677   -0.037680
     28          1           0       -6.214467    1.506388   -0.654560
     29          1           0       -7.115618    0.165172   -0.104459
     30          7           0       -5.180777   -1.207017    0.686626
     31          1           0       -6.045992   -1.437106    1.161334
     32          1           0       -4.357687   -1.578328    1.144941
 ---------------------------------------------------------------------

 SCF Done:  E(RB3LYP) =  -1212.33439545     A.U. after   12 cycles

 The electronic state is 1-A.
 Alpha  occ. eigenvalues --  -88.90073 -19.12066 -14.37779 -14.36560 -14.35852
 Alpha  occ. eigenvalues --  -14.31576 -14.31513 -10.31367 -10.29811 -10.27506
 Alpha  occ. eigenvalues --  -10.23705 -10.21868 -10.20490 -10.19863 -10.19211
 Alpha  occ. eigenvalues --  -10.19141 -10.19054 -10.18282 -10.18023  -7.96252
 Alpha  occ. eigenvalues --   -5.92634  -5.92302  -5.91945  -1.03918  -1.00204
 Alpha  occ. eigenvalues --   -0.95494  -0.94255  -0.88979  -0.88067  -0.84812
 Alpha  occ. eigenvalues --   -0.78617  -0.77326  -0.75751  -0.72301  -0.70784
 Alpha  occ. eigenvalues --   -0.64507  -0.63616  -0.61106  -0.59784  -0.57126
 Alpha  occ. eigenvalues --   -0.56592  -0.54629  -0.52558  -0.51585  -0.48971
 Alpha  occ. eigenvalues --   -0.48252  -0.48182  -0.47921  -0.45369  -0.44413
 Alpha  occ. eigenvalues --   -0.43663  -0.43090  -0.42877  -0.41381  -0.40663
 Alpha  occ. eigenvalues --   -0.40351  -0.40147  -0.39240  -0.37231  -0.35949
 Alpha  occ. eigenvalues --   -0.35723  -0.33976  -0.31555  -0.29767  -0.28425
 Alpha  occ. eigenvalues --   -0.27826  -0.27421  -0.25832  -0.25520  -0.24410
 Alpha  occ. eigenvalues --   -0.22033  -0.19501
 Alpha virt. eigenvalues --   -0.03307  -0.01501  -0.00460   0.02231   0.04057
 Alpha virt. eigenvalues --    0.06392   0.07321   0.07780   0.09702   0.10584
 Alpha virt. eigenvalues --    0.11648   0.12860   0.13088   0.13678   0.13836

 Mulliken charges:
               1
     1  C   -0.544548
     2  H    0.165535
     3  H    0.193523
     4  H    0.188974
     5  C    0.599880
     6  O   -0.524036
     7  N   -0.712706
     8  H    0.356320
     9  C    0.344532
    10  C   -0.203000
    11  C   -0.144698
    12  C   -0.185740
    13  H    0.150445
    14  H    0.140834
    15  H    0.140584
    16  C   -0.245248
    17  H    0.178186
    18  C    0.095919
    19  C    0.275641
    20  N   -0.506022
    21  C   -0.414713
    22  H    0.188457
    23  S    0.159408
    24  C    0.244070
    25  N   -0.535661
    26  C    0.645704
    27  N   -0.755057
    28  H    0.367062
    29  H    0.365057
    30  N   -0.763789
    31  H    0.370590
    32  H    0.364497
 Sum of Mulliken charges =   0.00000

 Dipole moment (field-independent basis, Debye):
    X=             -3.0603    Y=             -0.1543    Z=              1.4163  Tot=              3.3757
 Quadrupole moment (field-independent basis, Debye-Ang):
   XX=            -21.6784   YY=           -117.4542   ZZ=           -117.6144
   XY=             18.3091   XZ=             -4.5341   YZ=             -4.2685

 Normal termination of Gaussian 09 at Thu Jan 28 04:46:44 2021.
