 Gaussian 09, Revision D.01,

 -----------------
 #p b3lyp/6-31G(d)
 -----------------

 ---------------------------------------------
 SET_328_BBB30_conf1.geo_285_180_195.n.pdb.xyz
 ---------------------------------------------
 Symbolic Z-matrix:
 Charge =  0 Multiplicity = 1

 SCF Done:  E(RB3LYP) =  -444.843231797     A.U. after   14 cycles
 Normal termination of Gaussian 09 at Sun Jan 24 23:15:47 2021.
 Gaussian 09:  AM64L-G09RevD.01 24-Apr-2013

 ----------------------------------------------------------------------
 #p b3lyp/6-31G(d) scrf=(iefpcm,read,solvent=n-Octanol) geom=allcheck g
 uess=read
 ----------------------------------------------------------------------

 Structure from the checkpoint file:  "SET_328_BBB30_conf1.geo_285_180_195.n.pdb.xyz.mst.n.o.chk"
 ---------------------------------------------
 SET_328_BBB30_conf1.geo_285_180_195.n.pdb.xyz
 ---------------------------------------------
 Charge =  0 Multiplicity = 1

                         Standard orientation:
 ---------------------------------------------------------------------
 Center     Atomic      Atomic             Coordinates (Angstroms)
 Number     Number       Type             X           Y           Z
 ---------------------------------------------------------------------
      1          6           0       -4.042328   -0.465649   -0.368137
      2          1           0       -3.832151   -1.372405   -0.962097
      3          1           0       -4.231794    0.350984   -1.070283
      4          1           0       -4.961729   -0.633153    0.198681
      5          7           0       -2.968558   -0.101859    0.551104
      6          1           0       -2.929086   -0.806924    1.280728
      7          6           0       -1.651819   -0.035068   -0.089195
      8          6           0       -1.572702    1.169083   -1.025377
      9          1           0       -2.325221    1.105271   -1.816016
     10          1           0       -0.590278    1.223966   -1.500120
     11          1           0       -1.744488    2.095143   -0.466036
     12          1           0       -1.462629   -0.944434   -0.690206
     13          6           0       -0.580567    0.026424    1.015949
     14          1           0       -0.761703   -0.807428    1.706446
     15          1           0       -0.728934    0.949063    1.587972
     16          6           0        0.842853   -0.045182    0.512541
     17          6           0        1.380293   -1.252028    0.040250
     18          1           0        0.768489   -2.149771    0.048943
     19          6           0        2.690864   -1.315388   -0.432402
     20          1           0        3.090084   -2.259180   -0.791066
     21          6           0        3.491974   -0.171169   -0.438734
     22          1           0        4.513039   -0.220888   -0.803704
     23          6           0        2.970773    1.034377    0.032787
     24          1           0        3.585491    1.929118    0.037379
     25          6           0        1.659348    1.092009    0.503579
     26          1           0        1.258683    2.029202    0.874091
 ---------------------------------------------------------------------

 SCF Done:  E(RB3LYP) =  -444.855645817     A.U. after   10 cycles

 The electronic state is 1-A.
 Alpha  occ. eigenvalues --  -14.31200 -10.20967 -10.19602 -10.19417 -10.18845
 Alpha  occ. eigenvalues --  -10.18800 -10.18694 -10.18616 -10.18534 -10.18360
 Alpha  occ. eigenvalues --  -10.16685  -0.90074  -0.85281  -0.78243  -0.74162
 Alpha  occ. eigenvalues --   -0.73427  -0.68453  -0.65413  -0.60344  -0.58612
 Alpha  occ. eigenvalues --   -0.56240  -0.50947  -0.48898  -0.46286  -0.45799
 Alpha  occ. eigenvalues --   -0.44197  -0.43583  -0.41704  -0.40689  -0.39298
 Alpha  occ. eigenvalues --   -0.38728  -0.38036  -0.36344  -0.35347  -0.34453
 Alpha  occ. eigenvalues --   -0.33434  -0.33201  -0.32270  -0.24913  -0.24046
 Alpha  occ. eigenvalues --   -0.22024
 Alpha virt. eigenvalues --   -0.00149   0.00159   0.08688   0.09772   0.11963
 Alpha virt. eigenvalues --    0.12147   0.13743   0.14804   0.15419   0.16278
 Alpha virt. eigenvalues --    0.16741   0.17169   0.17548   0.18057   0.19157

 Mulliken charges:
               1
     1  C   -0.310321
     2  H    0.123146
     3  H    0.155506
     4  H    0.149711
     5  N   -0.562366
     6  H    0.306918
     7  C    0.066283
     8  C   -0.449492
     9  H    0.146852
    10  H    0.151406
    11  H    0.144189
    12  H    0.106931
    13  C   -0.367789
    14  H    0.143165
    15  H    0.149424
    16  C    0.170180
    17  C   -0.188009
    18  H    0.132412
    19  C   -0.139997
    20  H    0.137486
    21  C   -0.142596
    22  H    0.137056
    23  C   -0.138501
    24  H    0.137625
    25  C   -0.192179
    26  H    0.132959
 Sum of Mulliken charges =   0.00000

 Dipole moment (field-independent basis, Debye):
    X=             -0.0397    Y=             -1.1460    Z=             -0.1564  Tot=              1.1573
 Quadrupole moment (field-independent basis, Debye-Ang):
   XX=            -64.4585   YY=            -63.8427   ZZ=            -69.1217
   XY=              4.2972   XZ=             -1.1440   YZ=             -0.3674

 Normal termination of Gaussian 09 at Sun Jan 24 23:16:50 2021.
