 Gaussian 09, Revision D.01,

 -----------------
 #p b3lyp/6-31G(d)
 -----------------

 ----------------------------------------------
 SET_328_BBB268_conf1.geo_225_240_255.n.pdb.xyz
 ----------------------------------------------
 Symbolic Z-matrix:
 Charge =  0 Multiplicity = 1

 SCF Done:  E(RB3LYP) =  -976.181230211     A.U. after   15 cycles
 Normal termination of Gaussian 09 at Sun Jan 24 23:14:31 2021.
 Gaussian 09:  AM64L-G09RevD.01 24-Apr-2013

 ----------------------------------------------------------------------
 #p b3lyp/6-31G(d) scrf=(iefpcm,read,solvent=n-Octanol) geom=allcheck g
 uess=read
 ----------------------------------------------------------------------

 Structure from the checkpoint file:  "SET_328_BBB268_conf1.geo_225_240_255.n.pdb.xyz.mst.n.o.chk"
 ----------------------------------------------
 SET_328_BBB268_conf1.geo_225_240_255.n.pdb.xyz
 ----------------------------------------------
 Charge =  0 Multiplicity = 1

                         Standard orientation:
 ---------------------------------------------------------------------
 Center     Atomic      Atomic             Coordinates (Angstroms)
 Number     Number       Type             X           Y           Z
 ---------------------------------------------------------------------
      1          6           0        1.550075    3.892708    1.317042
      2          1           0        2.494930    4.018855    0.794080
      3          1           0        1.736503    3.595143    2.354016
      4          1           0        1.000777    4.840342    1.322956
      5          7           0        0.779472    2.863943    0.632166
      6          6           0       -0.521281    2.569502    1.211184
      7          1           0       -1.188752    3.435857    1.129469
      8          1           0       -0.405572    2.328515    2.272548
      9          1           0       -0.984477    1.717697    0.721684
     10          6           0        1.285354    2.294327   -0.494751
     11          8           0        2.393021    2.600926   -0.949687
     12          6           0        0.448470    1.223773   -1.214475
     13          1           0        0.886310    1.165005   -2.215792
     14          1           0       -0.580856    1.560552   -1.339748
     15          6           0        0.437774   -0.121464   -0.560236
     16          6           0       -0.583057   -0.955360   -0.100941
     17          6           0       -2.040342   -0.748062   -0.139644
     18          6           0       -2.691512   -0.029932   -1.156714
     19          6           0       -4.073932    0.129413   -1.144890
     20          6           0       -4.861495   -0.427519   -0.129164
     21          6           0       -6.356770   -0.246770   -0.113932
     22          1           0       -6.632583    0.800598    0.059658
     23          1           0       -6.814004   -0.845544    0.676437
     24          1           0       -6.807659   -0.541994   -1.066702
     25          6           0       -4.212307   -1.162213    0.871422
     26          6           0       -2.830530   -1.321011    0.867740
     27          1           0       -2.337048   -1.898268    1.640945
     28          1           0       -4.804536   -1.612564    1.662771
     29          1           0       -4.551591    0.683159   -1.948060
     30          1           0       -2.120847    0.377339   -1.983716
     31          7           0       -0.079969   -2.095281    0.469262
     32          6           0        1.241890   -2.002543    0.355011
     33          6           0        2.270345   -2.890598    0.741685
     34          1           0        1.992853   -3.816650    1.228887
     35          6           0        3.578082   -2.563137    0.489062
     36          1           0        4.371527   -3.243688    0.781451
     37          6           0        3.923868   -1.336071   -0.155220
     38          6           0        5.362687   -0.983208   -0.424137
     39          1           0        5.943919   -0.945531    0.503795
     40          1           0        5.440510   -0.009412   -0.911764
     41          1           0        5.839250   -1.725806   -1.073774
     42          6           0        2.925236   -0.476610   -0.522633
     43          1           0        3.094012    0.487037   -0.986308
     44          7           0        1.610186   -0.804292   -0.273397
 ---------------------------------------------------------------------

 SCF Done:  E(RB3LYP) =  -976.200767614     A.U. after   11 cycles

 The electronic state is 1-A.
 Alpha  occ. eigenvalues --  -19.11587 -14.41135 -14.37303 -14.30960 -10.29239
 Alpha  occ. eigenvalues --  -10.24725 -10.22791 -10.22504 -10.22077 -10.21660
 Alpha  occ. eigenvalues --  -10.21263 -10.20954 -10.20529 -10.20043 -10.19922
 Alpha  occ. eigenvalues --  -10.19793 -10.19726 -10.19154 -10.18724 -10.18662
 Alpha  occ. eigenvalues --  -10.18622 -10.18537 -10.18172  -1.03688  -1.02881
 Alpha  occ. eigenvalues --   -0.93798  -0.90632  -0.85687  -0.84042  -0.79690
 Alpha  occ. eigenvalues --   -0.77493  -0.76692  -0.74367  -0.72820  -0.71810
 Alpha  occ. eigenvalues --   -0.70706  -0.68924  -0.67553  -0.62606  -0.61867
 Alpha  occ. eigenvalues --   -0.60791  -0.59307  -0.56594  -0.54889  -0.52649
 Alpha  occ. eigenvalues --   -0.50705  -0.49440  -0.49193  -0.48126  -0.47641
 Alpha  occ. eigenvalues --   -0.46417  -0.46248  -0.46105  -0.44986  -0.44569
 Alpha  occ. eigenvalues --   -0.43092  -0.42024  -0.41891  -0.41770  -0.40922
 Alpha  occ. eigenvalues --   -0.40878  -0.40507  -0.40472  -0.40004  -0.39188
 Alpha  occ. eigenvalues --   -0.38473  -0.38181  -0.37616  -0.37142  -0.36043
 Alpha  occ. eigenvalues --   -0.35051  -0.34435  -0.33690  -0.32789  -0.31473
 Alpha  occ. eigenvalues --   -0.27740  -0.26275  -0.25493  -0.25084  -0.24549
 Alpha  occ. eigenvalues --   -0.21783  -0.20235
 Alpha virt. eigenvalues --   -0.03535  -0.01322  -0.00278   0.01437   0.01805
 Alpha virt. eigenvalues --    0.07963   0.09257   0.10210   0.10791   0.11912
 Alpha virt. eigenvalues --    0.12173   0.12784   0.13447   0.13474   0.14129

 Mulliken charges:
               1
     1  C   -0.326117
     2  H    0.195909
     3  H    0.165077
     4  H    0.165174
     5  N   -0.394471
     6  C   -0.329648
     7  H    0.168804
     8  H    0.171958
     9  H    0.187255
    10  C    0.599870
    11  O   -0.552172
    12  C   -0.452957
    13  H    0.187638
    14  H    0.181898
    15  C    0.302432
    16  C    0.095677
    17  C    0.083771
    18  C   -0.196959
    19  C   -0.193292
    20  C    0.177988
    21  C   -0.534290
    22  H    0.167258
    23  H    0.161030
    24  H    0.166281
    25  C   -0.198030
    26  C   -0.166605
    27  H    0.147543
    28  H    0.132793
    29  H    0.133277
    30  H    0.145292
    31  N   -0.592378
    32  C    0.530093
    33  C   -0.197601
    34  H    0.157201
    35  C   -0.158005
    36  H    0.146894
    37  C    0.104183
    38  C   -0.531921
    39  H    0.169337
    40  H    0.167746
    41  H    0.169538
    42  C   -0.007202
    43  H    0.209187
    44  N   -0.559456
 Sum of Mulliken charges =   0.00000

 Dipole moment (field-independent basis, Debye):
    X=             -0.7500    Y=              2.3591    Z=              1.3123  Tot=              2.8018
 Quadrupole moment (field-independent basis, Debye-Ang):
   XX=           -117.1848   YY=           -133.5525   ZZ=           -130.9326
   XY=            -14.1108   XZ=              4.5250   YZ=              4.2615

 Normal termination of Gaussian 09 at Sun Jan 24 23:20:24 2021.
