 Gaussian 09, Revision D.01,

 -----------------
 #p b3lyp/6-31G(d)
 -----------------

 ----------------------------------------------
 SET_328_BBB268_conf1.geo_075_060_300.n.pdb.xyz
 ----------------------------------------------
 Symbolic Z-matrix:
 Charge =  0 Multiplicity = 1

 SCF Done:  E(RB3LYP) =  -976.181112108     A.U. after   15 cycles
 Normal termination of Gaussian 09 at Sun Jan 24 23:14:46 2021.
 Gaussian 09:  AM64L-G09RevD.01 24-Apr-2013

 ----------------------------------------------------------------------
 #p b3lyp/6-31G(d) scrf=(iefpcm,read,solvent=n-Octanol) geom=allcheck g
 uess=read
 ----------------------------------------------------------------------

 Structure from the checkpoint file:  "SET_328_BBB268_conf1.geo_075_060_300.n.pdb.xyz.mst.n.o.chk"
 ----------------------------------------------
 SET_328_BBB268_conf1.geo_075_060_300.n.pdb.xyz
 ----------------------------------------------
 Charge =  0 Multiplicity = 1

                         Standard orientation:
 ---------------------------------------------------------------------
 Center     Atomic      Atomic             Coordinates (Angstroms)
 Number     Number       Type             X           Y           Z
 ---------------------------------------------------------------------
      1          6           0       -1.529048    3.881266    1.338990
      2          1           0       -1.685722    3.588244    2.381510
      3          1           0       -2.487194    4.004929    0.840636
      4          1           0       -0.981800    4.831591    1.325361
      5          7           0       -0.774612    2.851625    0.640870
      6          6           0        0.525335    2.538548    1.209308
      7          1           0        0.413619    2.310568    2.272861
      8          1           0        1.205919    3.392266    1.113233
      9          1           0        0.966095    1.675451    0.722757
     10          6           0       -1.285296    2.302560   -0.493431
     11          8           0       -2.386785    2.628201   -0.949021
     12          6           0       -0.455591    1.229739   -1.219246
     13          1           0        0.572791    1.565687   -1.345739
     14          1           0       -0.896655    1.173637   -2.219323
     15          6           0       -0.442601   -0.116491   -0.566377
     16          6           0        0.580526   -0.950259   -0.108821
     17          6           0        2.037925   -0.743826   -0.145501
     18          6           0        2.825507   -1.338873    0.852391
     19          6           0        4.208917   -1.183261    0.859160
     20          6           0        4.860136   -0.431658   -0.127472
     21          6           0        6.356659   -0.252335   -0.106799
     22          1           0        6.817624   -0.881757    0.658022
     23          1           0        6.634085    0.787159    0.105834
     24          1           0        6.805464   -0.510330   -1.071138
     25          6           0        4.075338    0.146176   -1.134474
     26          6           0        2.691379   -0.009839   -1.149760
     27          1           0        2.122273    0.414326   -1.968589
     28          1           0        4.555465    0.712637   -1.927086
     29          1           0        4.799169   -1.650436    1.643321
     30          1           0        2.326950   -1.928859    1.611374
     31          7           0        0.077132   -2.090321    0.461751
     32          6           0       -1.243528   -1.996634    0.349676
     33          6           0       -2.269544   -2.886651    0.738001
     34          1           0       -1.988464   -3.812580    1.224331
     35          6           0       -3.579065   -2.560475    0.487988
     36          1           0       -4.371205   -3.240036    0.782844
     37          6           0       -3.926216   -1.333075   -0.154415
     38          6           0       -5.367986   -0.986321   -0.418726
     39          1           0       -5.842952   -1.732576   -1.063190
     40          1           0       -5.454524   -0.014013   -0.907565
     41          1           0       -5.944184   -0.950027    0.512292
     42          6           0       -2.928891   -0.471736   -0.525095
     43          1           0       -3.098632    0.491710   -0.989019
     44          7           0       -1.613602   -0.800496   -0.277326
 ---------------------------------------------------------------------

 SCF Done:  E(RB3LYP) =  -976.200650138     A.U. after   11 cycles

 The electronic state is 1-A.
 Alpha  occ. eigenvalues --  -19.11591 -14.41161 -14.37276 -14.30959 -10.29223
 Alpha  occ. eigenvalues --  -10.24721 -10.22864 -10.22524 -10.22015 -10.21688
 Alpha  occ. eigenvalues --  -10.21281 -10.20946 -10.20574 -10.20065 -10.19936
 Alpha  occ. eigenvalues --  -10.19808 -10.19752 -10.19171 -10.18753 -10.18665
 Alpha  occ. eigenvalues --  -10.18649 -10.18545 -10.18181  -1.03696  -1.02942
 Alpha  occ. eigenvalues --   -0.93859  -0.90667  -0.85663  -0.84053  -0.79704
 Alpha  occ. eigenvalues --   -0.77500  -0.76684  -0.74348  -0.72842  -0.71836
 Alpha  occ. eigenvalues --   -0.70724  -0.68944  -0.67563  -0.62627  -0.61891
 Alpha  occ. eigenvalues --   -0.60820  -0.59305  -0.56592  -0.54906  -0.52674
 Alpha  occ. eigenvalues --   -0.50702  -0.49454  -0.49206  -0.48163  -0.47668
 Alpha  occ. eigenvalues --   -0.46428  -0.46264  -0.46118  -0.45016  -0.44555
 Alpha  occ. eigenvalues --   -0.43089  -0.42047  -0.41892  -0.41773  -0.40958
 Alpha  occ. eigenvalues --   -0.40892  -0.40536  -0.40481  -0.40020  -0.39198
 Alpha  occ. eigenvalues --   -0.38460  -0.38201  -0.37613  -0.37145  -0.36054
 Alpha  occ. eigenvalues --   -0.35097  -0.34424  -0.33712  -0.32803  -0.31482
 Alpha  occ. eigenvalues --   -0.27748  -0.26314  -0.25498  -0.25073  -0.24547
 Alpha  occ. eigenvalues --   -0.21778  -0.20241
 Alpha virt. eigenvalues --   -0.03584  -0.01345  -0.00306   0.01435   0.01823
 Alpha virt. eigenvalues --    0.07950   0.09230   0.10219   0.10780   0.11911
 Alpha virt. eigenvalues --    0.12188   0.12795   0.13447   0.13480   0.14135

 Mulliken charges:
               1
     1  C   -0.325775
     2  H    0.164967
     3  H    0.195476
     4  H    0.164776
     5  N   -0.393486
     6  C   -0.329879
     7  H    0.171696
     8  H    0.168197
     9  H    0.188021
    10  C    0.600028
    11  O   -0.552828
    12  C   -0.453865
    13  H    0.182354
    14  H    0.187536
    15  C    0.301218
    16  C    0.096684
    17  C    0.082667
    18  C   -0.166715
    19  C   -0.198297
    20  C    0.177649
    21  C   -0.534312
    22  H    0.161033
    23  H    0.167547
    24  H    0.165979
    25  C   -0.193139
    26  C   -0.197567
    27  H    0.145788
    28  H    0.133551
    29  H    0.132909
    30  H    0.148446
    31  N   -0.592683
    32  C    0.531760
    33  C   -0.197522
    34  H    0.157318
    35  C   -0.157463
    36  H    0.147148
    37  C    0.102882
    38  C   -0.531679
    39  H    0.170039
    40  H    0.167626
    41  H    0.169492
    42  C   -0.006415
    43  H    0.207975
    44  N   -0.559134
 Sum of Mulliken charges =   0.00000

 Dipole moment (field-independent basis, Debye):
    X=              0.7308    Y=              2.2456    Z=              1.3326  Tot=              2.7115
 Quadrupole moment (field-independent basis, Debye-Ang):
   XX=           -117.0695   YY=           -133.8291   ZZ=           -130.9875
   XY=             14.2893   XZ=             -4.5229   YZ=              4.2024

 Normal termination of Gaussian 09 at Sun Jan 24 23:21:07 2021.
