 Gaussian 09, Revision D.01,

 -----------------
 #p b3lyp/6-31G(d)
 -----------------

 ----------------------------------------------
 SET_328_BBB301_conf1.geo_165_120_105.n.pdb.xyz
 ----------------------------------------------
 Symbolic Z-matrix:
 Charge =  0 Multiplicity = 1

 SCF Done:  E(RB3LYP) =  -788.425575277     A.U. after   14 cycles
 Normal termination of Gaussian 09 at Mon Jan 25 16:27:16 2021.
 Gaussian 09:  AM64L-G09RevD.01 24-Apr-2013

 ----------------------------------------------------------------------
 #p b3lyp/6-31G(d) scrf=(iefpcm,read,solvent=n-Octanol) geom=allcheck g
 uess=read
 ----------------------------------------------------------------------

 Structure from the checkpoint file:  "SET_328_BBB301_conf1.geo_165_120_105.n.pdb.xyz.mst.n.o.chk"
 ----------------------------------------------
 SET_328_BBB301_conf1.geo_165_120_105.n.pdb.xyz
 ----------------------------------------------
 Charge =  0 Multiplicity = 1

                         Standard orientation:
 ---------------------------------------------------------------------
 Center     Atomic      Atomic             Coordinates (Angstroms)
 Number     Number       Type             X           Y           Z
 ---------------------------------------------------------------------
      1          6           0       -4.002899    1.734881   -1.060144
      2          1           0       -4.756552    2.448946   -0.713291
      3          1           0       -4.259640    1.446135   -2.085194
      4          1           0       -3.040088    2.256793   -1.086454
      5          6           0       -3.951917    0.498067   -0.142786
      6          6           0       -3.633082    0.922800    1.298802
      7          1           0       -4.414592    1.589743    1.673824
      8          1           0       -2.681108    1.458342    1.364415
      9          1           0       -3.581883    0.049641    1.956353
     10          6           0       -5.308712   -0.219513   -0.174060
     11          1           0       -5.293501   -1.098388    0.474939
     12          1           0       -5.555519   -0.550612   -1.189919
     13          1           0       -6.108738    0.447376    0.161756
     14          7           0       -2.948504   -0.494722   -0.606602
     15          1           0       -3.236294   -0.828498   -1.521632
     16          6           0       -1.532489   -0.109707   -0.655683
     17          1           0       -1.377211    0.973808   -0.725182
     18          1           0       -1.092608   -0.557319   -1.551798
     19          6           0       -0.773417   -0.681755    0.574778
     20          8           0       -1.236592   -2.000960    0.806969
     21          1           0       -2.171335   -1.957882    0.496729
     22          1           0       -0.991337   -0.045205    1.446547
     23          6           0        0.720942   -0.678703    0.340118
     24          6           0        1.483188    0.466167    0.607432
     25          1           0        1.001454    1.344154    1.034725
     26          6           0        2.851931    0.518732    0.349699
     27          6           0        3.689503    1.739527    0.650349
     28          8           0        4.411395    2.221361   -0.477954
     29          1           0        4.978237    1.480447   -0.754339
     30          1           0        4.377431    1.520137    1.480565
     31          1           0        3.041256    2.557744    0.976757
     32          6           0        3.469582   -0.619869   -0.192387
     33          8           0        4.821023   -0.519992   -0.422732
     34          1           0        5.154262   -1.337677   -0.823894
     35          6           0        2.734702   -1.774209   -0.461544
     36          1           0        3.227731   -2.650331   -0.871779
     37          6           0        1.364499   -1.796133   -0.194644
     38          1           0        0.781973   -2.689275   -0.386760
 ---------------------------------------------------------------------

 SCF Done:  E(RB3LYP) =  -788.452129407     A.U. after   10 cycles

 The electronic state is 1-A.
 Alpha  occ. eigenvalues --  -19.18773 -19.13208 -19.12705 -14.32814 -10.25012
 Alpha  occ. eigenvalues --  -10.22971 -10.22962 -10.22580 -10.20910 -10.19072
 Alpha  occ. eigenvalues --  -10.19032 -10.19004 -10.18681 -10.18621 -10.17407
 Alpha  occ. eigenvalues --  -10.17372 -10.17313  -1.06605  -1.00803  -1.00571
 Alpha  occ. eigenvalues --   -0.90907  -0.85399  -0.78777  -0.76766  -0.75607
 Alpha  occ. eigenvalues --   -0.70202  -0.68771  -0.68346  -0.67079  -0.63437
 Alpha  occ. eigenvalues --   -0.61341  -0.56751  -0.54911  -0.54478  -0.51018
 Alpha  occ. eigenvalues --   -0.49732  -0.48081  -0.47605  -0.47091  -0.45725
 Alpha  occ. eigenvalues --   -0.44863  -0.43945  -0.43165  -0.42596  -0.42181
 Alpha  occ. eigenvalues --   -0.40763  -0.40757  -0.39323  -0.39046  -0.38660
 Alpha  occ. eigenvalues --   -0.37787  -0.36737  -0.36273  -0.35586  -0.34493
 Alpha  occ. eigenvalues --   -0.33819  -0.33364  -0.32817  -0.32168  -0.31532
 Alpha  occ. eigenvalues --   -0.26299  -0.26046  -0.24837  -0.23847  -0.21550
 Alpha virt. eigenvalues --   -0.00406   0.00787   0.06635   0.07323   0.09177
 Alpha virt. eigenvalues --    0.11086   0.11803   0.12340   0.12691   0.13235
 Alpha virt. eigenvalues --    0.13718   0.13952   0.15643   0.15736   0.16339

 Mulliken charges:
               1
     1  C   -0.448603
     2  H    0.147387
     3  H    0.141127
     4  H    0.148851
     5  C    0.205166
     6  C   -0.449597
     7  H    0.149344
     8  H    0.148250
     9  H    0.152973
    10  C   -0.449126
    11  H    0.151255
    12  H    0.141036
    13  H    0.148332
    14  N   -0.600711
    15  H    0.322714
    16  C   -0.160830
    17  H    0.141408
    18  H    0.149072
    19  C    0.094840
    20  O   -0.677952
    21  H    0.403487
    22  H    0.119304
    23  C    0.140177
    24  C   -0.264995
    25  H    0.129387
    26  C    0.119218
    27  C   -0.110476
    28  O   -0.654375
    29  H    0.419832
    30  H    0.138355
    31  H    0.148866
    32  C    0.292617
    33  O   -0.678397
    34  H    0.440811
    35  C   -0.193575
    36  H    0.140507
    37  C   -0.192096
    38  H    0.146414
 Sum of Mulliken charges =   0.00000

 Dipole moment (field-independent basis, Debye):
    X=             -1.9928    Y=             -1.2639    Z=             -2.0907  Tot=              3.1528
 Quadrupole moment (field-independent basis, Debye-Ang):
   XX=            -85.9439   YY=           -108.3002   ZZ=           -101.9149
   XY=            -19.5442   XZ=              0.6745   YZ=             10.2581

 Normal termination of Gaussian 09 at Mon Jan 25 16:30:04 2021.
