 Gaussian 09, Revision D.01,

 -----------------
 #p b3lyp/6-31G(d)
 -----------------

 ----------------------------------------------
 SET_328_BBB292_conf1.geo_075_060_255.n.pdb.xyz
 ----------------------------------------------
 Symbolic Z-matrix:
 Charge =  0 Multiplicity = 1

 SCF Done:  E(RB3LYP) =  -705.218862921     A.U. after   15 cycles
 Normal termination of Gaussian 09 at Mon Jan 25 16:24:41 2021.
 Gaussian 09:  AM64L-G09RevD.01 24-Apr-2013

 ----------------------------------------------------------------------
 #p b3lyp/6-31G(d) scrf=(iefpcm,read,solvent=n-Octanol) geom=allcheck g
 uess=read
 ----------------------------------------------------------------------

 Structure from the checkpoint file:  "SET_328_BBB292_conf1.geo_075_060_255.n.pdb.xyz.mst.n.o.chk"
 ----------------------------------------------
 SET_328_BBB292_conf1.geo_075_060_255.n.pdb.xyz
 ----------------------------------------------
 Charge =  0 Multiplicity = 1

                         Standard orientation:
 ---------------------------------------------------------------------
 Center     Atomic      Atomic             Coordinates (Angstroms)
 Number     Number       Type             X           Y           Z
 ---------------------------------------------------------------------
      1          7           0        3.662945    1.255129   -0.156701
      2          1           0        3.600870    2.199498   -0.528545
      3          1           0        4.066783    0.677885   -0.894182
      4          6           0        2.315939    0.764342    0.134080
      5          6           0        2.457020   -0.676514    0.594382
      6          8           0        1.877016   -0.903335    1.785962
      7          1           0        1.989845   -1.852278    1.989295
      8          8           0        3.022075   -1.538159   -0.047835
      9          1           0        1.906120    1.347224    0.961185
     10          6           0        1.334116    0.831076   -1.067369
     11          1           0        1.761920    0.228614   -1.875975
     12          1           0        1.321792    1.872023   -1.406555
     13          6           0       -0.067535    0.355852   -0.762670
     14          6           0       -0.982835    1.198153   -0.108599
     15          1           0       -0.697798    2.214362    0.154175
     16          6           0       -2.259345    0.747297    0.200776
     17          8           0       -3.228374    1.487562    0.829630
     18          1           0       -2.893042    2.372909    1.046420
     19          6           0       -2.655707   -0.559666   -0.138032
     20          8           0       -3.914808   -0.989261    0.167351
     21          1           0       -4.368138   -0.251595    0.611467
     22          6           0       -1.756060   -1.397269   -0.787752
     23          1           0       -2.071425   -2.399890   -1.051799
     24          6           0       -0.473432   -0.938371   -1.095752
     25          1           0        0.222216   -1.598512   -1.603822
 ---------------------------------------------------------------------

 SCF Done:  E(RB3LYP) =  -705.247848891     A.U. after   11 cycles

 The electronic state is 1-A.
 Alpha  occ. eigenvalues --  -19.19809 -19.18737 -19.17326 -19.14156 -14.31918
 Alpha  occ. eigenvalues --  -10.32052 -10.24926 -10.24462 -10.22814 -10.19332
 Alpha  occ. eigenvalues --  -10.19231 -10.19064 -10.18589 -10.18367  -1.10707
 Alpha  occ. eigenvalues --   -1.07465  -1.04446  -1.01691  -0.89469  -0.85154
 Alpha  occ. eigenvalues --   -0.77643  -0.74261  -0.71994  -0.67159  -0.63844
 Alpha  occ. eigenvalues --   -0.59916  -0.57472  -0.54702  -0.54074  -0.52418
 Alpha  occ. eigenvalues --   -0.48393  -0.48022  -0.47204  -0.45200  -0.43737
 Alpha  occ. eigenvalues --   -0.43363  -0.42850  -0.42640  -0.40555  -0.40026
 Alpha  occ. eigenvalues --   -0.38722  -0.38113  -0.36600  -0.36531  -0.35089
 Alpha  occ. eigenvalues --   -0.34314  -0.32277  -0.31698  -0.27918  -0.24799
 Alpha  occ. eigenvalues --   -0.23702  -0.20561
 Alpha virt. eigenvalues --    0.00070   0.00772   0.01701   0.06560   0.08797
 Alpha virt. eigenvalues --    0.09178   0.10114   0.12200   0.13091   0.14752
 Alpha virt. eigenvalues --    0.15931   0.16286   0.17723   0.19571   0.20064

 Mulliken charges:
               1
     1  N   -0.735992
     2  H    0.320401
     3  H    0.318356
     4  C   -0.039023
     5  C    0.605474
     6  O   -0.566447
     7  H    0.432415
     8  O   -0.500350
     9  H    0.160472
    10  C   -0.374289
    11  H    0.156684
    12  H    0.152686
    13  C    0.159262
    14  C   -0.257791
    15  H    0.136992
    16  C    0.305775
    17  O   -0.687927
    18  H    0.444072
    19  C    0.313707
    20  O   -0.668750
    21  H    0.439141
    22  C   -0.184241
    23  H    0.140597
    24  C   -0.206680
    25  H    0.135456
 Sum of Mulliken charges =   0.00000

 Dipole moment (field-independent basis, Debye):
    X=             -1.0837    Y=              3.9784    Z=              0.6166  Tot=              4.1692
 Quadrupole moment (field-independent basis, Debye-Ang):
   XX=            -90.9470   YY=            -69.2100   ZZ=            -78.2396
   XY=             -3.9740   XZ=             -7.0106   YZ=             -2.5198

 Normal termination of Gaussian 09 at Mon Jan 25 16:26:19 2021.
