 Gaussian 09, Revision D.01,

 -----------------
 #p b3lyp/6-31G(d)
 -----------------

 ----------------------------------------------
 SET_328_BBB321_conf1.geo_165_030_120.n.pdb.xyz
 ----------------------------------------------
 Symbolic Z-matrix:
 Charge =  0 Multiplicity = 1

 SCF Done:  E(RB3LYP) =  -1212.31294482     A.U. after   15 cycles
 Normal termination of Gaussian 09 at Thu Jan 28 04:43:32 2021.
 Gaussian 09:  AM64L-G09RevD.01 24-Apr-2013

 ----------------------------------------------------------------------
 #p b3lyp/6-31G(d) scrf=(iefpcm,read,solvent=n-Octanol) geom=allcheck g
 uess=read
 ----------------------------------------------------------------------

 Structure from the checkpoint file:  "SET_328_BBB321_conf1.geo_165_030_120.n.pdb.xyz.mst.n.o.chk"
 ----------------------------------------------
 SET_328_BBB321_conf1.geo_165_030_120.n.pdb.xyz
 ----------------------------------------------
 Charge =  0 Multiplicity = 1

                         Standard orientation:
 ---------------------------------------------------------------------
 Center     Atomic      Atomic             Coordinates (Angstroms)
 Number     Number       Type             X           Y           Z
 ---------------------------------------------------------------------
      1          6           0        4.960227    2.750589    0.271077
      2          1           0        6.042452    2.858767    0.232892
      3          1           0        4.595541    3.129115    1.231489
      4          1           0        4.509670    3.359085   -0.518250
      5          6           0        4.613293    1.282588    0.096788
      6          8           0        5.470160    0.417179   -0.052436
      7          7           0        3.264806    1.027116    0.121959
      8          1           0        2.659720    1.831005    0.250046
      9          6           0        2.594656   -0.206273   -0.006531
     10          6           0        3.260649   -1.426624   -0.188501
     11          6           0        2.503669   -2.595638   -0.303663
     12          6           0        1.114514   -2.570591   -0.242358
     13          1           0        0.550036   -3.489670   -0.349910
     14          1           0        3.015953   -3.540734   -0.449904
     15          1           0        4.338554   -1.437810   -0.237948
     16          6           0        1.195476   -0.181122    0.056639
     17          1           0        0.671910    0.756201    0.205933
     18          6           0        0.442306   -1.352544   -0.056137
     19          6           0       -1.026386   -1.289294    0.026972
     20          7           0       -1.657508   -0.056900   -0.008607
     21          6           0       -1.860420   -2.366738    0.159606
     22          1           0       -1.593637   -3.409408    0.235802
     23         16           0       -3.515298   -1.851672    0.241018
     24          6           0       -2.969576   -0.163897    0.087264
     25          7           0       -3.931956    0.786257    0.083876
     26          6           0       -3.627549    2.056739   -0.117254
     27          7           0       -4.666305    2.940104   -0.216553
     28          1           0       -5.558629    2.578413    0.092995
     29          1           0       -4.495127    3.910198    0.015247
     30          7           0       -2.378066    2.556778   -0.250635
     31          1           0       -1.633032    1.867149   -0.320106
     32          1           0       -2.241877    3.480357   -0.638794
 ---------------------------------------------------------------------

 SCF Done:  E(RB3LYP) =  -1212.34409562     A.U. after   11 cycles

 The electronic state is 1-A.
 Alpha  occ. eigenvalues --  -88.90139 -19.12422 -14.37899 -14.35631 -14.35511
 Alpha  occ. eigenvalues --  -14.32477 -14.31104 -10.30869 -10.29978 -10.27584
 Alpha  occ. eigenvalues --  -10.23830 -10.22327 -10.20714 -10.20315 -10.19281
 Alpha  occ. eigenvalues --  -10.19122 -10.19016 -10.18675 -10.18365  -7.96318
 Alpha  occ. eigenvalues --   -5.92708  -5.92372  -5.92000  -1.04203  -1.00080
 Alpha  occ. eigenvalues --   -0.95601  -0.94450  -0.88508  -0.87838  -0.85067
 Alpha  occ. eigenvalues --   -0.78871  -0.77521  -0.75986  -0.72686  -0.70845
 Alpha  occ. eigenvalues --   -0.64462  -0.63412  -0.61279  -0.59426  -0.58265
 Alpha  occ. eigenvalues --   -0.55988  -0.54975  -0.52935  -0.51293  -0.49587
 Alpha  occ. eigenvalues --   -0.48635  -0.48040  -0.47391  -0.45642  -0.44758
 Alpha  occ. eigenvalues --   -0.43808  -0.43525  -0.42425  -0.41188  -0.40732
 Alpha  occ. eigenvalues --   -0.40350  -0.40289  -0.39272  -0.37502  -0.36079
 Alpha  occ. eigenvalues --   -0.35434  -0.34761  -0.31732  -0.29455  -0.28269
 Alpha  occ. eigenvalues --   -0.28012  -0.27579  -0.27198  -0.25729  -0.24472
 Alpha  occ. eigenvalues --   -0.22432  -0.19410
 Alpha virt. eigenvalues --   -0.03246  -0.01184  -0.00933   0.02595   0.03352
 Alpha virt. eigenvalues --    0.07177   0.07336   0.08157   0.09518   0.10106
 Alpha virt. eigenvalues --    0.11454   0.12606   0.12855   0.13585   0.13865

 Mulliken charges:
               1
     1  C   -0.553248
     2  H    0.187257
     3  H    0.185254
     4  H    0.184375
     5  C    0.592715
     6  O   -0.518422
     7  N   -0.701958
     8  H    0.346872
     9  C    0.359298
    10  C   -0.172848
    11  C   -0.160699
    12  C   -0.191408
    13  H    0.135179
    14  H    0.141838
    15  H    0.174041
    16  C   -0.264947
    17  H    0.145945
    18  C    0.111201
    19  C    0.283369
    20  N   -0.573473
    21  C   -0.423715
    22  H    0.183866
    23  S    0.201553
    24  C    0.300053
    25  N   -0.572086
    26  C    0.652620
    27  N   -0.759625
    28  H    0.365344
    29  H    0.362148
    30  N   -0.777126
    31  H    0.393881
    32  H    0.362747
 Sum of Mulliken charges =   0.00000

 Dipole moment (field-independent basis, Debye):
    X=             -3.1829    Y=              7.9435    Z=              0.2029  Tot=              8.5599
 Quadrupole moment (field-independent basis, Debye-Ang):
   XX=           -131.7566   YY=            -77.7257   ZZ=           -120.8113
   XY=            -10.1218   XZ=              0.2865   YZ=              0.8024

 Normal termination of Gaussian 09 at Thu Jan 28 04:46:51 2021.
