 Gaussian 09, Revision D.01,

 -----------------
 #p b3lyp/6-31G(d)
 -----------------

 ----------------------------------------------
 SET_328_BBB288_conf1.geo_210_090_060.n.pdb.xyz
 ----------------------------------------------
 Symbolic Z-matrix:
 Charge =  0 Multiplicity = 1

 SCF Done:  E(RB3LYP) =  -963.494203364     A.U. after   16 cycles
 Normal termination of Gaussian 09 at Mon Jan 25 16:27:04 2021.
 Gaussian 09:  AM64L-G09RevD.01 24-Apr-2013

 ----------------------------------------------------------------------
 #p b3lyp/6-31G(d) scrf=(iefpcm,read,solvent=n-Octanol) geom=allcheck g
 uess=read
 ----------------------------------------------------------------------

 Structure from the checkpoint file:  "SET_328_BBB288_conf1.geo_210_090_060.n.pdb.xyz.mst.n.o.chk"
 ----------------------------------------------
 SET_328_BBB288_conf1.geo_210_090_060.n.pdb.xyz
 ----------------------------------------------
 Charge =  0 Multiplicity = 1

                         Standard orientation:
 ---------------------------------------------------------------------
 Center     Atomic      Atomic             Coordinates (Angstroms)
 Number     Number       Type             X           Y           Z
 ---------------------------------------------------------------------
      1          6           0       -4.004423    1.825718   -1.257260
      2          1           0       -3.350237    2.620892   -1.620146
      3          1           0       -4.734373    2.262814   -0.568736
      4          1           0       -4.569110    1.427228   -2.105781
      5          6           0       -3.210095    0.747397   -0.585923
      6          6           0       -3.923819   -0.394551   -0.026713
      7          7           0       -3.095186   -1.337636    0.600710
      8          6           0       -1.721306   -1.317575    0.735393
      9          8           0       -1.093188   -2.207313    1.292122
     10          1           0       -3.558303   -2.148015    1.002733
     11          8           0       -5.136408   -0.567504   -0.067011
     12          6           0       -1.864992    0.787130   -0.459664
     13          1           0       -1.275757    1.619456   -0.819360
     14          7           0       -1.123558   -0.195128    0.166416
     15          6           0        0.332629   -0.082618    0.248519
     16          8           0        0.654048    1.267049    0.534854
     17          6           0        1.995335    1.544226    0.096454
     18          6           0        2.909454    1.722594    1.311635
     19          8           0        2.922833    0.597851    2.170976
     20          1           0        3.384412   -0.104818    1.681124
     21          1           0        2.524500    2.559292    1.899735
     22          1           0        3.915528    1.992362    0.962918
     23          1           0        1.961813    2.490896   -0.451769
     24          1           0        0.640504   -0.749589    1.054393
     25          6           0        1.073196   -0.385292   -1.058913
     26          1           0        0.507785    0.020233   -1.904568
     27          1           0        1.231765   -1.451457   -1.224666
     28          6           0        2.384915    0.396550   -0.884434
     29          1           0        2.748433    0.803929   -1.830251
     30          7           0        3.457090   -0.446900   -0.283513
     31          7           0        4.163906   -1.069042   -1.080717
     32          7           0        4.879091   -1.683487   -1.722569
 ---------------------------------------------------------------------

 SCF Done:  E(RB3LYP) =  -963.516427768     A.U. after   11 cycles

 The electronic state is 1-A.
 Alpha  occ. eigenvalues --  -19.17207 -19.14305 -19.13368 -19.12818 -14.53248
 Alpha  occ. eigenvalues --  -14.42803 -14.40686 -14.40265 -14.38927 -10.34071
 Alpha  occ. eigenvalues --  -10.30472 -10.29157 -10.26437 -10.25737 -10.25431
 Alpha  occ. eigenvalues --  -10.23676 -10.21174 -10.20850 -10.18930  -1.15981
 Alpha  occ. eigenvalues --   -1.08479  -1.06686  -1.04262  -1.01844  -1.00037
 Alpha  occ. eigenvalues --   -0.97873  -0.93045  -0.82339  -0.81898  -0.77747
 Alpha  occ. eigenvalues --   -0.71641  -0.69937  -0.67864  -0.67037  -0.63077
 Alpha  occ. eigenvalues --   -0.60405  -0.57577  -0.56718  -0.55137  -0.53133
 Alpha  occ. eigenvalues --   -0.52742  -0.52322  -0.50638  -0.49773  -0.48118
 Alpha  occ. eigenvalues --   -0.47375  -0.46591  -0.46025  -0.44503  -0.44007
 Alpha  occ. eigenvalues --   -0.43347  -0.43013  -0.42497  -0.42136  -0.40448
 Alpha  occ. eigenvalues --   -0.39525  -0.38640  -0.38464  -0.38111  -0.35577
 Alpha  occ. eigenvalues --   -0.35166  -0.34657  -0.31157  -0.30184  -0.29118
 Alpha  occ. eigenvalues --   -0.28602  -0.27484  -0.26796  -0.25911  -0.23604
 Alpha virt. eigenvalues --   -0.04852  -0.03667  -0.00703   0.00976   0.06520
 Alpha virt. eigenvalues --    0.08868   0.10188   0.10537   0.11170   0.11632
 Alpha virt. eigenvalues --    0.12120   0.13414   0.13533   0.14630   0.15310

 Mulliken charges:
               1
     1  C   -0.514142
     2  H    0.160638
     3  H    0.173906
     4  H    0.172758
     5  C    0.036414
     6  C    0.592533
     7  N   -0.709427
     8  C    0.800466
     9  O   -0.538781
    10  H    0.372256
    11  O   -0.533569
    12  C    0.051879
    13  H    0.194025
    14  N   -0.517510
    15  C    0.279028
    16  O   -0.515223
    17  C    0.122172
    18  C   -0.038381
    19  O   -0.642963
    20  H    0.428195
    21  H    0.160133
    22  H    0.138829
    23  H    0.160341
    24  H    0.189338
    25  C   -0.295377
    26  H    0.176455
    27  H    0.184484
    28  C   -0.035467
    29  H    0.188331
    30  N   -0.435514
    31  N    0.446425
    32  N   -0.252250
 Sum of Mulliken charges =   0.00000

 Dipole moment (field-independent basis, Debye):
    X=              3.7800    Y=              3.6150    Z=             -4.7789  Tot=              7.0848
 Quadrupole moment (field-independent basis, Debye-Ang):
   XX=           -131.4010   YY=           -107.1603   ZZ=           -114.0969
   XY=              3.2225   XZ=             -4.0696   YZ=             -3.2988

 Normal termination of Gaussian 09 at Mon Jan 25 16:30:11 2021.
