 Gaussian 09, Revision D.01,

 -----------------
 #p b3lyp/6-31G(d)
 -----------------

 ----------------------------------------------
 SET_328_BBB301_conf1.geo_165_285_315.n.pdb.xyz
 ----------------------------------------------
 Symbolic Z-matrix:
 Charge =  0 Multiplicity = 1

 SCF Done:  E(RB3LYP) =  -788.431534916     A.U. after   14 cycles
 Normal termination of Gaussian 09 at Mon Jan 25 16:27:13 2021.
 Gaussian 09:  AM64L-G09RevD.01 24-Apr-2013

 ----------------------------------------------------------------------
 #p b3lyp/6-31G(d) scrf=(iefpcm,read,solvent=n-Octanol) geom=allcheck g
 uess=read
 ----------------------------------------------------------------------

 Structure from the checkpoint file:  "SET_328_BBB301_conf1.geo_165_285_315.n.pdb.xyz.mst.n.o.chk"
 ----------------------------------------------
 SET_328_BBB301_conf1.geo_165_285_315.n.pdb.xyz
 ----------------------------------------------
 Charge =  0 Multiplicity = 1

                         Standard orientation:
 ---------------------------------------------------------------------
 Center     Atomic      Atomic             Coordinates (Angstroms)
 Number     Number       Type             X           Y           Z
 ---------------------------------------------------------------------
      1          6           0        4.176437   -0.315909   -1.800139
      2          1           0        3.247711   -0.298590   -2.376934
      3          1           0        4.489732   -1.360412   -1.696198
      4          1           0        4.940685    0.206024   -2.384935
      5          6           0        3.988224    0.342665   -0.419635
      6          6           0        5.304735    0.279376    0.373934
      7          1           0        5.626477   -0.757214    0.515718
      8          1           0        5.180890    0.735348    1.360607
      9          1           0        6.102826    0.805921   -0.155325
     10          6           0        3.566749    1.811832   -0.587283
     11          1           0        3.396179    2.273316    0.389323
     12          1           0        2.651302    1.913328   -1.177035
     13          1           0        4.351148    2.373362   -1.102173
     14          7           0        2.972264   -0.365040    0.402022
     15          1           0        3.347924   -1.280228    0.652569
     16          6           0        1.633419   -0.549317   -0.163473
     17          1           0        1.568199   -1.327854   -0.935367
     18          1           0        1.314776    0.393331   -0.613875
     19          6           0        0.669262   -0.871275    0.997616
     20          8           0        0.904450    0.063941    2.036921
     21          1           0        1.863386    0.253591    1.931379
     22          1           0        0.894955   -1.893208    1.351367
     23          6           0       -0.773705   -0.825348    0.558799
     24          6           0       -1.512985    0.354713    0.666514
     25          1           0       -1.044432    1.216466    1.128344
     26          6           0       -2.834238    0.436898    0.229651
     27          6           0       -3.640483    1.687285    0.464689
     28          8           0       -4.417468    1.976992   -0.714671
     29          1           0       -5.087572    2.639134   -0.477939
     30          1           0       -2.971184    2.523042    0.698704
     31          1           0       -4.316199    1.548931    1.321951
     32          6           0       -3.426940   -0.693065   -0.368530
     33          8           0       -4.708706   -0.674156   -0.828325
     34          1           0       -4.964267    0.273211   -0.913900
     35          6           0       -2.697566   -1.880206   -0.482226
     36          1           0       -3.174001   -2.742916   -0.937894
     37          6           0       -1.388632   -1.943939   -0.011352
     38          1           0       -0.836248   -2.875793   -0.095324
 ---------------------------------------------------------------------

 SCF Done:  E(RB3LYP) =  -788.457871839     A.U. after   10 cycles

 The electronic state is 1-A.
 Alpha  occ. eigenvalues --  -19.16774 -19.15737 -19.12649 -14.32708 -10.24447
 Alpha  occ. eigenvalues --  -10.24194 -10.23114 -10.22536 -10.20609 -10.18997
 Alpha  occ. eigenvalues --  -10.18676 -10.18314 -10.18214 -10.18045 -10.17372
 Alpha  occ. eigenvalues --  -10.17223 -10.17222  -1.04928  -1.02646  -1.00916
 Alpha  occ. eigenvalues --   -0.90898  -0.84967  -0.78795  -0.76978  -0.75023
 Alpha  occ. eigenvalues --   -0.69909  -0.68680  -0.68557  -0.67553  -0.62195
 Alpha  occ. eigenvalues --   -0.60500  -0.56785  -0.55456  -0.53819  -0.51776
 Alpha  occ. eigenvalues --   -0.50038  -0.48076  -0.47518  -0.46985  -0.45583
 Alpha  occ. eigenvalues --   -0.44904  -0.43754  -0.43530  -0.42483  -0.41915
 Alpha  occ. eigenvalues --   -0.41778  -0.39869  -0.39271  -0.38327  -0.37769
 Alpha  occ. eigenvalues --   -0.37461  -0.36719  -0.36602  -0.35748  -0.34903
 Alpha  occ. eigenvalues --   -0.33701  -0.32980  -0.32638  -0.32177  -0.31283
 Alpha  occ. eigenvalues --   -0.29027  -0.26026  -0.24540  -0.23559  -0.20843
 Alpha virt. eigenvalues --   -0.00293   0.01308   0.07052   0.07345   0.10448
 Alpha virt. eigenvalues --    0.11225   0.12209   0.12567   0.13100   0.13500
 Alpha virt. eigenvalues --    0.14004   0.14499   0.15456   0.15777   0.16545

 Mulliken charges:
               1
     1  C   -0.450789
     2  H    0.150380
     3  H    0.140661
     4  H    0.146560
     5  C    0.214437
     6  C   -0.454161
     7  H    0.141798
     8  H    0.151706
     9  H    0.149625
    10  C   -0.446958
    11  H    0.149946
    12  H    0.148356
    13  H    0.147456
    14  N   -0.603418
    15  H    0.313606
    16  C   -0.148024
    17  H    0.136333
    18  H    0.154456
    19  C    0.078001
    20  O   -0.673590
    21  H    0.404744
    22  H    0.112670
    23  C    0.137209
    24  C   -0.256002
    25  H    0.140671
    26  C    0.107710
    27  C   -0.131121
    28  O   -0.646498
    29  H    0.434977
    30  H    0.158199
    31  H    0.160806
    32  C    0.293458
    33  O   -0.686522
    34  H    0.436828
    35  C   -0.178804
    36  H    0.134859
    37  C   -0.200178
    38  H    0.130614
 Sum of Mulliken charges =   0.00000

 Dipole moment (field-independent basis, Debye):
    X=              1.9622    Y=              2.1542    Z=             -0.7604  Tot=              3.0115
 Quadrupole moment (field-independent basis, Debye-Ang):
   XX=            -83.6515   YY=            -91.8890   ZZ=           -111.0960
   XY=            -19.5913   XZ=             -6.8664   YZ=              1.2576

 Normal termination of Gaussian 09 at Mon Jan 25 16:30:03 2021.
