 Gaussian 09, Revision D.01,

 -----------------
 #p b3lyp/6-31G(d)
 -----------------

 ----------------------------------------------
 SET_328_BBB321_conf1.geo_180_330_120.n.pdb.xyz
 ----------------------------------------------
 Symbolic Z-matrix:
 Charge =  0 Multiplicity = 1

 SCF Done:  E(RB3LYP) =  -1212.31312802     A.U. after   15 cycles
 Normal termination of Gaussian 09 at Thu Jan 28 04:52:39 2021.
 Gaussian 09:  AM64L-G09RevD.01 24-Apr-2013

 ----------------------------------------------------------------------
 #p b3lyp/6-31G(d) scrf=(iefpcm,read,solvent=n-Octanol) geom=allcheck g
 uess=read
 ----------------------------------------------------------------------

 Structure from the checkpoint file:  "SET_328_BBB321_conf1.geo_180_330_120.n.pdb.xyz.mst.n.o.chk"
 ----------------------------------------------
 SET_328_BBB321_conf1.geo_180_330_120.n.pdb.xyz
 ----------------------------------------------
 Charge =  0 Multiplicity = 1

                         Standard orientation:
 ---------------------------------------------------------------------
 Center     Atomic      Atomic             Coordinates (Angstroms)
 Number     Number       Type             X           Y           Z
 ---------------------------------------------------------------------
      1          6           0        4.988244    2.742840    0.237730
      2          1           0        5.440309    3.086267   -0.697225
      3          1           0        5.744479    2.836982    1.019790
      4          1           0        4.144009    3.394474    0.478171
      5          6           0        4.615045    1.278324    0.093937
      6          8           0        5.470756    0.408204   -0.038756
      7          7           0        3.265761    1.029834    0.114588
      8          1           0        2.664909    1.832276    0.230516
      9          6           0        2.593459   -0.202952   -0.005888
     10          6           0        3.257442   -1.425322   -0.172693
     11          6           0        2.502942   -2.595418   -0.279470
     12          6           0        1.113593   -2.568221   -0.222969
     13          1           0        0.547362   -3.488206   -0.321285
     14          1           0        3.016111   -3.541758   -0.413545
     15          1           0        4.335295   -1.438532   -0.217159
     16          6           0        1.193549   -0.174801    0.051863
     17          1           0        0.668743    0.762542    0.188089
     18          6           0        0.441058   -1.348349   -0.052902
     19          6           0       -1.027852   -1.285713    0.023579
     20          7           0       -1.661160   -0.053781   -0.005772
     21          6           0       -1.861047   -2.365574    0.142274
     22          1           0       -1.591032   -3.407597    0.210166
     23         16           0       -3.517192   -1.853156    0.219146
     24          6           0       -2.973524   -0.164392    0.082350
     25          7           0       -3.937599    0.783982    0.079774
     26          6           0       -3.634523    2.057177   -0.105238
     27          7           0       -4.674605    2.939468   -0.205921
     28          1           0       -4.507342    3.906512    0.038597
     29          1           0       -5.569071    2.572130    0.092013
     30          7           0       -2.385354    2.561011   -0.221044
     31          1           0       -1.638201    1.872694   -0.291264
     32          1           0       -2.246173    3.487885   -0.599958
 ---------------------------------------------------------------------

 SCF Done:  E(RB3LYP) =  -1212.34424028     A.U. after   11 cycles

 The electronic state is 1-A.
 Alpha  occ. eigenvalues --  -88.90156 -19.12141 -14.38014 -14.35625 -14.35513
 Alpha  occ. eigenvalues --  -14.32490 -14.31103 -10.30868 -10.29939 -10.27589
 Alpha  occ. eigenvalues --  -10.23820 -10.22341 -10.20720 -10.20343 -10.19362
 Alpha  occ. eigenvalues --  -10.19138 -10.19070 -10.18727 -10.18362  -7.96335
 Alpha  occ. eigenvalues --   -5.92725  -5.92389  -5.92017  -1.04063  -1.00084
 Alpha  occ. eigenvalues --   -0.95605  -0.94504  -0.88507  -0.87841  -0.85098
 Alpha  occ. eigenvalues --   -0.78884  -0.77515  -0.75971  -0.72718  -0.70868
 Alpha  occ. eigenvalues --   -0.64484  -0.63464  -0.61340  -0.59460  -0.58267
 Alpha  occ. eigenvalues --   -0.56048  -0.55028  -0.52978  -0.51299  -0.49612
 Alpha  occ. eigenvalues --   -0.48637  -0.48066  -0.47375  -0.45510  -0.44767
 Alpha  occ. eigenvalues --   -0.43807  -0.43551  -0.42460  -0.41164  -0.40728
 Alpha  occ. eigenvalues --   -0.40414  -0.40290  -0.39289  -0.37487  -0.35933
 Alpha  occ. eigenvalues --   -0.35455  -0.34791  -0.31608  -0.29454  -0.28284
 Alpha  occ. eigenvalues --   -0.28018  -0.27590  -0.27195  -0.25646  -0.24489
 Alpha  occ. eigenvalues --   -0.22517  -0.19420
 Alpha virt. eigenvalues --   -0.03286  -0.01213  -0.01035   0.02596   0.03538
 Alpha virt. eigenvalues --    0.07053   0.07374   0.08132   0.09506   0.10138
 Alpha virt. eigenvalues --    0.11414   0.12702   0.12944   0.13279   0.13937

 Mulliken charges:
               1
     1  C   -0.543849
     2  H    0.193497
     3  H    0.191439
     4  H    0.162138
     5  C    0.602352
     6  O   -0.524805
     7  N   -0.707692
     8  H    0.347448
     9  C    0.356673
    10  C   -0.172890
    11  C   -0.160414
    12  C   -0.191287
    13  H    0.135431
    14  H    0.142331
    15  H    0.175856
    16  C   -0.264639
    17  H    0.146791
    18  C    0.111919
    19  C    0.283604
    20  N   -0.574462
    21  C   -0.423826
    22  H    0.183951
    23  S    0.202227
    24  C    0.300515
    25  N   -0.572202
    26  C    0.652334
    27  N   -0.759542
    28  H    0.362096
    29  H    0.365294
    30  N   -0.777539
    31  H    0.394513
    32  H    0.362738
 Sum of Mulliken charges =   0.00000

 Dipole moment (field-independent basis, Debye):
    X=             -3.1477    Y=              7.8715    Z=              0.1504  Tot=              8.4789
 Quadrupole moment (field-independent basis, Debye-Ang):
   XX=           -130.9799   YY=            -77.8718   ZZ=           -120.8894
   XY=             -9.9315   XZ=             -0.3132   YZ=              0.7297

 Normal termination of Gaussian 09 at Thu Jan 28 04:56:10 2021.
