 Gaussian 09, Revision D.01,

 -----------------
 #p b3lyp/6-31G(d)
 -----------------

 ---------------------------------------------
 SET_328_BBB30_conf1.geo_240_075_270.n.pdb.xyz
 ---------------------------------------------
 Symbolic Z-matrix:
 Charge =  0 Multiplicity = 1

 SCF Done:  E(RB3LYP) =  -444.840320790     A.U. after   14 cycles
 Normal termination of Gaussian 09 at Sun Jan 24 23:15:54 2021.
 Gaussian 09:  AM64L-G09RevD.01 24-Apr-2013

 ----------------------------------------------------------------------
 #p b3lyp/6-31G(d) scrf=(iefpcm,read,solvent=n-Octanol) geom=allcheck g
 uess=read
 ----------------------------------------------------------------------

 Structure from the checkpoint file:  "SET_328_BBB30_conf1.geo_240_075_270.n.pdb.xyz.mst.n.o.chk"
 ---------------------------------------------
 SET_328_BBB30_conf1.geo_240_075_270.n.pdb.xyz
 ---------------------------------------------
 Charge =  0 Multiplicity = 1

                         Standard orientation:
 ---------------------------------------------------------------------
 Center     Atomic      Atomic             Coordinates (Angstroms)
 Number     Number       Type             X           Y           Z
 ---------------------------------------------------------------------
      1          6           0        1.217452    2.026959   -0.698570
      2          1           0        1.400434    1.881887   -1.768131
      3          1           0        1.461250    3.067596   -0.461082
      4          1           0        0.142980    1.878178   -0.519682
      5          7           0        2.110200    1.151467    0.052883
      6          1           0        2.010298    1.324459    1.053217
      7          6           0        1.990017   -0.285903   -0.216149
      8          6           0        3.339521   -0.957746    0.060656
      9          1           0        3.306736   -2.026368   -0.170584
     10          1           0        3.613595   -0.852584    1.118034
     11          1           0        4.126623   -0.491895   -0.536091
     12          1           0        1.769992   -0.377958   -1.287231
     13          6           0        0.882696   -1.029306    0.577955
     14          1           0        1.090491   -0.902166    1.646690
     15          1           0        0.990902   -2.100317    0.368046
     16          6           0       -0.543201   -0.609389    0.305609
     17          6           0       -1.268763    0.110744    1.261851
     18          1           0       -0.793750    0.355822    2.205722
     19          6           0       -2.582624    0.512566    1.015516
     20          1           0       -3.125809    1.072559    1.771123
     21          6           0       -3.196143    0.192215   -0.195657
     22          1           0       -4.217958    0.500369   -0.389038
     23          6           0       -2.487919   -0.538367   -1.152999
     24          1           0       -2.961245   -0.801655   -2.094128
     25          6           0       -1.176060   -0.935173   -0.900934
     26          1           0       -0.635789   -1.507791   -1.650698
 ---------------------------------------------------------------------

 SCF Done:  E(RB3LYP) =  -444.852540894     A.U. after   10 cycles

 The electronic state is 1-A.
 Alpha  occ. eigenvalues --  -14.30869 -10.21080 -10.19285 -10.19170 -10.18816
 Alpha  occ. eigenvalues --  -10.18801 -10.18644 -10.18507 -10.18475 -10.18203
 Alpha  occ. eigenvalues --  -10.16744  -0.89419  -0.85163  -0.77884  -0.74188
 Alpha  occ. eigenvalues --   -0.74038  -0.67376  -0.65167  -0.60404  -0.59014
 Alpha  occ. eigenvalues --   -0.57197  -0.51057  -0.47070  -0.46592  -0.45165
 Alpha  occ. eigenvalues --   -0.43922  -0.42869  -0.41689  -0.41619  -0.39642
 Alpha  occ. eigenvalues --   -0.38063  -0.37494  -0.36573  -0.35559  -0.34565
 Alpha  occ. eigenvalues --   -0.33930  -0.32787  -0.32294  -0.24881  -0.24528
 Alpha  occ. eigenvalues --   -0.20549
 Alpha virt. eigenvalues --   -0.00131   0.00193   0.08628   0.10293   0.10962
 Alpha virt. eigenvalues --    0.12386   0.14338   0.15042   0.15421   0.15658
 Alpha virt. eigenvalues --    0.16758   0.17179   0.17694   0.18095   0.19081

 Mulliken charges:
               1
     1  C   -0.309365
     2  H    0.146014
     3  H    0.142217
     4  H    0.144546
     5  N   -0.558306
     6  H    0.298950
     7  C    0.041604
     8  C   -0.431381
     9  H    0.137643
    10  H    0.137872
    11  H    0.147821
    12  H    0.131313
    13  C   -0.361573
    14  H    0.138018
    15  H    0.147147
    16  C    0.181328
    17  C   -0.198453
    18  H    0.129616
    19  C   -0.137185
    20  H    0.136937
    21  C   -0.143272
    22  H    0.136508
    23  C   -0.138807
    24  H    0.137252
    25  C   -0.187817
    26  H    0.131372
 Sum of Mulliken charges =   0.00000

 Dipole moment (field-independent basis, Debye):
    X=             -0.7772    Y=             -0.2913    Z=              0.4379  Tot=              0.9384
 Quadrupole moment (field-independent basis, Debye-Ang):
   XX=            -69.9880   YY=            -68.2149   ZZ=            -63.0346
   XY=             -4.0357   XZ=              2.1387   YZ=              3.3416

 Normal termination of Gaussian 09 at Sun Jan 24 23:17:04 2021.
