 Gaussian 09, Revision D.01,

 -----------------
 #p b3lyp/6-31G(d)
 -----------------

 ----------------------------------------------
 SET_328_BBB256_conf1.geo_180_180_090.n.pdb.xyz
 ----------------------------------------------
 Symbolic Z-matrix:
 Charge =  0 Multiplicity = 1

 SCF Done:  E(RB3LYP) =  -421.568193590     A.U. after   14 cycles
 Normal termination of Gaussian 09 at Sun Jan 24 23:02:30 2021.
 Gaussian 09:  AM64L-G09RevD.01 24-Apr-2013

 ----------------------------------------------------------------------
 #p b3lyp/6-31G(d) scrf=(iefpcm,read,solvent=n-Octanol) geom=allcheck g
 uess=read
 ----------------------------------------------------------------------

 Structure from the checkpoint file:  "SET_328_BBB256_conf1.geo_180_180_090.n.pdb.xyz.mst.n.o.chk"
 ----------------------------------------------
 SET_328_BBB256_conf1.geo_180_180_090.n.pdb.xyz
 ----------------------------------------------
 Charge =  0 Multiplicity = 1

                         Standard orientation:
 ---------------------------------------------------------------------
 Center     Atomic      Atomic             Coordinates (Angstroms)
 Number     Number       Type             X           Y           Z
 ---------------------------------------------------------------------
      1          6           0       -4.115292    0.418753   -0.577594
      2          1           0       -4.033997    0.119261   -1.637389
      3          1           0       -4.015084    1.507903   -0.536128
      4          1           0       -5.116759    0.158824   -0.224615
      5          7           0       -3.116104   -0.190127    0.291333
      6          1           0       -3.278302   -1.196388    0.320828
      7          6           0       -1.757584    0.050638   -0.175406
      8          1           0       -1.582087    1.131103   -0.180429
      9          1           0       -1.593089   -0.299338   -1.212002
     10          6           0       -0.730429   -0.601708    0.753775
     11          1           0       -0.861127   -1.689240    0.751511
     12          1           0       -0.923260   -0.247261    1.770469
     13          6           0        0.686092   -0.266983    0.358318
     14          7           0        1.050959    1.024778    0.458058
     15          6           0        2.297979    1.352699    0.100966
     16          1           0        2.558921    2.406031    0.197166
     17          6           0        3.240427    0.437965   -0.366965
     18          1           0        4.236654    0.766768   -0.638219
     19          6           0        2.860554   -0.898488   -0.468547
     20          1           0        3.558250   -1.648879   -0.827385
     21          6           0        1.564588   -1.254393   -0.102120
     22          1           0        1.227874   -2.282240   -0.164100
 ---------------------------------------------------------------------

 SCF Done:  E(RB3LYP) =  -421.579875414     A.U. after   10 cycles

 The electronic state is 1-A.
 Alpha  occ. eigenvalues --  -14.32782 -14.31338 -10.22732 -10.22210 -10.20677
 Alpha  occ. eigenvalues --  -10.20191 -10.19650 -10.19588 -10.19523 -10.18312
 Alpha  occ. eigenvalues --   -0.94047  -0.89713  -0.80117  -0.78762  -0.72801
 Alpha  occ. eigenvalues --   -0.66259  -0.62995  -0.61738  -0.58885  -0.51428
 Alpha  occ. eigenvalues --   -0.48951  -0.48077  -0.46510  -0.44061  -0.43462
 Alpha  occ. eigenvalues --   -0.41534  -0.40662  -0.39855  -0.38837  -0.36592
 Alpha  occ. eigenvalues --   -0.35507  -0.34385  -0.34365  -0.28420  -0.25487
 Alpha  occ. eigenvalues --   -0.25355  -0.21941
 Alpha virt. eigenvalues --   -0.02394  -0.00732   0.09204   0.09890   0.12266
 Alpha virt. eigenvalues --    0.13707   0.13927   0.14485   0.15998   0.16461
 Alpha virt. eigenvalues --    0.17700   0.18123   0.18474   0.19634   0.20446

 Mulliken charges:
               1
     1  C   -0.302366
     2  H    0.122846
     3  H    0.151431
     4  H    0.149646
     5  N   -0.558639
     6  H    0.307206
     7  C   -0.113960
     8  H    0.154694
     9  H    0.111197
    10  C   -0.329613
    11  H    0.141642
    12  H    0.160726
    13  C    0.297869
    14  N   -0.481567
    15  C    0.027284
    16  H    0.145277
    17  C   -0.149011
    18  H    0.149841
    19  C   -0.107288
    20  H    0.156435
    21  C   -0.178904
    22  H    0.145255
 Sum of Mulliken charges =   0.00000

 Dipole moment (field-independent basis, Debye):
    X=              1.2800    Y=             -2.3446    Z=             -1.6661  Tot=              3.1482
 Quadrupole moment (field-independent basis, Debye-Ang):
   XX=            -50.8796   YY=            -56.2955   ZZ=            -63.5880
   XY=              2.3465   XZ=              0.6790   YZ=             -0.8362

 Normal termination of Gaussian 09 at Sun Jan 24 23:03:20 2021.
