 Gaussian 09, Revision D.01,

 -----------------
 #p b3lyp/6-31G(d)
 -----------------

 ----------------------------------------------
 SET_328_BBB227_conf1.geo_165_180_240.n.pdb.xyz
 ----------------------------------------------
 Symbolic Z-matrix:
 Charge =  0 Multiplicity = 1

 SCF Done:  E(RB3LYP) =  -1203.26948774     A.U. after   15 cycles
 Normal termination of Gaussian 09 at Sun Jan 24 23:04:18 2021.
 Gaussian 09:  AM64L-G09RevD.01 24-Apr-2013

 ----------------------------------------------------------------------
 #p b3lyp/6-31G(d) scrf=(iefpcm,read,solvent=n-Octanol) geom=allcheck g
 uess=read
 ----------------------------------------------------------------------

 Structure from the checkpoint file:  "SET_328_BBB227_conf1.geo_165_180_240.n.pdb.xyz.mst.n.o.chk"
 ----------------------------------------------
 SET_328_BBB227_conf1.geo_165_180_240.n.pdb.xyz
 ----------------------------------------------
 Charge =  0 Multiplicity = 1

                         Standard orientation:
 ---------------------------------------------------------------------
 Center     Atomic      Atomic             Coordinates (Angstroms)
 Number     Number       Type             X           Y           Z
 ---------------------------------------------------------------------
      1         16           0       -1.498490    2.272393    0.745252
      2          6           0       -1.049538    0.825371   -0.048941
      3          7           0       -1.941991   -0.177884   -0.243280
      4          6           0       -3.332311   -0.197411    0.211493
      5          6           0       -4.287802    0.323536   -0.873597
      6          6           0       -5.750723    0.250715   -0.412580
      7          6           0       -6.131696   -1.168712    0.028989
      8          6           0       -5.173789   -1.691259    1.107706
      9          6           0       -3.710477   -1.618871    0.649457
     10          1           0       -3.561787   -2.308974   -0.193480
     11          1           0       -3.037911   -1.946851    1.449861
     12          1           0       -5.425965   -2.721730    1.377336
     13          1           0       -5.294259   -1.090920    2.019331
     14          1           0       -6.097851   -1.839581   -0.840978
     15          1           0       -7.162824   -1.187868    0.398436
     16          1           0       -6.410968    0.592516   -1.216173
     17          1           0       -5.897986    0.942264    0.426769
     18          1           0       -4.159012   -0.283296   -1.780908
     19          1           0       -4.011139    1.350720   -1.128409
     20          1           0       -3.377939    0.475161    1.069659
     21          1           0       -1.719400   -0.881342   -0.935422
     22          7           0        0.222941    0.592754   -0.493296
     23          6           0        0.697637   -0.712989   -0.968400
     24          6           0        2.080061   -1.044497   -0.394478
     25          1           0        1.987123   -1.202082    0.685884
     26          1           0        2.429242   -1.983004   -0.831979
     27          1           0        0.004051   -1.489895   -0.650266
     28          1           0        0.730535   -0.716608   -2.066235
     29          6           0        1.172571    1.688560   -0.721069
     30          1           0        0.739377    2.590618   -0.297648
     31          1           0        1.273291    1.831439   -1.808444
     32          6           0        2.546634    1.393852   -0.117807
     33          1           0        2.457689    1.346777    0.974948
     34          1           0        3.220111    2.222793   -0.357756
     35          6           0        3.106740    0.071119   -0.653873
     36          1           0        3.213732    0.167916   -1.746454
     37          6           0        4.456030   -0.282094   -0.096015
     38          6           0        5.186477    0.336497    0.894198
     39          1           0        5.001458    1.207099    1.501686
     40          7           0        6.342394   -0.401429    1.019533
     41          1           0        7.102723   -0.216475    1.660182
     42          6           0        6.271890   -1.420411    0.121385
     43          1           0        7.060469   -2.150949    0.012836
     44          7           0        5.151350   -1.382936   -0.569473
 ---------------------------------------------------------------------

 SCF Done:  E(RB3LYP) =  -1203.29796473     A.U. after   11 cycles

 The electronic state is 1-A.
 Alpha  occ. eigenvalues --  -88.81002 -14.38716 -14.37125 -14.36606 -14.30937
 Alpha  occ. eigenvalues --  -10.29707 -10.23668 -10.22865 -10.21884 -10.21461
 Alpha  occ. eigenvalues --  -10.20937 -10.19944 -10.19413 -10.18669 -10.18528
 Alpha  occ. eigenvalues --  -10.18269 -10.17996 -10.17782 -10.17728 -10.17684
 Alpha  occ. eigenvalues --   -7.87235  -5.83820  -5.83138  -5.82869  -1.00917
 Alpha  occ. eigenvalues --   -0.98992  -0.92333  -0.86801  -0.82885  -0.81114
 Alpha  occ. eigenvalues --   -0.77007  -0.75434  -0.74084  -0.73124  -0.71211
 Alpha  occ. eigenvalues --   -0.66774  -0.64154  -0.61629  -0.61125  -0.60734
 Alpha  occ. eigenvalues --   -0.59118  -0.57370  -0.56383  -0.55057  -0.54828
 Alpha  occ. eigenvalues --   -0.53205  -0.49072  -0.47148  -0.45851  -0.45497
 Alpha  occ. eigenvalues --   -0.44937  -0.44660  -0.43964  -0.43476  -0.43116
 Alpha  occ. eigenvalues --   -0.43014  -0.41728  -0.41371  -0.40246  -0.39494
 Alpha  occ. eigenvalues --   -0.38650  -0.37756  -0.36386  -0.35812  -0.35610
 Alpha  occ. eigenvalues --   -0.34583  -0.34335  -0.33696  -0.33532  -0.32198
 Alpha  occ. eigenvalues --   -0.32036  -0.31034  -0.30328  -0.27334  -0.26923
 Alpha  occ. eigenvalues --   -0.23869  -0.22195  -0.20814  -0.19899
 Alpha virt. eigenvalues --    0.00465   0.03368   0.06365   0.07324   0.08807
 Alpha virt. eigenvalues --    0.09406   0.09637   0.10925   0.11307   0.11900
 Alpha virt. eigenvalues --    0.12958   0.13397   0.14427   0.14863   0.15039

 Mulliken charges:
               1
     1  S   -0.409687
     2  C    0.369210
     3  N   -0.594089
     4  C    0.045614
     5  C   -0.257954
     6  C   -0.266842
     7  C   -0.259376
     8  C   -0.265015
     9  C   -0.272870
    10  H    0.128331
    11  H    0.144580
    12  H    0.138286
    13  H    0.136868
    14  H    0.131073
    15  H    0.135117
    16  H    0.136713
    17  H    0.136875
    18  H    0.124208
    19  H    0.154845
    20  H    0.173991
    21  H    0.343650
    22  N   -0.407948
    23  C   -0.167232
    24  C   -0.263219
    25  H    0.145906
    26  H    0.161108
    27  H    0.161875
    28  H    0.160023
    29  C   -0.142869
    30  H    0.192629
    31  H    0.145234
    32  C   -0.274998
    33  H    0.148527
    34  H    0.148448
    35  C   -0.162286
    36  H    0.135843
    37  C    0.225323
    38  C   -0.021438
    39  H    0.165796
    40  N   -0.559655
    41  H    0.370174
    42  C    0.206172
    43  H    0.166965
    44  N   -0.507905
 Sum of Mulliken charges =   0.00000

 Dipole moment (field-independent basis, Debye):
    X=              4.2140    Y=             -4.0041    Z=             -0.2871  Tot=              5.8201
 Quadrupole moment (field-independent basis, Debye-Ang):
   XX=            -87.2536   YY=           -138.4937   ZZ=           -126.3580
   XY=             15.9381   XZ=             21.3337   YZ=             -4.0657

 Normal termination of Gaussian 09 at Sun Jan 24 23:08:56 2021.
