 Gaussian 09, Revision D.01,

 -----------------
 #p b3lyp/6-31G(d)
 -----------------

 ----------------------------------------------
 SET_328_BBB288_conf1.geo_210_105_285.n.pdb.xyz
 ----------------------------------------------
 Symbolic Z-matrix:
 Charge =  0 Multiplicity = 1

 SCF Done:  E(RB3LYP) =  -963.492365677     A.U. after   16 cycles
 Normal termination of Gaussian 09 at Mon Jan 25 16:26:55 2021.
 Gaussian 09:  AM64L-G09RevD.01 24-Apr-2013

 ----------------------------------------------------------------------
 #p b3lyp/6-31G(d) scrf=(iefpcm,read,solvent=n-Octanol) geom=allcheck g
 uess=read
 ----------------------------------------------------------------------

 Structure from the checkpoint file:  "SET_328_BBB288_conf1.geo_210_105_285.n.pdb.xyz.mst.n.o.chk"
 ----------------------------------------------
 SET_328_BBB288_conf1.geo_210_105_285.n.pdb.xyz
 ----------------------------------------------
 Charge =  0 Multiplicity = 1

                         Standard orientation:
 ---------------------------------------------------------------------
 Center     Atomic      Atomic             Coordinates (Angstroms)
 Number     Number       Type             X           Y           Z
 ---------------------------------------------------------------------
      1          6           0        3.785500    2.151273    0.415406
      2          1           0        3.093231    2.996402    0.409523
      3          1           0        4.551833    2.327011   -0.346969
      4          1           0        4.300912    2.130800    1.381305
      5          6           0        3.059029    0.863373    0.163019
      6          6           0        3.833744   -0.371750    0.124493
      7          7           0        3.069258   -1.520768   -0.141954
      8          6           0        1.706886   -1.604226   -0.352046
      9          8           0        1.118779   -2.654174   -0.582983
     10          1           0        3.572337   -2.399005   -0.186872
     11          8           0        5.045510   -0.461985    0.295054
     12          6           0        1.721523    0.793649   -0.045348
     13          1           0        1.087740    1.670115   -0.062696
     14          7           0        1.049945   -0.385714   -0.276746
     15          6           0       -0.416549   -0.427148   -0.524501
     16          8           0       -0.903743    0.879923   -0.704516
     17          6           0       -1.832704    1.217942    0.349187
     18          6           0       -2.823131    2.238125   -0.166816
     19          8           0       -2.124424    3.460108   -0.347537
     20          1           0       -2.730966    4.086223   -0.773435
     21          1           0       -3.633534    2.337997    0.570279
     22          1           0       -3.258955    1.863666   -1.100096
     23          1           0       -1.284502    1.655632    1.192622
     24          1           0       -0.551551   -0.995507   -1.445246
     25          6           0       -1.195424   -1.042472    0.654403
     26          1           0       -0.595478   -0.988817    1.565084
     27          1           0       -1.454611   -2.085341    0.481122
     28          6           0       -2.414939   -0.124123    0.786694
     29          1           0       -2.804625   -0.086766    1.807007
     30          7           0       -3.498589   -0.491210   -0.158585
     31          7           0       -4.122622   -1.515061    0.125157
     32          7           0       -4.772909   -2.440281    0.280882
 ---------------------------------------------------------------------

 SCF Done:  E(RB3LYP) =  -963.514595478     A.U. after   11 cycles

 The electronic state is 1-A.
 Alpha  occ. eigenvalues --  -19.17854 -19.14828 -19.13273 -19.12549 -14.52437
 Alpha  occ. eigenvalues --  -14.41830 -14.40364 -14.39280 -14.38806 -10.33790
 Alpha  occ. eigenvalues --  -10.30258 -10.29715 -10.25930 -10.25804 -10.25222
 Alpha  occ. eigenvalues --  -10.23911 -10.21030 -10.20593 -10.18802  -1.15191
 Alpha  occ. eigenvalues --   -1.08624  -1.06932  -1.03978  -1.02063  -0.99409
 Alpha  occ. eigenvalues --   -0.97545  -0.92846  -0.82589  -0.81786  -0.78059
 Alpha  occ. eigenvalues --   -0.71457  -0.69606  -0.67739  -0.66553  -0.63492
 Alpha  occ. eigenvalues --   -0.60036  -0.57439  -0.55677  -0.55003  -0.53520
 Alpha  occ. eigenvalues --   -0.52325  -0.51400  -0.50905  -0.50550  -0.48429
 Alpha  occ. eigenvalues --   -0.47537  -0.46708  -0.45937  -0.44282  -0.43556
 Alpha  occ. eigenvalues --   -0.42772  -0.42339  -0.42010  -0.41704  -0.40415
 Alpha  occ. eigenvalues --   -0.39505  -0.38620  -0.38568  -0.38260  -0.35571
 Alpha  occ. eigenvalues --   -0.34789  -0.34216  -0.31156  -0.29907  -0.29037
 Alpha  occ. eigenvalues --   -0.28386  -0.27342  -0.26739  -0.26243  -0.23236
 Alpha virt. eigenvalues --   -0.03903  -0.03324   0.00016   0.01045   0.07146
 Alpha virt. eigenvalues --    0.07950   0.09634   0.10033   0.11047   0.11296
 Alpha virt. eigenvalues --    0.12024   0.12766   0.13439   0.14717   0.14789

 Mulliken charges:
               1
     1  C   -0.512813
     2  H    0.159067
     3  H    0.172015
     4  H    0.171129
     5  C    0.039057
     6  C    0.589648
     7  N   -0.711739
     8  C    0.805116
     9  O   -0.549623
    10  H    0.370175
    11  O   -0.538582
    12  C    0.041540
    13  H    0.204887
    14  N   -0.532263
    15  C    0.317397
    16  O   -0.517116
    17  C    0.127691
    18  C   -0.031727
    19  O   -0.643453
    20  H    0.422976
    21  H    0.137842
    22  H    0.156369
    23  H    0.156397
    24  H    0.183760
    25  C   -0.324215
    26  H    0.181880
    27  H    0.193241
    28  C   -0.029261
    29  H    0.187197
    30  N   -0.406653
    31  N    0.452805
    32  N   -0.272747
 Sum of Mulliken charges =   0.00000

 Dipole moment (field-independent basis, Debye):
    X=             -4.7436    Y=              3.7157    Z=              1.8131  Tot=              6.2925
 Quadrupole moment (field-independent basis, Debye-Ang):
   XX=           -130.3645   YY=           -110.4497   ZZ=           -105.4853
   XY=            -11.0404   XZ=             -3.7532   YZ=             -2.5048

 Normal termination of Gaussian 09 at Mon Jan 25 16:29:58 2021.
