 Gaussian 09, Revision D.01,

 -----------------
 #p b3lyp/6-31G(d)
 -----------------

 ----------------------------------------------
 SET_328_BBB272_conf1.geo_345_270_180.n.pdb.xyz
 ----------------------------------------------
 Symbolic Z-matrix:
 Charge =  0 Multiplicity = 1

 SCF Done:  E(RB3LYP) =  -648.694547569     A.U. after   15 cycles

 1\1\GINC-PIRINEUS35\SP\RB3LYP\6-31G(d)\C9H8O4\UBAFAR01\25-Jan-2021\0\\
 #p b3lyp/6-31G(d)\\SET_328_BBB272_conf1.geo_345_270_180.n.pdb.xyz\\0,1
 \C,0,-1.08,-2.08,-2.546\H,0,-0.575,-1.724,-3.446\H,0,-2.083,-2.428,-2.
 786\H,0,-0.494,-2.906,-2.135\C,0,-1.154,-0.997,-1.51\O,0,-2.117,-0.688
 ,-0.854\O,0,0.061,-0.36,-1.409\C,0,0.247,0.537,-0.367\C,0,0.428,0.105,
 0.96\C,0,0.368,-1.333,1.325\O,0,0.62,-1.542,2.637\H,0,0.556,-2.504,2.7
 82\O,0,0.131,-2.254,0.564\C,0,0.691,1.076,1.94\H,0,0.832,0.752,2.964\C
 ,0,0.777,2.425,1.615\H,0,0.982,3.157,2.388\C,0,0.602,2.829,0.29\H,0,0.

 Normal termination of Gaussian 09 at Mon Jan 25 16:23:39 2021.
 Gaussian 09:  AM64L-G09RevD.01 24-Apr-2013

 ----------------------------------------------------------------------
 #p b3lyp/6-31G(d) scrf=(iefpcm,read,solvent=n-Octanol) geom=allcheck g
 uess=read
 ----------------------------------------------------------------------

 Structure from the checkpoint file:  "SET_328_BBB272_conf1.geo_345_270_180.n.pdb.xyz.mst.n.o.chk"
 ----------------------------------------------
 SET_328_BBB272_conf1.geo_345_270_180.n.pdb.xyz
 ----------------------------------------------
 Charge =  0 Multiplicity = 1

                         Standard orientation:
 ---------------------------------------------------------------------
 Center     Atomic      Atomic             Coordinates (Angstroms)
 Number     Number       Type             X           Y           Z
 ---------------------------------------------------------------------
      1          6           0        3.389608   -0.685201   -0.299178
      2          1           0        3.509708   -1.492935   -1.023680
      3          1           0        4.142963   -0.761464    0.482713
      4          1           0        3.506384    0.263383   -0.829408
      5          6           0        2.019789   -0.714426    0.312709
      6          8           0        1.747389   -0.606989    1.482085
      7          8           0        1.072275   -0.905228   -0.666069
      8          6           0       -0.264303   -0.763110   -0.322079
      9          6           0       -0.840361    0.499869   -0.091091
     10          6           0       -0.032529    1.744607   -0.143084
     11          8           0       -0.781635    2.853026    0.053836
     12          1           0       -0.171746    3.612179    0.006004
     13          8           0        1.166870    1.810045   -0.344805
     14          6           0       -2.218641    0.558300    0.172236
     15          1           0       -2.670218    1.526611    0.350795
     16          6           0       -2.997870   -0.592727    0.199792
     17          1           0       -4.060326   -0.523523    0.404185
     18          6           0       -2.405534   -1.834020   -0.040615
     19          1           0       -3.002416   -2.738298   -0.025429
     20          6           0       -1.039275   -1.917107   -0.301008
     21          1           0       -0.558847   -2.869892   -0.491634
 ---------------------------------------------------------------------

 SCF Done:  E(RB3LYP) =  -648.712620431     A.U. after   11 cycles

 The electronic state is 1-A.
 Alpha  occ. eigenvalues --  -19.20144 -19.19864 -19.14419 -19.14293 -10.33100
 Alpha  occ. eigenvalues --  -10.32647 -10.26950 -10.21889 -10.21052 -10.20957
 Alpha  occ. eigenvalues --  -10.20457 -10.20271 -10.19327  -1.11517  -1.10756
 Alpha  occ. eigenvalues --   -1.02831  -1.01737  -0.87329  -0.78260  -0.77849
 Alpha  occ. eigenvalues --   -0.73993  -0.67351  -0.63574  -0.62130  -0.56802
 Alpha  occ. eigenvalues --   -0.52959  -0.49764  -0.49146  -0.48790  -0.48565
 Alpha  occ. eigenvalues --   -0.46988  -0.45469  -0.45055  -0.44303  -0.41215
 Alpha  occ. eigenvalues --   -0.40923  -0.40153  -0.38970  -0.37811  -0.37026
 Alpha  occ. eigenvalues --   -0.36262  -0.32731  -0.31541  -0.28198  -0.28045
 Alpha  occ. eigenvalues --   -0.27048  -0.25769
 Alpha virt. eigenvalues --   -0.05609  -0.01489   0.01008   0.05087   0.08180
 Alpha virt. eigenvalues --    0.09943   0.11960   0.14089   0.14982   0.15992
 Alpha virt. eigenvalues --    0.16731   0.17783   0.18208   0.19619   0.23245

 Mulliken charges:
               1
     1  C   -0.533577
     2  H    0.186424
     3  H    0.182175
     4  H    0.205924
     5  C    0.625940
     6  O   -0.476184
     7  O   -0.521187
     8  C    0.312890
     9  C    0.070273
    10  C    0.563254
    11  O   -0.586477
    12  H    0.439764
    13  O   -0.500411
    14  C   -0.188914
    15  H    0.175145
    16  C   -0.130066
    17  H    0.155641
    18  C   -0.135822
    19  H    0.161003
    20  C   -0.165725
    21  H    0.159931
 Sum of Mulliken charges =   0.00000

 Dipole moment (field-independent basis, Debye):
    X=             -2.0067    Y=             -0.1487    Z=             -1.6087  Tot=              2.5762
 Quadrupole moment (field-independent basis, Debye-Ang):
   XX=            -62.2773   YY=            -59.1824   ZZ=            -79.4291
   XY=              0.3155   XZ=             -4.0969   YZ=              2.1521

 1\1\GINC-PIRINEUS35\SP\RB3LYP\6-31G(d)\C9H8O4\UBAFAR01\25-Jan-2021\0\\
 #p b3lyp/6-31G(d) scrf=(iefpcm,read,solvent=n-Octanol) geom=allcheck g
 uess=read\\SET_328_BBB272_conf1.geo_345_270_180.n.pdb.xyz\\0,1\C,0,-1.
 08,-2.08,-2.546\H,0,-0.575,-1.724,-3.446\H,0,-2.083,-2.428,-2.786\H,0,
 -0.494,-2.906,-2.135\C,0,-1.154,-0.997,-1.51\O,0,-2.117,-0.688,-0.854\
 O,0,0.061,-0.36,-1.409\C,0,0.247,0.537,-0.367\C,0,0.428,0.105,0.96\C,0
 ,0.368,-1.333,1.325\O,0,0.62,-1.542,2.637\H,0,0.556,-2.504,2.782\O,0,0
 .131,-2.254,0.564\C,0,0.691,1.076,1.94\H,0,0.832,0.752,2.964\C,0,0.777

 Normal termination of Gaussian 09 at Mon Jan 25 16:24:44 2021.
