 Gaussian 09, Revision D.01,

 -----------------
 #p b3lyp/6-31G(d)
 -----------------

 ----------------------------------------------
 SET_328_BBB321_conf1.geo_180_030_300.n.pdb.xyz
 ----------------------------------------------
 Symbolic Z-matrix:
 Charge =  0 Multiplicity = 1

 SCF Done:  E(RB3LYP) =  -1212.31439907     A.U. after   15 cycles
 Normal termination of Gaussian 09 at Thu Jan 28 04:50:54 2021.
 Gaussian 09:  AM64L-G09RevD.01 24-Apr-2013

 ----------------------------------------------------------------------
 #p b3lyp/6-31G(d) scrf=(iefpcm,read,solvent=n-Octanol) geom=allcheck g
 uess=read
 ----------------------------------------------------------------------

 Structure from the checkpoint file:  "SET_328_BBB321_conf1.geo_180_030_300.n.pdb.xyz.mst.n.o.chk"
 ----------------------------------------------
 SET_328_BBB321_conf1.geo_180_030_300.n.pdb.xyz
 ----------------------------------------------
 Charge =  0 Multiplicity = 1

                         Standard orientation:
 ---------------------------------------------------------------------
 Center     Atomic      Atomic             Coordinates (Angstroms)
 Number     Number       Type             X           Y           Z
 ---------------------------------------------------------------------
      1          6           0       -4.576649    2.872593    0.045737
      2          1           0       -4.500251    3.529684    0.914700
      3          1           0       -5.541969    2.363814    0.069608
      4          1           0       -4.531205    3.502837   -0.846480
      5          6           0       -3.385038    1.931551    0.040529
      6          8           0       -2.233837    2.357195    0.059806
      7          7           0       -3.713461    0.599898    0.008343
      8          1           0       -4.700838    0.384975   -0.005264
      9          6           0       -2.862887   -0.523604   -0.009367
     10          6           0       -3.466257   -1.788405   -0.042475
     11          6           0       -2.672427   -2.933932   -0.061171
     12          6           0       -1.284146   -2.834105   -0.047330
     13          1           0       -0.676961   -3.732738   -0.066204
     14          1           0       -3.144542   -3.910045   -0.087879
     15          1           0       -4.548730   -1.873401   -0.054714
     16          6           0       -1.466392   -0.419474    0.004608
     17          1           0       -1.008133    0.556332    0.032286
     18          6           0       -0.670145   -1.573134   -0.013074
     19          6           0        0.798922   -1.441268    0.005030
     20          7           0        1.370621   -0.180053   -0.024624
     21          6           0        1.689256   -2.480456    0.051999
     22          1           0        1.477271   -3.536663    0.083538
     23         16           0        3.319750   -1.888359    0.062805
     24          6           0        2.687735   -0.225072    0.002097
     25          7           0        3.600334    0.772212   -0.010910
     26          6           0        3.217613    2.038178   -0.037610
     27          7           0        4.197215    2.988082    0.064578
     28          1           0        4.015325    3.905467   -0.320211
     29          1           0        5.135071    2.640106   -0.082532
     30          7           0        1.943755    2.474826   -0.140004
     31          1           0        1.218277    1.762125   -0.077570
     32          1           0        1.714643    3.441693    0.041888
 ---------------------------------------------------------------------

 SCF Done:  E(RB3LYP) =  -1212.34490789     A.U. after   11 cycles

 The electronic state is 1-A.
 Alpha  occ. eigenvalues --  -88.89909 -19.12012 -14.37836 -14.35387 -14.35182
 Alpha  occ. eigenvalues --  -14.32103 -14.30806 -10.30603 -10.29802 -10.27283
 Alpha  occ. eigenvalues --  -10.23698 -10.22077 -10.20478 -10.20080 -10.19313
 Alpha  occ. eigenvalues --  -10.19243 -10.19197 -10.18661 -10.18047  -7.96090
 Alpha  occ. eigenvalues --   -5.92480  -5.92144  -5.91772  -1.03920  -0.99788
 Alpha  occ. eigenvalues --   -0.95331  -0.94343  -0.88210  -0.87537  -0.84951
 Alpha  occ. eigenvalues --   -0.78633  -0.77455  -0.75759  -0.72476  -0.70835
 Alpha  occ. eigenvalues --   -0.64403  -0.63007  -0.61636  -0.58476  -0.58016
 Alpha  occ. eigenvalues --   -0.56419  -0.54740  -0.52740  -0.51066  -0.49426
 Alpha  occ. eigenvalues --   -0.48517  -0.47811  -0.47161  -0.45405  -0.44872
 Alpha  occ. eigenvalues --   -0.43445  -0.43398  -0.42039  -0.41079  -0.40614
 Alpha  occ. eigenvalues --   -0.40253  -0.40046  -0.39101  -0.37493  -0.35811
 Alpha  occ. eigenvalues --   -0.35464  -0.34517  -0.31586  -0.29235  -0.28034
 Alpha  occ. eigenvalues --   -0.27715  -0.27311  -0.26853  -0.25437  -0.24291
 Alpha  occ. eigenvalues --   -0.22417  -0.19147
 Alpha virt. eigenvalues --   -0.03185  -0.01063  -0.00797   0.02815   0.03901
 Alpha virt. eigenvalues --    0.07528   0.07551   0.08225   0.09557   0.10463
 Alpha virt. eigenvalues --    0.11646   0.12738   0.13135   0.13670   0.13964

 Mulliken charges:
               1
     1  C   -0.543880
     2  H    0.190641
     3  H    0.164064
     4  H    0.191398
     5  C    0.601226
     6  O   -0.525050
     7  N   -0.715317
     8  H    0.356226
     9  C    0.351061
    10  C   -0.202693
    11  C   -0.150992
    12  C   -0.193863
    13  H    0.134356
    14  H    0.142760
    15  H    0.141199
    16  C   -0.239315
    17  H    0.198044
    18  C    0.103079
    19  C    0.286538
    20  N   -0.573760
    21  C   -0.427143
    22  H    0.182271
    23  S    0.195881
    24  C    0.301017
    25  N   -0.575886
    26  C    0.654731
    27  N   -0.760384
    28  H    0.361067
    29  H    0.363821
    30  N   -0.784643
    31  H    0.411259
    32  H    0.362286
 Sum of Mulliken charges =   0.00000

 Dipole moment (field-independent basis, Debye):
    X=             -4.1548    Y=              3.6611    Z=             -0.6510  Tot=              5.5758
 Quadrupole moment (field-independent basis, Debye-Ang):
   XX=            -82.2018   YY=            -89.2099   ZZ=           -121.5441
   XY=             15.3040   XZ=             -3.4118   YZ=             -2.5567

 Normal termination of Gaussian 09 at Thu Jan 28 04:53:59 2021.
