 Gaussian 09, Revision D.01,

 -----------------
 #p b3lyp/6-31G(d)
 -----------------

 ----------------------------------------------
 SET_328_BBB256_conf1.geo_075_180_090.n.pdb.xyz
 ----------------------------------------------
 Symbolic Z-matrix:
 Charge =  0 Multiplicity = 1

 SCF Done:  E(RB3LYP) =  -421.566830308     A.U. after   14 cycles
 Normal termination of Gaussian 09 at Sun Jan 24 22:58:28 2021.
 Gaussian 09:  AM64L-G09RevD.01 24-Apr-2013

 ----------------------------------------------------------------------
 #p b3lyp/6-31G(d) scrf=(iefpcm,read,solvent=n-Octanol) geom=allcheck g
 uess=read
 ----------------------------------------------------------------------

 Structure from the checkpoint file:  "SET_328_BBB256_conf1.geo_075_180_090.n.pdb.xyz.mst.n.o.chk"
 ----------------------------------------------
 SET_328_BBB256_conf1.geo_075_180_090.n.pdb.xyz
 ----------------------------------------------
 Charge =  0 Multiplicity = 1

                         Standard orientation:
 ---------------------------------------------------------------------
 Center     Atomic      Atomic             Coordinates (Angstroms)
 Number     Number       Type             X           Y           Z
 ---------------------------------------------------------------------
      1          6           0        3.750214    0.613184   -0.382432
      2          1           0        3.321556    0.604982   -1.388624
      3          1           0        4.823961    0.429999   -0.478335
      4          1           0        3.603419    1.626081    0.030784
      5          7           0        3.144167   -0.443546    0.421542
      6          1           0        3.635892   -0.495532    1.307480
      7          6           0        1.727635   -0.210488    0.691316
      8          1           0        1.512535    0.831798    0.976125
      9          1           0        1.432038   -0.845871    1.531406
     10          6           0        0.857494   -0.553177   -0.525163
     11          1           0        0.980209   -1.611950   -0.772218
     12          1           0        1.211000    0.026793   -1.384900
     13          6           0       -0.595302   -0.234892   -0.286619
     14          7           0       -0.908328    1.066858   -0.151971
     15          6           0       -2.186612    1.384346    0.083104
     16          1           0       -2.402282    2.445397    0.183574
     17          6           0       -3.211749    0.447589    0.195860
     18          1           0       -4.231651    0.768140    0.384608
     19          6           0       -2.886725   -0.900369    0.057361
     20          1           0       -3.649462   -1.666318    0.135467
     21          6           0       -1.558974   -1.245341   -0.185373
     22          1           0       -1.263979   -2.281810   -0.300685
 ---------------------------------------------------------------------

 SCF Done:  E(RB3LYP) =  -421.578262832     A.U. after   10 cycles

 The electronic state is 1-A.
 Alpha  occ. eigenvalues --  -14.32668 -14.31283 -10.22594 -10.22103 -10.20584
 Alpha  occ. eigenvalues --  -10.20181 -10.19576 -10.19518 -10.19442 -10.17991
 Alpha  occ. eigenvalues --   -0.93969  -0.89563  -0.80031  -0.78579  -0.72499
 Alpha  occ. eigenvalues --   -0.67051  -0.62883  -0.61641  -0.57845  -0.51565
 Alpha  occ. eigenvalues --   -0.49300  -0.48217  -0.45787  -0.44521  -0.43510
 Alpha  occ. eigenvalues --   -0.41564  -0.40364  -0.39460  -0.38579  -0.37055
 Alpha  occ. eigenvalues --   -0.35699  -0.34578  -0.33391  -0.28327  -0.25520
 Alpha  occ. eigenvalues --   -0.25331  -0.21781
 Alpha virt. eigenvalues --   -0.02296  -0.00641   0.09353   0.09917   0.11598
 Alpha virt. eigenvalues --    0.12898   0.14698   0.15288   0.16411   0.16645
 Alpha virt. eigenvalues --    0.17494   0.17666   0.18818   0.19899   0.21597

 Mulliken charges:
               1
     1  C   -0.312117
     2  H    0.155001
     3  H    0.150034
     4  H    0.125572
     5  N   -0.557114
     6  H    0.314456
     7  C   -0.128991
     8  H    0.132384
     9  H    0.136203
    10  C   -0.316777
    11  H    0.145942
    12  H    0.156314
    13  C    0.295120
    14  N   -0.480555
    15  C    0.026945
    16  H    0.144498
    17  C   -0.149983
    18  H    0.148825
    19  C   -0.107543
    20  H    0.155870
    21  C   -0.179453
    22  H    0.145368
 Sum of Mulliken charges =   0.00000

 Dipole moment (field-independent basis, Debye):
    X=             -1.1748    Y=             -0.8400    Z=              0.9729  Tot=              1.7413
 Quadrupole moment (field-independent basis, Debye-Ang):
   XX=            -49.6753   YY=            -59.7904   ZZ=            -60.0706
   XY=              3.2472   XZ=              1.6526   YZ=              0.0462

 Normal termination of Gaussian 09 at Sun Jan 24 22:59:18 2021.
