 Gaussian 09, Revision D.01,

 -----------------
 #p b3lyp/6-31G(d)
 -----------------

 ----------------------------------------------
 SET_328_BBB321_conf1.geo_180_150_045.n.pdb.xyz
 ----------------------------------------------
 Symbolic Z-matrix:
 Charge =  0 Multiplicity = 1

 SCF Done:  E(RB3LYP) =  -1212.31341473     A.U. after   16 cycles
 Normal termination of Gaussian 09 at Thu Jan 28 04:51:01 2021.
 Gaussian 09:  AM64L-G09RevD.01 24-Apr-2013

 ----------------------------------------------------------------------
 #p b3lyp/6-31G(d) scrf=(iefpcm,read,solvent=n-Octanol) geom=allcheck g
 uess=read
 ----------------------------------------------------------------------

 Structure from the checkpoint file:  "SET_328_BBB321_conf1.geo_180_150_045.n.pdb.xyz.mst.n.o.chk"
 ----------------------------------------------
 SET_328_BBB321_conf1.geo_180_150_045.n.pdb.xyz
 ----------------------------------------------
 Charge =  0 Multiplicity = 1

                         Standard orientation:
 ---------------------------------------------------------------------
 Center     Atomic      Atomic             Coordinates (Angstroms)
 Number     Number       Type             X           Y           Z
 ---------------------------------------------------------------------
      1          6           0        6.264355   -0.890537    0.393142
      2          1           0        6.796664    0.023292    0.123405
      3          1           0        6.622229   -1.711979   -0.231367
      4          1           0        6.499946   -1.138196    1.432729
      5          6           0        4.758600   -0.786474    0.239693
      6          8           0        4.040274   -1.781833    0.267572
      7          7           0        4.289166    0.493779    0.091440
      8          1           0        4.985779    1.225399    0.080653
      9          6           0        2.959769    0.938125   -0.051456
     10          6           0        2.755454    2.318551   -0.211347
     11          6           0        1.463781    2.814582   -0.349002
     12          6           0        0.367201    1.954370   -0.334390
     13          1           0       -0.638858    2.335362   -0.451607
     14          1           0        1.312684    3.882261   -0.472683
     15          1           0        3.606567    2.993275   -0.223817
     16          6           0        1.862860    0.073260   -0.031529
     17          1           0        2.038862   -0.981665    0.109560
     18          6           0        0.561997    0.576657   -0.179297
     19          6           0       -0.592166   -0.338936   -0.180974
     20          7           0       -1.870626    0.178323   -0.050866
     21          6           0       -0.525713   -1.698931   -0.321234
     22          1           0        0.350601   -2.311757   -0.465780
     23         16           0       -2.116195   -2.393396   -0.289902
     24          6           0       -2.796282   -0.761883   -0.082542
     25          7           0       -4.142621   -0.673751    0.019571
     26          6           0       -4.727453    0.485821    0.263738
     27          7           0       -4.102815    1.681570    0.349980
     28          1           0       -3.085515    1.649084    0.342091
     29          1           0       -4.575486    2.472361    0.767459
     30          7           0       -6.080498    0.472747    0.462176
     31          1           0       -6.539020   -0.383666    0.181819
     32          1           0       -6.600185    1.318941    0.270471
 ---------------------------------------------------------------------

 SCF Done:  E(RB3LYP) =  -1212.34499944     A.U. after   12 cycles

 The electronic state is 1-A.
 Alpha  occ. eigenvalues --  -88.89928 -19.12077 -14.37863 -14.35469 -14.35314
 Alpha  occ. eigenvalues --  -14.32242 -14.30913 -10.30674 -10.29831 -10.27356
 Alpha  occ. eigenvalues --  -10.23775 -10.22042 -10.20454 -10.20033 -10.19274
 Alpha  occ. eigenvalues --  -10.19237 -10.19217 -10.18337 -10.18309  -7.96109
 Alpha  occ. eigenvalues --   -5.92497  -5.92162  -5.91792  -1.03987  -0.99897
 Alpha  occ. eigenvalues --   -0.95373  -0.94401  -0.88334  -0.87626  -0.84992
 Alpha  occ. eigenvalues --   -0.78632  -0.77438  -0.75929  -0.72362  -0.70916
 Alpha  occ. eigenvalues --   -0.64264  -0.63616  -0.61187  -0.58483  -0.58018
 Alpha  occ. eigenvalues --   -0.56594  -0.54867  -0.52736  -0.51210  -0.49343
 Alpha  occ. eigenvalues --   -0.48336  -0.48158  -0.47246  -0.45454  -0.44619
 Alpha  occ. eigenvalues --   -0.43697  -0.43330  -0.42460  -0.40820  -0.40516
 Alpha  occ. eigenvalues --   -0.40208  -0.40136  -0.39140  -0.37323  -0.36239
 Alpha  occ. eigenvalues --   -0.35813  -0.34062  -0.31531  -0.29308  -0.27952
 Alpha  occ. eigenvalues --   -0.27807  -0.27375  -0.26971  -0.25545  -0.24658
 Alpha  occ. eigenvalues --   -0.22205  -0.19280
 Alpha virt. eigenvalues --   -0.03075  -0.01534  -0.00513   0.02819   0.03983
 Alpha virt. eigenvalues --    0.07164   0.07652   0.08152   0.09951   0.10411
 Alpha virt. eigenvalues --    0.11402   0.12694   0.13046   0.13780   0.14182

 Mulliken charges:
               1
     1  C   -0.544149
     2  H    0.165222
     3  H    0.189347
     4  H    0.193719
     5  C    0.600111
     6  O   -0.523945
     7  N   -0.712257
     8  H    0.356648
     9  C    0.345875
    10  C   -0.202258
    11  C   -0.147274
    12  C   -0.184280
    13  H    0.144440
    14  H    0.141411
    15  H    0.141502
    16  C   -0.242463
    17  H    0.180501
    18  C    0.103072
    19  C    0.279997
    20  N   -0.571761
    21  C   -0.422350
    22  H    0.186809
    23  S    0.197845
    24  C    0.299343
    25  N   -0.573023
    26  C    0.652452
    27  N   -0.775725
    28  H    0.393065
    29  H    0.362303
    30  N   -0.760038
    31  H    0.364602
    32  H    0.361258
 Sum of Mulliken charges =   0.00000

 Dipole moment (field-independent basis, Debye):
    X=             -0.7883    Y=              7.1049    Z=              0.4980  Tot=              7.1659
 Quadrupole moment (field-independent basis, Debye-Ang):
   XX=            -48.7551   YY=           -109.7680   ZZ=           -120.9284
   XY=             -6.8087   XZ=             -0.8001   YZ=              2.7873

 Normal termination of Gaussian 09 at Thu Jan 28 04:54:27 2021.
