 Gaussian 09, Revision D.01,

 -----------------
 #p b3lyp/6-31G(d)
 -----------------

 ----------------------------------------------
 SET_328_BBB227_conf1.geo_165_180_060.n.pdb.xyz
 ----------------------------------------------
 Symbolic Z-matrix:
 Charge =  0 Multiplicity = 1

 SCF Done:  E(RB3LYP) =  -1203.26655356     A.U. after   15 cycles
 Normal termination of Gaussian 09 at Sun Jan 24 23:03:08 2021.
 Gaussian 09:  AM64L-G09RevD.01 24-Apr-2013

 ----------------------------------------------------------------------
 #p b3lyp/6-31G(d) scrf=(iefpcm,read,solvent=n-Octanol) geom=allcheck g
 uess=read
 ----------------------------------------------------------------------

 Structure from the checkpoint file:  "SET_328_BBB227_conf1.geo_165_180_060.n.pdb.xyz.mst.n.o.chk"
 ----------------------------------------------
 SET_328_BBB227_conf1.geo_165_180_060.n.pdb.xyz
 ----------------------------------------------
 Charge =  0 Multiplicity = 1

                         Standard orientation:
 ---------------------------------------------------------------------
 Center     Atomic      Atomic             Coordinates (Angstroms)
 Number     Number       Type             X           Y           Z
 ---------------------------------------------------------------------
      1         16           0       -1.572617    2.636515    0.825528
      2          6           0       -1.232451    1.228482   -0.082891
      3          7           0       -2.216879    0.346907   -0.398330
      4          6           0       -3.617405    0.441807    0.040054
      5          6           0       -4.536895   -0.168928   -1.030816
      6          6           0       -4.454868   -1.702120   -1.104765
      7          6           0       -4.687763   -2.342678    0.269954
      8          6           0       -3.729297   -1.770324    1.321778
      9          6           0       -3.834030   -0.242642    1.403732
     10          1           0       -3.118443    0.164349    2.123297
     11          1           0       -4.834972    0.034797    1.759619
     12          1           0       -2.699251   -2.053013    1.067687
     13          1           0       -3.936490   -2.210167    2.303297
     14          1           0       -4.578069   -3.429918    0.203249
     15          1           0       -5.723325   -2.151149    0.582946
     16          1           0       -3.473186   -2.016399   -1.486045
     17          1           0       -5.187470   -2.071620   -1.829428
     18          1           0       -4.319322    0.282283   -2.005551
     19          1           0       -5.564067    0.116647   -0.776081
     20          1           0       -3.830300    1.507154    0.145244
     21          1           0       -2.023796   -0.334180   -1.117108
     22          7           0        0.028088    0.915805   -0.513941
     23          6           0        0.384698   -0.360692   -1.143919
     24          6           0        1.723128   -0.894927   -0.618597
     25          1           0        1.610696   -1.184223    0.430131
     26          1           0        1.976121   -1.799424   -1.179664
     27          1           0       -0.378744   -1.105886   -0.922700
     28          1           0        0.426952   -0.235598   -2.235377
     29          6           0        1.082290    1.932252   -0.609820
     30          1           0        0.733044    2.820606   -0.087285
     31          1           0        1.209152    2.190354   -1.671689
     32          6           0        2.411628    1.438383   -0.041534
     33          1           0        2.314388    1.265172    1.035735
     34          1           0        3.168600    2.217925   -0.182763
     35          6           0        2.859806    0.132722   -0.722792
     36          1           0        3.035696    0.347606   -1.786516
     37          6           0        4.138802   -0.400776   -0.146686
     38          6           0        5.353280   -0.572770   -0.768213
     39          1           0        5.687313   -0.383752   -1.777311
     40          7           0        6.195455   -1.084693    0.196557
     41          1           0        7.169664   -1.328322    0.074172
     42          6           0        5.469055   -1.200728    1.342435
     43          1           0        5.895822   -1.581607    2.258569
     44          7           0        4.225049   -0.799196    1.175370
 ---------------------------------------------------------------------

 SCF Done:  E(RB3LYP) =  -1203.29535409     A.U. after   11 cycles

 The electronic state is 1-A.
 Alpha  occ. eigenvalues --  -88.80970 -14.38764 -14.37127 -14.36596 -14.31003
 Alpha  occ. eigenvalues --  -10.29677 -10.23705 -10.23003 -10.21983 -10.21258
 Alpha  occ. eigenvalues --  -10.20949 -10.19855 -10.19365 -10.18652 -10.18546
 Alpha  occ. eigenvalues --  -10.18415 -10.18088 -10.17838 -10.17710 -10.17547
 Alpha  occ. eigenvalues --   -7.87208  -5.83790  -5.83110  -5.82841  -1.00892
 Alpha  occ. eigenvalues --   -0.98919  -0.92283  -0.86877  -0.82810  -0.80876
 Alpha  occ. eigenvalues --   -0.76868  -0.75380  -0.74230  -0.73358  -0.71415
 Alpha  occ. eigenvalues --   -0.66792  -0.63757  -0.61699  -0.61216  -0.60865
 Alpha  occ. eigenvalues --   -0.59527  -0.56947  -0.56700  -0.55749  -0.54122
 Alpha  occ. eigenvalues --   -0.52571  -0.48217  -0.47425  -0.46596  -0.45948
 Alpha  occ. eigenvalues --   -0.45227  -0.44537  -0.43973  -0.43549  -0.43335
 Alpha  occ. eigenvalues --   -0.42646  -0.41831  -0.41015  -0.39471  -0.39098
 Alpha  occ. eigenvalues --   -0.37986  -0.37821  -0.37297  -0.36083  -0.36061
 Alpha  occ. eigenvalues --   -0.35448  -0.34657  -0.33469  -0.33049  -0.32630
 Alpha  occ. eigenvalues --   -0.32071  -0.30309  -0.30212  -0.27390  -0.26862
 Alpha  occ. eigenvalues --   -0.23915  -0.22183  -0.20772  -0.19902
 Alpha virt. eigenvalues --    0.00487   0.03247   0.05602   0.06755   0.08975
 Alpha virt. eigenvalues --    0.09430   0.09671   0.10733   0.11604   0.12338
 Alpha virt. eigenvalues --    0.13177   0.13511   0.13969   0.14466   0.14953

 Mulliken charges:
               1
     1  S   -0.408211
     2  C    0.370684
     3  N   -0.603237
     4  C    0.055221
     5  C   -0.298711
     6  C   -0.271844
     7  C   -0.256789
     8  C   -0.266618
     9  C   -0.256808
    10  H    0.154364
    11  H    0.133679
    12  H    0.130484
    13  H    0.137879
    14  H    0.135582
    15  H    0.133594
    16  H    0.125696
    17  H    0.144369
    18  H    0.145077
    19  H    0.150325
    20  H    0.172345
    21  H    0.345738
    22  N   -0.406172
    23  C   -0.169561
    24  C   -0.263365
    25  H    0.163514
    26  H    0.146842
    27  H    0.156954
    28  H    0.159003
    29  C   -0.145166
    30  H    0.192734
    31  H    0.142573
    32  C   -0.263102
    33  H    0.159116
    34  H    0.142610
    35  C   -0.172985
    36  H    0.127127
    37  C    0.240527
    38  C   -0.029061
    39  H    0.164256
    40  N   -0.552954
    41  H    0.370443
    42  C    0.204408
    43  H    0.167013
    44  N   -0.507576
 Sum of Mulliken charges =   0.00000

 Dipole moment (field-independent basis, Debye):
    X=              5.3680    Y=             -6.3499    Z=             -5.2792  Tot=              9.8492
 Quadrupole moment (field-independent basis, Debye-Ang):
   XX=            -74.0051   YY=           -141.2740   ZZ=           -127.3911
   XY=              2.5331   XZ=             -1.4060   YZ=             -4.8722

 Normal termination of Gaussian 09 at Sun Jan 24 23:08:01 2021.
