 Gaussian 09, Revision D.01,

 -----------------
 #p b3lyp/6-31G(d)
 -----------------

 ---------------------------------------------
 SET_328_BBB29_conf1.geo_090_075_075.n.pdb.xyz
 ---------------------------------------------
 Symbolic Z-matrix:
 Charge =  0 Multiplicity = 1

 SCF Done:  E(RB3LYP) =  -1548.51094811     A.U. after   16 cycles
 Normal termination of Gaussian 09 at Sun Jan 24 23:14:17 2021.
 Gaussian 09:  AM64L-G09RevD.01 24-Apr-2013

 ----------------------------------------------------------------------
 #p b3lyp/6-31G(d) scrf=(iefpcm,read,solvent=n-Octanol) geom=allcheck g
 uess=read
 ----------------------------------------------------------------------

 Structure from the checkpoint file:  "SET_328_BBB29_conf1.geo_090_075_075.n.pdb.xyz.mst.n.o.chk"
 ---------------------------------------------
 SET_328_BBB29_conf1.geo_090_075_075.n.pdb.xyz
 ---------------------------------------------
 Charge =  0 Multiplicity = 1

                         Standard orientation:
 ---------------------------------------------------------------------
 Center     Atomic      Atomic             Coordinates (Angstroms)
 Number     Number       Type             X           Y           Z
 ---------------------------------------------------------------------
      1          7           0        1.807101    3.749840    1.068164
      2          1           0        2.422197    3.795377    1.879557
      3          1           0        1.624186    4.718527    0.806664
      4          6           0        0.543196    3.103137    1.443626
      5          1           0       -0.051126    3.676035    2.173777
      6          1           0        0.785335    2.144249    1.913574
      7          6           0       -0.313585    2.847811    0.203249
      8          1           0       -0.519237    3.799472   -0.301360
      9          1           0       -1.282081    2.437694    0.501764
     10          6           0        0.368614    1.922627   -0.806419
     11          1           0        1.384679    2.290711   -0.938483
     12          1           0       -0.135754    1.962346   -1.779864
     13          7           0        0.468120    0.542253   -0.315502
     14          6           0       -0.716910   -0.171629   -0.056842
     15          6           0       -1.945802    0.221578   -0.605719
     16          1           0       -2.009269    1.077241   -1.264684
     17          6           0       -3.098960   -0.499552   -0.308217
     18         17           0       -4.628173    0.037420   -0.997595
     19          6           0       -3.077134   -1.629732    0.499836
     20          1           0       -3.986374   -2.176390    0.714855
     21          6           0       -1.850122   -2.037558    1.023558
     22          1           0       -1.796948   -2.918877    1.651014
     23          6           0       -0.688270   -1.311165    0.772914
     24         16           0        0.837403   -1.757025    1.568703
     25          6           0        1.949796   -1.317755    0.248417
     26          6           0        1.661611   -0.187841   -0.539465
     27          6           0        2.573912    0.167870   -1.542338
     28          1           0        2.361000    1.007066   -2.192298
     29          6           0        3.755443   -0.550669   -1.721119
     30          1           0        4.448606   -0.243011   -2.495598
     31          6           0        4.033724   -1.664532   -0.930535
     32          1           0        4.946878   -2.229603   -1.073067
     33          6           0        3.114674   -2.056054    0.041974
     34          1           0        3.300725   -2.928453    0.657859
 ---------------------------------------------------------------------

 SCF Done:  E(RB3LYP) =  -1548.53254829     A.U. after   10 cycles

 The electronic state is 1-A.
 Alpha  occ. eigenvalues -- -101.55214 -88.89521 -14.37182 -14.30848 -10.25642
 Alpha  occ. eigenvalues --  -10.24823 -10.24042 -10.22828 -10.22377 -10.21763
 Alpha  occ. eigenvalues --  -10.20721 -10.20521 -10.20250 -10.20209 -10.19814
 Alpha  occ. eigenvalues --  -10.19412 -10.19356 -10.19035 -10.18261  -9.46843
 Alpha  occ. eigenvalues --   -7.95571  -7.23231  -7.22275  -7.22244  -5.92073
 Alpha  occ. eigenvalues --   -5.91721  -5.91072  -0.97241  -0.89282  -0.87597
 Alpha  occ. eigenvalues --   -0.86106  -0.84783  -0.79953  -0.77064  -0.76951
 Alpha  occ. eigenvalues --   -0.74549  -0.73257  -0.68829  -0.67137  -0.63324
 Alpha  occ. eigenvalues --   -0.61503  -0.60956  -0.57931  -0.56379  -0.54186
 Alpha  occ. eigenvalues --   -0.51330  -0.48898  -0.48759  -0.48582  -0.47299
 Alpha  occ. eigenvalues --   -0.46474  -0.46178  -0.44667  -0.44219  -0.42872
 Alpha  occ. eigenvalues --   -0.41677  -0.41367  -0.40206  -0.39955  -0.38778
 Alpha  occ. eigenvalues --   -0.38437  -0.36697  -0.36454  -0.35677  -0.35028
 Alpha  occ. eigenvalues --   -0.34765  -0.33840  -0.32787  -0.31736  -0.30743
 Alpha  occ. eigenvalues --   -0.29266  -0.26230  -0.25324  -0.23403  -0.22974
 Alpha  occ. eigenvalues --   -0.19235
 Alpha virt. eigenvalues --   -0.02194  -0.01673  -0.00750   0.00614   0.02261
 Alpha virt. eigenvalues --    0.03749   0.07751   0.08641   0.11121   0.11688
 Alpha virt. eigenvalues --    0.12974   0.13581   0.13920   0.13992   0.14486

 Mulliken charges:
               1
     1  N   -0.738636
     2  H    0.315195
     3  H    0.308601
     4  C   -0.140174
     5  H    0.123947
     6  H    0.156812
     7  C   -0.275349
     8  H    0.141607
     9  H    0.151178
    10  C   -0.161751
    11  H    0.190796
    12  H    0.150598
    13  N   -0.579021
    14  C    0.316109
    15  C   -0.168954
    16  H    0.167804
    17  C   -0.089604
    18  Cl  -0.037882
    19  C   -0.128305
    20  H    0.161775
    21  C   -0.184734
    22  H    0.161858
    23  C   -0.122713
    24  S    0.149079
    25  C   -0.129668
    26  C    0.312807
    27  C   -0.172193
    28  H    0.151843
    29  C   -0.155666
    30  H    0.144859
    31  C   -0.129089
    32  H    0.142389
    33  C   -0.184962
    34  H    0.151444
 Sum of Mulliken charges =   0.00000

 Dipole moment (field-independent basis, Debye):
    X=              1.7468    Y=              2.5397    Z=              0.1709  Tot=              3.0872
 Quadrupole moment (field-independent basis, Debye-Ang):
   XX=           -127.0343   YY=           -108.7679   ZZ=           -122.2527
   XY=              2.2295   XZ=             -4.6638   YZ=             -0.1422

 Normal termination of Gaussian 09 at Sun Jan 24 23:18:05 2021.
