 Gaussian 09, Revision D.01,

 -----------------
 #p b3lyp/6-31G(d)
 -----------------

 ----------------------------------------------
 SET_328_BBB292_conf1.geo_270_300_120.n.pdb.xyz
 ----------------------------------------------
 Symbolic Z-matrix:
 Charge =  0 Multiplicity = 1

 SCF Done:  E(RB3LYP) =  -705.225539743     A.U. after   15 cycles
 Normal termination of Gaussian 09 at Mon Jan 25 16:25:48 2021.
 Gaussian 09:  AM64L-G09RevD.01 24-Apr-2013

 ----------------------------------------------------------------------
 #p b3lyp/6-31G(d) scrf=(iefpcm,read,solvent=n-Octanol) geom=allcheck g
 uess=read
 ----------------------------------------------------------------------

 Structure from the checkpoint file:  "SET_328_BBB292_conf1.geo_270_300_120.n.pdb.xyz.mst.n.o.chk"
 ----------------------------------------------
 SET_328_BBB292_conf1.geo_270_300_120.n.pdb.xyz
 ----------------------------------------------
 Charge =  0 Multiplicity = 1

                         Standard orientation:
 ---------------------------------------------------------------------
 Center     Atomic      Atomic             Coordinates (Angstroms)
 Number     Number       Type             X           Y           Z
 ---------------------------------------------------------------------
      1          7           0       -1.997606    1.619154    0.940463
      2          1           0       -2.211725    2.606379    0.821903
      3          1           0       -1.000432    1.545443    1.136105
      4          6           0       -2.347865    0.841977   -0.256790
      5          6           0       -2.850561   -0.545079    0.198077
      6          8           0       -3.130063   -0.604991    1.503121
      7          1           0       -2.864048    0.298351    1.841496
      8          8           0       -3.012772   -1.482322   -0.556459
      9          1           0       -3.220845    1.320134   -0.713898
     10          6           0       -1.257272    0.713261   -1.345026
     11          1           0       -1.120789    1.696415   -1.807759
     12          1           0       -1.652694    0.040094   -2.109595
     13          6           0        0.072884    0.205897   -0.833153
     14          6           0        1.101053    1.112094   -0.526115
     15          1           0        0.966205    2.176176   -0.687091
     16          6           0        2.321573    0.665106   -0.032150
     17          8           0        3.316234    1.552370    0.257836
     18          1           0        4.073683    1.034806    0.580257
     19          6           0        2.532614   -0.709911    0.164928
     20          8           0        3.774160   -1.032494    0.651517
     21          1           0        3.853158   -1.992721    0.766116
     22          6           0        1.523230   -1.616515   -0.137871
     23          1           0        1.695097   -2.680280    0.009122
     24          6           0        0.299590   -1.161540   -0.633049
     25          1           0       -0.486335   -1.871112   -0.861134
 ---------------------------------------------------------------------

 SCF Done:  E(RB3LYP) =  -705.254359897     A.U. after   11 cycles

 The electronic state is 1-A.
 Alpha  occ. eigenvalues --  -19.18856 -19.17902 -19.17577 -19.12912 -14.34374
 Alpha  occ. eigenvalues --  -10.31082 -10.25026 -10.24819 -10.23761 -10.19619
 Alpha  occ. eigenvalues --  -10.19454 -10.19363 -10.18860 -10.18435  -1.09210
 Alpha  occ. eigenvalues --   -1.07671  -1.04696  -1.00964  -0.90869  -0.85341
 Alpha  occ. eigenvalues --   -0.77855  -0.74578  -0.72337  -0.66217  -0.62801
 Alpha  occ. eigenvalues --   -0.60468  -0.58475  -0.55067  -0.54351  -0.52215
 Alpha  occ. eigenvalues --   -0.49774  -0.48250  -0.46987  -0.45422  -0.44035
 Alpha  occ. eigenvalues --   -0.43941  -0.43079  -0.42484  -0.41401  -0.40119
 Alpha  occ. eigenvalues --   -0.38505  -0.38296  -0.36751  -0.35685  -0.34875
 Alpha  occ. eigenvalues --   -0.34094  -0.32350  -0.30593  -0.29249  -0.25509
 Alpha  occ. eigenvalues --   -0.24176  -0.20952
 Alpha virt. eigenvalues --   -0.00121   0.00718   0.01660   0.06421   0.08129
 Alpha virt. eigenvalues --    0.10538   0.11913   0.13032   0.13625   0.14797
 Alpha virt. eigenvalues --    0.16128   0.17429   0.17765   0.18126   0.19653

 Mulliken charges:
               1
     1  N   -0.790076
     2  H    0.350571
     3  H    0.339050
     4  C   -0.081363
     5  C    0.620576
     6  O   -0.595323
     7  H    0.441760
     8  O   -0.510207
     9  H    0.190128
    10  C   -0.356079
    11  H    0.154615
    12  H    0.173654
    13  C    0.135897
    14  C   -0.258432
    15  H    0.138193
    16  C    0.323608
    17  O   -0.668174
    18  H    0.440376
    19  C    0.297949
    20  O   -0.685325
    21  H    0.444684
    22  C   -0.198790
    23  H    0.145947
    24  C   -0.206940
    25  H    0.153700
 Sum of Mulliken charges =   0.00000

 Dipole moment (field-independent basis, Debye):
    X=              3.2058    Y=              2.6413    Z=              0.8556  Tot=              4.2410
 Quadrupole moment (field-independent basis, Debye-Ang):
   XX=            -81.3437   YY=            -73.3499   ZZ=            -82.3571
   XY=            -25.9257   XZ=              4.8208   YZ=             -1.3762

 Normal termination of Gaussian 09 at Mon Jan 25 16:27:30 2021.
