 Gaussian 09, Revision D.01,

 -----------------
 #p b3lyp/6-31G(d)
 -----------------

 ---------------------------------------------
 SET_328_BBB30_conf1.geo_255_060_195.n.pdb.xyz
 ---------------------------------------------
 Symbolic Z-matrix:
 Charge =  0 Multiplicity = 1

 SCF Done:  E(RB3LYP) =  -444.845093369     A.U. after   14 cycles
 Normal termination of Gaussian 09 at Sun Jan 24 23:15:49 2021.
 Gaussian 09:  AM64L-G09RevD.01 24-Apr-2013

 ----------------------------------------------------------------------
 #p b3lyp/6-31G(d) scrf=(iefpcm,read,solvent=n-Octanol) geom=allcheck g
 uess=read
 ----------------------------------------------------------------------

 Structure from the checkpoint file:  "SET_328_BBB30_conf1.geo_255_060_195.n.pdb.xyz.mst.n.o.chk"
 ---------------------------------------------
 SET_328_BBB30_conf1.geo_255_060_195.n.pdb.xyz
 ---------------------------------------------
 Charge =  0 Multiplicity = 1

                         Standard orientation:
 ---------------------------------------------------------------------
 Center     Atomic      Atomic             Coordinates (Angstroms)
 Number     Number       Type             X           Y           Z
 ---------------------------------------------------------------------
      1          6           0       -2.688986    1.733371    0.767065
      2          1           0       -2.602871    2.804594    0.562753
      3          1           0       -2.433488    1.562569    1.827924
      4          1           0       -3.738312    1.455554    0.634059
      5          7           0       -1.850073    0.993168   -0.169281
      6          1           0       -0.905251    1.375517   -0.117965
      7          6           0       -1.775688   -0.440137    0.122904
      8          6           0       -3.105048   -1.123278   -0.203067
      9          1           0       -3.926943   -0.682731    0.366881
     10          1           0       -3.058122   -2.187796    0.041196
     11          1           0       -3.334843   -1.016084   -1.267282
     12          1           0       -1.558667   -0.612004    1.195609
     13          6           0       -0.631654   -1.076106   -0.692357
     14          1           0       -0.833047   -0.899510   -1.753467
     15          1           0       -0.668078   -2.159079   -0.529875
     16          6           0        0.743955   -0.552014   -0.343246
     17          6           0        1.398329    0.364664   -1.177244
     18          1           0        0.912384    0.681478   -2.096833
     19          6           0        2.660462    0.864374   -0.847743
     20          1           0        3.149662    1.572014   -1.510394
     21          6           0        3.291413    0.451306    0.325597
     22          1           0        4.273251    0.835560    0.582578
     23          6           0        2.652115   -0.464595    1.164401
     24          1           0        3.137314   -0.796517    2.076494
     25          6           0        1.393423   -0.959304    0.831415
     26          1           0        0.907593   -1.675426    1.486944
 ---------------------------------------------------------------------

 SCF Done:  E(RB3LYP) =  -444.856726280     A.U. after   10 cycles

 The electronic state is 1-A.
 Alpha  occ. eigenvalues --  -14.31140 -10.21043 -10.19589 -10.19557 -10.18996
 Alpha  occ. eigenvalues --  -10.18981 -10.18851 -10.18781 -10.18738 -10.18351
 Alpha  occ. eigenvalues --  -10.16935  -0.90041  -0.85363  -0.78170  -0.74340
 Alpha  occ. eigenvalues --   -0.74007  -0.68048  -0.65573  -0.60493  -0.58799
 Alpha  occ. eigenvalues --   -0.56259  -0.51060  -0.48942  -0.46546  -0.45834
 Alpha  occ. eigenvalues --   -0.44381  -0.43200  -0.41819  -0.41212  -0.39045
 Alpha  occ. eigenvalues --   -0.38574  -0.37585  -0.37086  -0.35664  -0.34765
 Alpha  occ. eigenvalues --   -0.33725  -0.33068  -0.32180  -0.25102  -0.24306
 Alpha  occ. eigenvalues --   -0.21942
 Alpha virt. eigenvalues --   -0.00366  -0.00062   0.09105   0.09648   0.11930
 Alpha virt. eigenvalues --    0.12624   0.13067   0.15006   0.15414   0.15749
 Alpha virt. eigenvalues --    0.16639   0.17302   0.17869   0.18531   0.18883

 Mulliken charges:
               1
     1  C   -0.310275
     2  H    0.149339
     3  H    0.123573
     4  H    0.154658
     5  N   -0.563839
     6  H    0.304659
     7  C    0.061969
     8  C   -0.444642
     9  H    0.148635
    10  H    0.142346
    11  H    0.147776
    12  H    0.105611
    13  C   -0.352771
    14  H    0.147792
    15  H    0.148846
    16  C    0.148429
    17  C   -0.197540
    18  H    0.137397
    19  C   -0.137104
    20  H    0.139570
    21  C   -0.142176
    22  H    0.138717
    23  C   -0.138728
    24  H    0.139226
    25  C   -0.185504
    26  H    0.134037
 Sum of Mulliken charges =   0.00000

 Dipole moment (field-independent basis, Debye):
    X=              0.4906    Y=             -0.1396    Z=              0.9450  Tot=              1.0739
 Quadrupole moment (field-independent basis, Debye-Ang):
   XX=            -65.7349   YY=            -66.0712   ZZ=            -66.4464
   XY=              3.0411   XZ=             -0.8340   YZ=             -1.3175

 Normal termination of Gaussian 09 at Sun Jan 24 23:16:53 2021.
