 Gaussian 09, Revision D.01,

 -----------------
 #p b3lyp/6-31G(d)
 -----------------

 ---------------------------------------------
 SET_328_BBB30_conf1.geo_075_060_195.n.pdb.xyz
 ---------------------------------------------
 Symbolic Z-matrix:
 Charge =  0 Multiplicity = 1

 SCF Done:  E(RB3LYP) =  -444.845214927     A.U. after   14 cycles
 Normal termination of Gaussian 09 at Sun Jan 24 23:12:33 2021.
 Gaussian 09:  AM64L-G09RevD.01 24-Apr-2013

 ----------------------------------------------------------------------
 #p b3lyp/6-31G(d) scrf=(iefpcm,read,solvent=n-Octanol) geom=allcheck g
 uess=read
 ----------------------------------------------------------------------

 Structure from the checkpoint file:  "SET_328_BBB30_conf1.geo_075_060_195.n.pdb.xyz.mst.n.o.chk"
 ---------------------------------------------
 SET_328_BBB30_conf1.geo_075_060_195.n.pdb.xyz
 ---------------------------------------------
 Charge =  0 Multiplicity = 1

                         Standard orientation:
 ---------------------------------------------------------------------
 Center     Atomic      Atomic             Coordinates (Angstroms)
 Number     Number       Type             X           Y           Z
 ---------------------------------------------------------------------
      1          6           0       -2.693720    1.734812    0.781065
      2          1           0       -2.440490    1.563999    1.842384
      3          1           0       -3.744718    1.463113    0.646172
      4          1           0       -2.598939    2.804694    0.575262
      5          7           0       -1.855669    0.989682   -0.154064
      6          1           0       -0.915365    1.371908   -0.106144
      7          6           0       -1.776772   -0.448004    0.127100
      8          6           0       -3.107991   -1.130657   -0.211448
      9          1           0       -3.934019   -0.700050    0.360655
     10          1           0       -3.064213   -2.200830    0.020688
     11          1           0       -3.335988   -1.012161   -1.274567
     12          1           0       -1.559117   -0.631214    1.197291
     13          6           0       -0.629724   -1.068588   -0.702000
     14          1           0       -0.836037   -0.880100   -1.762166
     15          1           0       -0.657883   -2.154542   -0.555731
     16          6           0        0.746733   -0.546465   -0.351262
     17          6           0        1.404351   -0.981324    0.807721
     18          1           0        0.925796   -1.717504    1.447302
     19          6           0        2.664326   -0.491343    1.146470
     20          1           0        3.156765   -0.845979    2.046698
     21          6           0        3.293692    0.449350    0.328530
     22          1           0        4.276202    0.829734    0.589327
     23          6           0        2.653786    0.891254   -0.829164
     24          1           0        3.135251    1.617465   -1.475966
     25          6           0        1.392216    0.395451   -1.163842
     26          1           0        0.901057    0.736786   -2.071781
 ---------------------------------------------------------------------

 SCF Done:  E(RB3LYP) =  -444.856846583     A.U. after   10 cycles

 The electronic state is 1-A.
 Alpha  occ. eigenvalues --  -14.31087 -10.21133 -10.19606 -10.19559 -10.18992
 Alpha  occ. eigenvalues --  -10.18976 -10.18846 -10.18777 -10.18738 -10.18402
 Alpha  occ. eigenvalues --  -10.16985  -0.89945  -0.85368  -0.78125  -0.74336
 Alpha  occ. eigenvalues --   -0.73971  -0.68006  -0.65581  -0.60486  -0.58809
 Alpha  occ. eigenvalues --   -0.56290  -0.51045  -0.48871  -0.46532  -0.45813
 Alpha  occ. eigenvalues --   -0.44352  -0.43167  -0.41818  -0.41196  -0.39006
 Alpha  occ. eigenvalues --   -0.38590  -0.37536  -0.37075  -0.35658  -0.34779
 Alpha  occ. eigenvalues --   -0.33718  -0.33101  -0.32195  -0.25100  -0.24312
 Alpha  occ. eigenvalues --   -0.21888
 Alpha virt. eigenvalues --   -0.00358  -0.00070   0.09120   0.09651   0.11942
 Alpha virt. eigenvalues --    0.12619   0.13128   0.15026   0.15415   0.15736
 Alpha virt. eigenvalues --    0.16628   0.17266   0.17832   0.18549   0.18855

 Mulliken charges:
               1
     1  C   -0.309811
     2  H    0.123642
     3  H    0.154326
     4  H    0.149601
     5  N   -0.565223
     6  H    0.305231
     7  C    0.062627
     8  C   -0.444912
     9  H    0.148585
    10  H    0.141573
    11  H    0.148146
    12  H    0.106399
    13  C   -0.353340
    14  H    0.147751
    15  H    0.148743
    16  C    0.148992
    17  C   -0.185746
    18  H    0.133890
    19  C   -0.138599
    20  H    0.139310
    21  C   -0.142315
    22  H    0.138603
    23  C   -0.136805
    24  H    0.139625
    25  C   -0.197738
    26  H    0.137446
 Sum of Mulliken charges =   0.00000

 Dipole moment (field-independent basis, Debye):
    X=              0.4942    Y=             -0.1352    Z=              0.9334  Tot=              1.0648
 Quadrupole moment (field-independent basis, Debye-Ang):
   XX=            -65.7298   YY=            -65.9013   ZZ=            -66.5620
   XY=              2.9782   XZ=             -0.7553   YZ=             -1.3863

 Normal termination of Gaussian 09 at Sun Jan 24 23:13:36 2021.
