 Gaussian 09, Revision D.01,

 -----------------
 #p b3lyp/6-31G(d)
 -----------------

 ----------------------------------------------
 SET_328_BBB272_conf1.geo_165_045_180.n.pdb.xyz
 ----------------------------------------------
 Symbolic Z-matrix:
 Charge =  0 Multiplicity = 1

 SCF Done:  E(RB3LYP) =  -648.689526491     A.U. after   15 cycles

 1\1\GINC-PIRINEUS35\SP\RB3LYP\6-31G(d)\C9H8O4\UBAFAR01\25-Jan-2021\0\\
 #p b3lyp/6-31G(d)\\SET_328_BBB272_conf1.geo_165_045_180.n.pdb.xyz\\0,1
 \C,0,-3.263,1.166,-0.064\H,0,-3.616,0.587,0.793\H,0,-3.517,0.606,-0.96
 8\H,0,-3.755,2.137,-0.089\C,0,-1.778,1.365,0.021\O,0,-1.179,2.406,-0.0
 15\O,0,-1.147,0.132,0.155\C,0,0.246,0.03,0.26\C,0,0.875,-1.026,-0.423\
 C,0,0.201,-2.04,-1.307\O,0,-1.141,-2.044,-1.369\H,0,-1.505,-1.339,-0.7
 95\O,0,0.837,-2.854,-1.947\C,0,2.263,-1.167,-0.274\H,0,2.736,-1.982,-0
 .808\C,0,2.998,-0.3,0.524\H,0,4.068,-0.43,0.625\C,0,2.346,0.734,1.199\

 Normal termination of Gaussian 09 at Mon Jan 25 16:23:37 2021.
 Gaussian 09:  AM64L-G09RevD.01 24-Apr-2013

 ----------------------------------------------------------------------
 #p b3lyp/6-31G(d) scrf=(iefpcm,read,solvent=n-Octanol) geom=allcheck g
 uess=read
 ----------------------------------------------------------------------

 Structure from the checkpoint file:  "SET_328_BBB272_conf1.geo_165_045_180.n.pdb.xyz.mst.n.o.chk"
 ----------------------------------------------
 SET_328_BBB272_conf1.geo_165_045_180.n.pdb.xyz
 ----------------------------------------------
 Charge =  0 Multiplicity = 1

                         Standard orientation:
 ---------------------------------------------------------------------
 Center     Atomic      Atomic             Coordinates (Angstroms)
 Number     Number       Type             X           Y           Z
 ---------------------------------------------------------------------
      1          6           0       -3.527067    0.666084   -0.192880
      2          1           0       -3.585198    0.777471   -1.278473
      3          1           0       -3.355977    1.658746    0.232187
      4          1           0       -4.461704    0.262641    0.193408
      5          6           0       -2.400545   -0.254918    0.174208
      6          8           0       -2.459776   -1.243702    0.854338
      7          8           0       -1.217597    0.199484   -0.400734
      8          6           0       -0.006903   -0.481206   -0.219738
      9          6           0        1.151299    0.291280   -0.022002
     10          6           0        1.215078    1.791959    0.066436
     11          8           0        0.100565    2.496464   -0.191163
     12          1           0       -0.636401    1.889644   -0.409446
     13          8           0        2.244351    2.372944    0.348829
     14          6           0        2.375000   -0.383908    0.101701
     15          1           0        3.259079    0.222167    0.257227
     16          6           0        2.449431   -1.768686    0.027078
     17          1           0        3.405537   -2.267232    0.123589
     18          6           0        1.284613   -2.510429   -0.180048
     19          1           0        1.327296   -3.591785   -0.247225
     20          6           0        0.052794   -1.869881   -0.305795
     21          1           0       -0.855178   -2.434951   -0.455181
 ---------------------------------------------------------------------

 SCF Done:  E(RB3LYP) =  -648.708718689     A.U. after   11 cycles

 The electronic state is 1-A.
 Alpha  occ. eigenvalues --  -19.23497 -19.19194 -19.17018 -19.13598 -10.35145
 Alpha  occ. eigenvalues --  -10.32840 -10.28170 -10.22355 -10.21308 -10.21204
 Alpha  occ. eigenvalues --  -10.21019 -10.20965 -10.20505  -1.13697  -1.10197
 Alpha  occ. eigenvalues --   -1.05565  -1.01729  -0.87832  -0.79595  -0.77858
 Alpha  occ. eigenvalues --   -0.75135  -0.66773  -0.65232  -0.61917  -0.59435
 Alpha  occ. eigenvalues --   -0.54696  -0.51626  -0.51345  -0.50275  -0.48717
 Alpha  occ. eigenvalues --   -0.46877  -0.45224  -0.44992  -0.44127  -0.42967
 Alpha  occ. eigenvalues --   -0.42290  -0.41103  -0.40642  -0.38517  -0.37573
 Alpha  occ. eigenvalues --   -0.36328  -0.34506  -0.31760  -0.30381  -0.28205
 Alpha  occ. eigenvalues --   -0.27030  -0.26200
 Alpha virt. eigenvalues --   -0.05648  -0.02984  -0.00397   0.04986   0.07647
 Alpha virt. eigenvalues --    0.08931   0.12687   0.13942   0.15197   0.15441
 Alpha virt. eigenvalues --    0.15931   0.17221   0.17767   0.18827   0.21299

 Mulliken charges:
               1
     1  C   -0.538970
     2  H    0.208005
     3  H    0.205303
     4  H    0.202456
     5  C    0.615303
     6  O   -0.440066
     7  O   -0.572076
     8  C    0.312991
     9  C    0.004452
    10  C    0.569699
    11  O   -0.604995
    12  H    0.444898
    13  O   -0.489039
    14  C   -0.179959
    15  H    0.173724
    16  C   -0.127319
    17  H    0.158568
    18  C   -0.141265
    19  H    0.163888
    20  C   -0.140652
    21  H    0.175056
 Sum of Mulliken charges =   0.00000

 Dipole moment (field-independent basis, Debye):
    X=             -3.6398    Y=             -3.5328    Z=             -2.0041  Tot=              5.4539
 Quadrupole moment (field-independent basis, Debye-Ang):
   XX=            -65.5473   YY=            -80.7654   ZZ=            -75.1228
   XY=            -17.2577   XZ=              3.0683   YZ=              1.2458

 1\1\GINC-PIRINEUS35\SP\RB3LYP\6-31G(d)\C9H8O4\UBAFAR01\25-Jan-2021\0\\
 #p b3lyp/6-31G(d) scrf=(iefpcm,read,solvent=n-Octanol) geom=allcheck g
 uess=read\\SET_328_BBB272_conf1.geo_165_045_180.n.pdb.xyz\\0,1\C,0,-3.
 263,1.166,-0.064\H,0,-3.616,0.587,0.793\H,0,-3.517,0.606,-0.968\H,0,-3
 .755,2.137,-0.089\C,0,-1.778,1.365,0.021\O,0,-1.179,2.406,-0.015\O,0,-
 1.147,0.132,0.155\C,0,0.246,0.03,0.26\C,0,0.875,-1.026,-0.423\C,0,0.20
 1,-2.04,-1.307\O,0,-1.141,-2.044,-1.369\H,0,-1.505,-1.339,-0.795\O,0,0
 .837,-2.854,-1.947\C,0,2.263,-1.167,-0.274\H,0,2.736,-1.982,-0.808\C,0

 Normal termination of Gaussian 09 at Mon Jan 25 16:24:42 2021.
