 Gaussian 09, Revision D.01,

 -----------------
 #p b3lyp/6-31G(d)
 -----------------

 ----------------------------------------------
 SET_328_BBB321_conf1.geo_180_210_225.n.pdb.xyz
 ----------------------------------------------
 Symbolic Z-matrix:
 Charge =  0 Multiplicity = 1

 SCF Done:  E(RB3LYP) =  -1212.31287262     A.U. after   16 cycles
 Normal termination of Gaussian 09 at Thu Jan 28 04:51:33 2021.
 Gaussian 09:  AM64L-G09RevD.01 24-Apr-2013

 ----------------------------------------------------------------------
 #p b3lyp/6-31G(d) scrf=(iefpcm,read,solvent=n-Octanol) geom=allcheck g
 uess=read
 ----------------------------------------------------------------------

 Structure from the checkpoint file:  "SET_328_BBB321_conf1.geo_180_210_225.n.pdb.xyz.mst.n.o.chk"
 ----------------------------------------------
 SET_328_BBB321_conf1.geo_180_210_225.n.pdb.xyz
 ----------------------------------------------
 Charge =  0 Multiplicity = 1

                         Standard orientation:
 ---------------------------------------------------------------------
 Center     Atomic      Atomic             Coordinates (Angstroms)
 Number     Number       Type             X           Y           Z
 ---------------------------------------------------------------------
      1          6           0        6.391121    1.193617    0.396299
      2          1           0        6.566538    1.718043   -0.549118
      3          1           0        7.331559    0.750648    0.722644
      4          1           0        6.060367    1.930689    1.133175
      5          6           0        5.376023    0.081806    0.191945
      6          8           0        5.708547   -1.088483    0.034306
      7          7           0        4.072724    0.516667    0.175504
      8          1           0        3.933668    1.510250    0.320402
      9          6           0        2.892801   -0.226475   -0.022310
     10          6           0        2.886146   -1.612866   -0.240341
     11          6           0        1.665079   -2.261298   -0.412770
     12          6           0        0.459186   -1.566626   -0.376265
     13          1           0       -0.485099   -2.076960   -0.518653
     14          1           0        1.659529   -3.333332   -0.580657
     15          1           0        3.822417   -2.147383   -0.264805
     16          6           0        1.681855    0.473087    0.016758
     17          1           0        1.692856    1.543147    0.206947
     18          6           0        0.457616   -0.179545   -0.164056
     19          6           0       -0.809890    0.570713   -0.138873
     20          7           0       -2.004524   -0.119709   -0.016893
     21          6           0       -0.932312    1.930950   -0.239961
     22          1           0       -0.150509    2.662373   -0.368178
     23         16           0       -2.601444    2.401210   -0.180415
     24          6           0       -3.051105    0.684281   -0.020050
     25          7           0       -4.372175    0.409465    0.082123
     26          6           0       -4.794926   -0.835730    0.222771
     27          7           0       -6.146584   -1.041091    0.204768
     28          1           0       -6.513924   -1.862611    0.668522
     29          1           0       -6.701110   -0.202523    0.314983
     30          7           0       -4.005629   -1.921632    0.372051
     31          1           0       -4.390162   -2.851737    0.281985
     32          1           0       -3.007651   -1.769482    0.243192
 ---------------------------------------------------------------------

 SCF Done:  E(RB3LYP) =  -1212.34483870     A.U. after   12 cycles

 The electronic state is 1-A.
 Alpha  occ. eigenvalues --  -88.90072 -19.12286 -14.37761 -14.35562 -14.35404
 Alpha  occ. eigenvalues --  -14.32373 -14.30982 -10.30784 -10.29898 -10.27508
 Alpha  occ. eigenvalues --  -10.23827 -10.22298 -10.20659 -10.20291 -10.19268
 Alpha  occ. eigenvalues --  -10.19220 -10.19005 -10.18373 -10.18318  -7.96250
 Alpha  occ. eigenvalues --   -5.92640  -5.92305  -5.91931  -1.04088  -0.99972
 Alpha  occ. eigenvalues --   -0.95492  -0.94354  -0.88412  -0.87704  -0.85010
 Alpha  occ. eigenvalues --   -0.78789  -0.77391  -0.76047  -0.72443  -0.70860
 Alpha  occ. eigenvalues --   -0.64462  -0.62531  -0.62321  -0.59005  -0.58088
 Alpha  occ. eigenvalues --   -0.55831  -0.54358  -0.53629  -0.51344  -0.49643
 Alpha  occ. eigenvalues --   -0.48617  -0.47481  -0.47373  -0.45496  -0.44602
 Alpha  occ. eigenvalues --   -0.43866  -0.43367  -0.42628  -0.41028  -0.40678
 Alpha  occ. eigenvalues --   -0.40221  -0.40026  -0.39158  -0.37339  -0.36253
 Alpha  occ. eigenvalues --   -0.35958  -0.34085  -0.31569  -0.29501  -0.28153
 Alpha  occ. eigenvalues --   -0.27823  -0.27495  -0.27004  -0.25645  -0.24671
 Alpha  occ. eigenvalues --   -0.22145  -0.19390
 Alpha virt. eigenvalues --   -0.03169  -0.01500  -0.00517   0.02631   0.03596
 Alpha virt. eigenvalues --    0.07168   0.07768   0.08062   0.09696   0.10299
 Alpha virt. eigenvalues --    0.11525   0.12622   0.13076   0.13492   0.14121

 Mulliken charges:
               1
     1  C   -0.548842
     2  H    0.192401
     3  H    0.186319
     4  H    0.174529
     5  C    0.592612
     6  O   -0.520219
     7  N   -0.707240
     8  H    0.357950
     9  C    0.352912
    10  C   -0.171966
    11  C   -0.157962
    12  C   -0.181291
    13  H    0.143854
    14  H    0.140036
    15  H    0.173829
    16  C   -0.272439
    17  H    0.138285
    18  C    0.113417
    19  C    0.278855
    20  N   -0.571306
    21  C   -0.423839
    22  H    0.180962
    23  S    0.198056
    24  C    0.300996
    25  N   -0.575003
    26  C    0.657257
    27  N   -0.760390
    28  H    0.361862
    29  H    0.364893
    30  N   -0.777577
    31  H    0.363393
    32  H    0.395654
 Sum of Mulliken charges =   0.00000

 Dipole moment (field-independent basis, Debye):
    X=             -3.9332    Y=             -0.1157    Z=              1.4946  Tot=              4.2092
 Quadrupole moment (field-independent basis, Debye-Ang):
   XX=            -88.0786   YY=           -101.3349   ZZ=           -120.5182
   XY=             44.8333   XZ=             -5.4596   YZ=             -0.4681

 Normal termination of Gaussian 09 at Thu Jan 28 04:54:55 2021.
