 Gaussian 09, Revision D.01,

 -----------------
 #p b3lyp/6-31G(d)
 -----------------

 ---------------------------------------------
 SET_328_BBB20_conf1.geo_060_180_180.n.pdb.xyz
 ---------------------------------------------
 Symbolic Z-matrix:
 Charge =  0 Multiplicity = 1

 SCF Done:  E(RB3LYP) =  -769.344652992     A.U. after   15 cycles
 Normal termination of Gaussian 09 at Sun Jan 24 22:29:50 2021.
 Gaussian 09:  AM64L-G09RevD.01 24-Apr-2013

 ----------------------------------------------------------------------
 #p b3lyp/6-31G(d) scrf=(iefpcm,read,solvent=n-Octanol) geom=allcheck g
 uess=read
 ----------------------------------------------------------------------

 Structure from the checkpoint file:  "SET_328_BBB20_conf1.geo_060_180_180.n.pdb.xyz.mst.n.o.chk"
 ---------------------------------------------
 SET_328_BBB20_conf1.geo_060_180_180.n.pdb.xyz
 ---------------------------------------------
 Charge =  0 Multiplicity = 1

                         Standard orientation:
 ---------------------------------------------------------------------
 Center     Atomic      Atomic             Coordinates (Angstroms)
 Number     Number       Type             X           Y           Z
 ---------------------------------------------------------------------
      1          7           0        4.592444   -2.145895    1.011448
      2          1           0        5.058929   -1.325810    0.623445
      3          1           0        5.235942   -2.919857    0.858078
      4          6           0        3.357194   -2.392385    0.256135
      5          1           0        2.935153   -3.339047    0.610298
      6          1           0        3.516972   -2.509071   -0.830752
      7          6           0        2.352298   -1.265594    0.496035
      8          1           0        2.792797   -0.314510    0.178324
      9          1           0        2.154510   -1.182115    1.568587
     10          6           0        1.037279   -1.497114   -0.247285
     11          1           0        0.588385   -2.427028    0.108732
     12          1           0        1.231523   -1.636717   -1.323221
     13          7           0        0.057124   -0.435267    0.003934
     14          6           0        0.467354    0.897458   -0.311177
     15          6           0        1.265257    1.169368   -1.429426
     16          1           0        1.561089    0.357796   -2.083330
     17          6           0        1.673332    2.473498   -1.702996
     18          1           0        2.288957    2.670728   -2.574268
     19          6           0        1.282354    3.517315   -0.865945
     20          1           0        1.595780    4.534613   -1.074810
     21          6           0        0.493265    3.243647    0.251839
     22          1           0        0.198438    4.049824    0.919414
     23          6           0        0.091020    1.940141    0.549733
     24          6           0       -0.744002    1.605352    1.750645
     25          1           0       -0.788935    2.466174    2.425950
     26          1           0       -0.276544    0.778914    2.298705
     27          6           0       -2.173969    1.214266    1.361420
     28          1           0       -2.630968    2.069237    0.845725
     29          1           0       -2.763891    1.073046    2.275951
     30          6           0       -2.353467   -0.025408    0.496253
     31          6           0       -3.675636   -0.459463    0.326175
     32          1           0       -4.462152    0.111068    0.815756
     33          6           0       -4.013589   -1.585387   -0.417637
     34          1           0       -5.049879   -1.889162   -0.512766
     35          6           0       -2.996009   -2.311485   -1.029570
     36          1           0       -3.223034   -3.188180   -1.625674
     37          6           0       -1.675599   -1.898358   -0.891176
     38          1           0       -0.898731   -2.453958   -1.400783
     39          6           0       -1.322302   -0.768821   -0.128195
 ---------------------------------------------------------------------

 SCF Done:  E(RB3LYP) =  -769.366015935     A.U. after   10 cycles

 The electronic state is 1-A.
 Alpha  occ. eigenvalues --  -14.34740 -14.30727 -10.22592 -10.21967 -10.21451
 Alpha  occ. eigenvalues --  -10.20423 -10.19273 -10.18906 -10.18820 -10.18779
 Alpha  occ. eigenvalues --  -10.18641 -10.18632 -10.18505 -10.18414 -10.18376
 Alpha  occ. eigenvalues --  -10.18257 -10.18151 -10.17995 -10.17701  -0.94843
 Alpha  occ. eigenvalues --   -0.87451  -0.85283  -0.84262  -0.79704  -0.76614
 Alpha  occ. eigenvalues --   -0.75312  -0.74912  -0.72183  -0.69900  -0.65816
 Alpha  occ. eigenvalues --   -0.64440  -0.60778  -0.59776  -0.58589  -0.57144
 Alpha  occ. eigenvalues --   -0.56439  -0.51439  -0.50802  -0.48736  -0.47461
 Alpha  occ. eigenvalues --   -0.46972  -0.46800  -0.45517  -0.45256  -0.43890
 Alpha  occ. eigenvalues --   -0.43433  -0.42743  -0.42257  -0.41281  -0.39653
 Alpha  occ. eigenvalues --   -0.38521  -0.38340  -0.37715  -0.36417  -0.35844
 Alpha  occ. eigenvalues --   -0.35560  -0.35015  -0.34200  -0.33677  -0.33279
 Alpha  occ. eigenvalues --   -0.33178  -0.32595  -0.28636  -0.24558  -0.24095
 Alpha  occ. eigenvalues --   -0.23499  -0.23362  -0.19505
 Alpha virt. eigenvalues --   -0.00486   0.00259   0.00581   0.01112   0.08382
 Alpha virt. eigenvalues --    0.09370   0.10484   0.10594   0.11203   0.12711
 Alpha virt. eigenvalues --    0.13412   0.13986   0.14478   0.14683   0.15556

 Mulliken charges:
               1
     1  N   -0.744166
     2  H    0.306695
     3  H    0.311675
     4  C   -0.135834
     5  H    0.139951
     6  H    0.118109
     7  C   -0.264633
     8  H    0.146342
     9  H    0.150414
    10  C   -0.145840
    11  H    0.159372
    12  H    0.137801
    13  N   -0.578275
    14  C    0.213923
    15  C   -0.161248
    16  H    0.138764
    17  C   -0.157815
    18  H    0.137104
    19  C   -0.132429
    20  H    0.134718
    21  C   -0.223472
    22  H    0.132573
    23  C    0.159589
    24  C   -0.347354
    25  H    0.142587
    26  H    0.159788
    27  C   -0.343584
    28  H    0.157154
    29  H    0.154257
    30  C    0.154825
    31  C   -0.210505
    32  H    0.128348
    33  C   -0.137143
    34  H    0.131333
    35  C   -0.158550
    36  H    0.134420
    37  C   -0.185510
    38  H    0.140524
    39  C    0.236092
 Sum of Mulliken charges =   0.00000

 Dipole moment (field-independent basis, Debye):
    X=              1.3663    Y=             -0.3051    Z=             -1.3457  Tot=              1.9419
 Quadrupole moment (field-independent basis, Debye-Ang):
   XX=           -102.9518   YY=           -103.8490   ZZ=           -114.5518
   XY=             -3.6591   XZ=            -10.6819   YZ=              6.5913

 Normal termination of Gaussian 09 at Sun Jan 24 22:34:09 2021.
