 Gaussian 09, Revision D.01,

 -----------------
 #p b3lyp/6-31G(d)
 -----------------

 ----------------------------------------------
 SET_328_BBB256_conf1.geo_285_180_255.n.pdb.xyz
 ----------------------------------------------
 Symbolic Z-matrix:
 Charge =  0 Multiplicity = 1

 SCF Done:  E(RB3LYP) =  -421.567212915     A.U. after   14 cycles
 Normal termination of Gaussian 09 at Sun Jan 24 23:05:30 2021.
 Gaussian 09:  AM64L-G09RevD.01 24-Apr-2013

 ----------------------------------------------------------------------
 #p b3lyp/6-31G(d) scrf=(iefpcm,read,solvent=n-Octanol) geom=allcheck g
 uess=read
 ----------------------------------------------------------------------

 Structure from the checkpoint file:  "SET_328_BBB256_conf1.geo_285_180_255.n.pdb.xyz.mst.n.o.chk"
 ----------------------------------------------
 SET_328_BBB256_conf1.geo_285_180_255.n.pdb.xyz
 ----------------------------------------------
 Charge =  0 Multiplicity = 1

                         Standard orientation:
 ---------------------------------------------------------------------
 Center     Atomic      Atomic             Coordinates (Angstroms)
 Number     Number       Type             X           Y           Z
 ---------------------------------------------------------------------
      1          6           0       -3.774967    0.618136   -0.308085
      2          1           0       -3.378815    0.666312   -1.335836
      3          1           0       -3.634203    1.605655    0.144289
      4          1           0       -4.848452    0.429513   -0.369774
      5          7           0       -3.158752   -0.389539    0.546605
      6          1           0       -3.368988   -1.316094    0.184264
      7          6           0       -1.717150   -0.244744    0.702734
      8          1           0       -1.381023   -0.967954    1.453410
      9          1           0       -1.517418    0.753594    1.108003
     10          6           0       -0.871050   -0.427325   -0.579692
     11          1           0       -1.222429    0.275893   -1.340551
     12          1           0       -1.020617   -1.441969   -0.967198
     13          6           0        0.590615   -0.181006   -0.325325
     14          7           0        0.959604    1.104810   -0.171546
     15          6           0        2.244634    1.363758    0.096725
     16          1           0        2.504619    2.414345    0.210562
     17          6           0        3.225755    0.379406    0.226278
     18          1           0        4.253429    0.651411    0.441534
     19          6           0        2.840686   -0.950963    0.068567
     20          1           0        3.566894   -1.752845    0.158053
     21          6           0        1.506569   -1.235016   -0.209662
     22          1           0        1.170482   -2.258240   -0.341406
 ---------------------------------------------------------------------

 SCF Done:  E(RB3LYP) =  -421.578990485     A.U. after   10 cycles

 The electronic state is 1-A.
 Alpha  occ. eigenvalues --  -14.32688 -14.31468 -10.22657 -10.22147 -10.20606
 Alpha  occ. eigenvalues --  -10.20423 -10.19680 -10.19531 -10.19484 -10.18085
 Alpha  occ. eigenvalues --   -0.93941  -0.89654  -0.80019  -0.78566  -0.72438
 Alpha  occ. eigenvalues --   -0.67143  -0.62847  -0.61740  -0.58722  -0.51335
 Alpha  occ. eigenvalues --   -0.49357  -0.48040  -0.46474  -0.44186  -0.42996
 Alpha  occ. eigenvalues --   -0.41280  -0.40986  -0.39559  -0.38147  -0.36864
 Alpha  occ. eigenvalues --   -0.36394  -0.34834  -0.33885  -0.28385  -0.25847
 Alpha  occ. eigenvalues --   -0.25413  -0.21362
 Alpha virt. eigenvalues --   -0.02270  -0.00729   0.09129   0.09986   0.12087
 Alpha virt. eigenvalues --    0.13000   0.14337   0.15025   0.15499   0.16267
 Alpha virt. eigenvalues --    0.17475   0.17673   0.18700   0.19520   0.21551

 Mulliken charges:
               1
     1  C   -0.309568
     2  H    0.130540
     3  H    0.151921
     4  H    0.151326
     5  N   -0.549138
     6  H    0.308564
     7  C   -0.135015
     8  H    0.138619
     9  H    0.151912
    10  C   -0.335932
    11  H    0.158105
    12  H    0.139073
    13  C    0.296073
    14  N   -0.481934
    15  C    0.027056
    16  H    0.144829
    17  C   -0.150123
    18  H    0.149044
    19  C   -0.108312
    20  H    0.155619
    21  C   -0.177111
    22  H    0.144451
 Sum of Mulliken charges =   0.00000

 Dipole moment (field-independent basis, Debye):
    X=              1.4637    Y=             -2.1277    Z=             -0.8667  Tot=              2.7241
 Quadrupole moment (field-independent basis, Debye-Ang):
   XX=            -52.7850   YY=            -56.5475   ZZ=            -63.8866
   XY=              0.7471   XZ=              5.9893   YZ=              1.3896

 Normal termination of Gaussian 09 at Sun Jan 24 23:06:20 2021.
