 Gaussian 09, Revision D.01,

 -----------------
 #p b3lyp/6-31G(d)
 -----------------

 ----------------------------------------------
 SET_328_BBB321_conf1.geo_180_165_300.n.pdb.xyz
 ----------------------------------------------
 Symbolic Z-matrix:
 Charge =  0 Multiplicity = 1

 SCF Done:  E(RB3LYP) =  -1212.31313512     A.U. after   16 cycles
 Normal termination of Gaussian 09 at Thu Jan 28 04:52:37 2021.
 Gaussian 09:  AM64L-G09RevD.01 24-Apr-2013

 ----------------------------------------------------------------------
 #p b3lyp/6-31G(d) scrf=(iefpcm,read,solvent=n-Octanol) geom=allcheck g
 uess=read
 ----------------------------------------------------------------------

 Structure from the checkpoint file:  "SET_328_BBB321_conf1.geo_180_165_300.n.pdb.xyz.mst.n.o.chk"
 ----------------------------------------------
 SET_328_BBB321_conf1.geo_180_165_300.n.pdb.xyz
 ----------------------------------------------
 Charge =  0 Multiplicity = 1

                         Standard orientation:
 ---------------------------------------------------------------------
 Center     Atomic      Atomic             Coordinates (Angstroms)
 Number     Number       Type             X           Y           Z
 ---------------------------------------------------------------------
      1          6           0        6.270679   -0.892071    0.293228
      2          1           0        6.743685   -0.505400   -0.614423
      3          1           0        6.547183   -1.936819    0.421439
      4          1           0        6.652076   -0.313371    1.140308
      5          6           0        4.758005   -0.798038    0.199970
      6          8           0        4.033829   -1.788824    0.228854
      7          7           0        4.290427    0.488274    0.077174
      8          1           0        4.992980    1.215387    0.065690
      9          6           0        2.961635    0.941200   -0.038336
     10          6           0        2.757118    2.326467   -0.159221
     11          6           0        1.462369    2.825645   -0.269182
     12          6           0        0.365606    1.966709   -0.262852
     13          1           0       -0.642435    2.351426   -0.357221
     14          1           0        1.309516    3.895694   -0.362917
     15          1           0        3.607546    3.001872   -0.162167
     16          6           0        1.863431    0.078383   -0.029386
     17          1           0        2.041715   -0.978929    0.077351
     18          6           0        0.561095    0.584721   -0.144365
     19          6           0       -0.590419   -0.333802   -0.147241
     20          7           0       -1.873102    0.179385   -0.051185
     21          6           0       -0.515725   -1.697109   -0.250717
     22          1           0        0.367769   -2.308090   -0.359222
     23         16           0       -2.102357   -2.399700   -0.226445
     24          6           0       -2.793842   -0.765642   -0.072531
     25          7           0       -4.142133   -0.682207    0.007381
     26          6           0       -4.737343    0.480253    0.205771
     27          7           0       -4.120201    1.682521    0.261821
     28          1           0       -4.601984    2.482351    0.649576
     29          1           0       -3.102948    1.657225    0.269968
     30          7           0       -6.093169    0.466922    0.388595
     31          1           0       -6.541863   -0.401991    0.130385
     32          1           0       -6.614581    1.301880    0.156189
 ---------------------------------------------------------------------

 SCF Done:  E(RB3LYP) =  -1212.34481391     A.U. after   12 cycles

 The electronic state is 1-A.
 Alpha  occ. eigenvalues --  -88.89938 -19.12367 -14.37699 -14.35468 -14.35295
 Alpha  occ. eigenvalues --  -14.32247 -14.30926 -10.30674 -10.29907 -10.27367
 Alpha  occ. eigenvalues --  -10.23764 -10.22036 -10.20451 -10.20001 -10.19236
 Alpha  occ. eigenvalues --  -10.19190 -10.19179 -10.18292 -10.18217  -7.96115
 Alpha  occ. eigenvalues --   -5.92503  -5.92169  -5.91799  -1.04106  -0.99882
 Alpha  occ. eigenvalues --   -0.95366  -0.94342  -0.88320  -0.87624  -0.84947
 Alpha  occ. eigenvalues --   -0.78629  -0.77427  -0.75937  -0.72326  -0.70880
 Alpha  occ. eigenvalues --   -0.64232  -0.63554  -0.61153  -0.58470  -0.57974
 Alpha  occ. eigenvalues --   -0.56536  -0.54835  -0.52693  -0.51195  -0.49314
 Alpha  occ. eigenvalues --   -0.48332  -0.48133  -0.47213  -0.45538  -0.44612
 Alpha  occ. eigenvalues --   -0.43619  -0.43331  -0.42444  -0.40926  -0.40498
 Alpha  occ. eigenvalues --   -0.40209  -0.40058  -0.39127  -0.37285  -0.36207
 Alpha  occ. eigenvalues --   -0.35959  -0.34048  -0.31672  -0.29328  -0.27958
 Alpha  occ. eigenvalues --   -0.27797  -0.27386  -0.26954  -0.25628  -0.24630
 Alpha  occ. eigenvalues --   -0.22107  -0.19254
 Alpha virt. eigenvalues --   -0.03104  -0.01443  -0.00473   0.02803   0.03764
 Alpha virt. eigenvalues --    0.07144   0.07961   0.08194   0.09935   0.10337
 Alpha virt. eigenvalues --    0.11380   0.12714   0.13072   0.13714   0.14086

 Mulliken charges:
               1
     1  C   -0.551217
     2  H    0.186204
     3  H    0.186277
     4  H    0.183720
     5  C    0.591335
     6  O   -0.517772
     7  N   -0.707522
     8  H    0.357237
     9  C    0.346804
    10  C   -0.201919
    11  C   -0.147775
    12  C   -0.185063
    13  H    0.143981
    14  H    0.140851
    15  H    0.140834
    16  C   -0.244673
    17  H    0.179608
    18  C    0.104888
    19  C    0.281533
    20  N   -0.573075
    21  C   -0.423523
    22  H    0.187466
    23  S    0.198106
    24  C    0.299322
    25  N   -0.572639
    26  C    0.651328
    27  N   -0.776765
    28  H    0.362050
    29  H    0.394712
    30  N   -0.759952
    31  H    0.364370
    32  H    0.361268
 Sum of Mulliken charges =   0.00000

 Dipole moment (field-independent basis, Debye):
    X=             -0.6720    Y=              7.0971    Z=              0.2519  Tot=              7.1333
 Quadrupole moment (field-independent basis, Debye-Ang):
   XX=            -47.6864   YY=           -109.9321   ZZ=           -121.2818
   XY=             -6.3676   XZ=             -0.3179   YZ=              2.4910

 Normal termination of Gaussian 09 at Thu Jan 28 04:55:46 2021.
