 Gaussian 09, Revision D.01,

 -----------------
 #p b3lyp/6-31G(d)
 -----------------

 ---------------------------------------------
 SET_328_BBB29_conf1.geo_135_285_285.n.pdb.xyz
 ---------------------------------------------
 Symbolic Z-matrix:
 Charge =  0 Multiplicity = 1

 SCF Done:  E(RB3LYP) =  -1548.51085463     A.U. after   16 cycles
 Normal termination of Gaussian 09 at Sun Jan 24 23:16:58 2021.
 Gaussian 09:  AM64L-G09RevD.01 24-Apr-2013

 ----------------------------------------------------------------------
 #p b3lyp/6-31G(d) scrf=(iefpcm,read,solvent=n-Octanol) geom=allcheck g
 uess=read
 ----------------------------------------------------------------------

 Structure from the checkpoint file:  "SET_328_BBB29_conf1.geo_135_285_285.n.pdb.xyz.mst.n.o.chk"
 ---------------------------------------------
 SET_328_BBB29_conf1.geo_135_285_285.n.pdb.xyz
 ---------------------------------------------
 Charge =  0 Multiplicity = 1

                         Standard orientation:
 ---------------------------------------------------------------------
 Center     Atomic      Atomic             Coordinates (Angstroms)
 Number     Number       Type             X           Y           Z
 ---------------------------------------------------------------------
      1          7           0       -0.215368    3.810277    1.443745
      2          1           0       -0.158457    4.768649    1.108194
      3          1           0       -0.459381    3.875948    2.429748
      4          6           0        1.096778    3.168321    1.304725
      5          1           0        1.070497    2.229280    1.866062
      6          1           0        1.924398    3.762370    1.719757
      7          6           0        1.397988    2.865859   -0.165154
      8          1           0        2.406469    2.453389   -0.257911
      9          1           0        1.385960    3.799972   -0.739948
     10          6           0        0.365851    1.922138   -0.794651
     11          1           0        0.439726    1.931596   -1.890357
     12          1           0       -0.613760    2.308007   -0.518265
     13          7           0        0.455500    0.553029   -0.269367
     14          6           0       -0.732033   -0.176047   -0.047662
     15          6           0       -1.951235    0.191488   -0.638639
     16          1           0       -2.008727    1.033452   -1.314068
     17          6           0       -3.104435   -0.538335   -0.357750
     18         17           0       -4.620203   -0.031508   -1.096235
     19          6           0       -3.090617   -1.658526    0.465192
     20          1           0       -3.998442   -2.212431    0.663293
     21          6           0       -1.870488   -2.049341    1.016948
     22          1           0       -1.823844   -2.928107    1.652467
     23          6           0       -0.710110   -1.315651    0.784138
     24         16           0        0.809188   -1.756426    1.601042
     25          6           0        1.932694   -1.312721    0.293567
     26          6           0        1.652600   -0.175791   -0.486165
     27          6           0        2.581398    0.199533   -1.465990
     28          1           0        2.384222    1.061709   -2.090244
     29          6           0        3.760743   -0.523368   -1.645109
     30          1           0        4.467312   -0.203601   -2.402052
     31          6           0        4.023534   -1.650960   -0.870512
     32          1           0        4.936746   -2.216717   -1.012908
     33          6           0        3.095569   -2.052289    0.088816
     34          1           0        3.273385   -2.934068    0.694367
 ---------------------------------------------------------------------

 SCF Done:  E(RB3LYP) =  -1548.53261045     A.U. after   10 cycles

 The electronic state is 1-A.
 Alpha  occ. eigenvalues -- -101.55138 -88.89507 -14.37186 -14.30742 -10.25554
 Alpha  occ. eigenvalues --  -10.24840 -10.24015 -10.22785 -10.22412 -10.21729
 Alpha  occ. eigenvalues --  -10.20678 -10.20436 -10.20189 -10.20131 -10.19865
 Alpha  occ. eigenvalues --  -10.19508 -10.19451 -10.19108 -10.18257  -9.46769
 Alpha  occ. eigenvalues --   -7.95555  -7.23156  -7.22201  -7.22170  -5.92056
 Alpha  occ. eigenvalues --   -5.91705  -5.91055  -0.97138  -0.89204  -0.87588
 Alpha  occ. eigenvalues --   -0.86147  -0.84737  -0.79935  -0.77343  -0.76449
 Alpha  occ. eigenvalues --   -0.74536  -0.73348  -0.68820  -0.67044  -0.63237
 Alpha  occ. eigenvalues --   -0.61676  -0.60685  -0.57915  -0.56565  -0.53988
 Alpha  occ. eigenvalues --   -0.51250  -0.49036  -0.48694  -0.48304  -0.47422
 Alpha  occ. eigenvalues --   -0.46617  -0.45930  -0.44760  -0.44188  -0.42891
 Alpha  occ. eigenvalues --   -0.41626  -0.41303  -0.40309  -0.39679  -0.38843
 Alpha  occ. eigenvalues --   -0.38293  -0.36860  -0.36561  -0.35388  -0.34967
 Alpha  occ. eigenvalues --   -0.34796  -0.33897  -0.32711  -0.31663  -0.30720
 Alpha  occ. eigenvalues --   -0.29251  -0.26198  -0.25293  -0.23300  -0.22984
 Alpha  occ. eigenvalues --   -0.19311
 Alpha virt. eigenvalues --   -0.02120  -0.01605  -0.00784   0.00542   0.02279
 Alpha virt. eigenvalues --    0.03790   0.07677   0.08729   0.10878   0.12208
 Alpha virt. eigenvalues --    0.13210   0.13437   0.13719   0.14168   0.14497

 Mulliken charges:
               1
     1  N   -0.736957
     2  H    0.308671
     3  H    0.315146
     4  C   -0.140348
     5  H    0.155965
     6  H    0.123496
     7  C   -0.275440
     8  H    0.151946
     9  H    0.141014
    10  C   -0.162409
    11  H    0.150152
    12  H    0.191518
    13  N   -0.576639
    14  C    0.319585
    15  C   -0.170041
    16  H    0.168845
    17  C   -0.089439
    18  Cl  -0.038602
    19  C   -0.128319
    20  H    0.161350
    21  C   -0.184521
    22  H    0.161332
    23  C   -0.122144
    24  S    0.148405
    25  C   -0.128832
    26  C    0.305558
    27  C   -0.171088
    28  H    0.152033
    29  C   -0.157646
    30  H    0.145512
    31  C   -0.128193
    32  H    0.142792
    33  C   -0.184900
    34  H    0.152199
 Sum of Mulliken charges =   0.00000

 Dipole moment (field-independent basis, Debye):
    X=              2.8806    Y=              2.6066    Z=             -0.0697  Tot=              3.8855
 Quadrupole moment (field-independent basis, Debye-Ang):
   XX=           -126.5790   YY=           -108.3323   ZZ=           -121.8168
   XY=              3.6744   XZ=             -7.0803   YZ=             -0.5219

 Normal termination of Gaussian 09 at Sun Jan 24 23:20:28 2021.
