 Gaussian 09, Revision D.01,

 -----------------
 #p b3lyp/6-31G(d)
 -----------------

 ----------------------------------------------
 SET_328_BBB301_conf1.geo_150_285_255.n.pdb.xyz
 ----------------------------------------------
 Symbolic Z-matrix:
 Charge =  0 Multiplicity = 1

 SCF Done:  E(RB3LYP) =  -788.427116650     A.U. after   14 cycles
 Normal termination of Gaussian 09 at Mon Jan 25 16:27:41 2021.
 Gaussian 09:  AM64L-G09RevD.01 24-Apr-2013

 ----------------------------------------------------------------------
 #p b3lyp/6-31G(d) scrf=(iefpcm,read,solvent=n-Octanol) geom=allcheck g
 uess=read
 ----------------------------------------------------------------------

 Structure from the checkpoint file:  "SET_328_BBB301_conf1.geo_150_285_255.n.pdb.xyz.mst.n.o.chk"
 ----------------------------------------------
 SET_328_BBB301_conf1.geo_150_285_255.n.pdb.xyz
 ----------------------------------------------
 Charge =  0 Multiplicity = 1

                         Standard orientation:
 ---------------------------------------------------------------------
 Center     Atomic      Atomic             Coordinates (Angstroms)
 Number     Number       Type             X           Y           Z
 ---------------------------------------------------------------------
      1          6           0        4.087580   -0.131173   -1.858026
      2          1           0        4.393481   -1.182568   -1.890660
      3          1           0        4.826323    0.451774   -2.418127
      4          1           0        3.128151   -0.044631   -2.375281
      5          6           0        3.974555    0.361606   -0.402391
      6          6           0        5.312714    0.160315    0.322859
      7          1           0        6.108401    0.730647   -0.165129
      8          1           0        5.608827   -0.894942    0.318051
      9          1           0        5.240057    0.488474    1.364150
     10          6           0        3.595715    1.853083   -0.369126
     11          1           0        3.497592    2.199800    0.664417
     12          1           0        2.649671    2.042702   -0.883397
     13          1           0        4.365926    2.450306   -0.864105
     14          7           0        2.964323   -0.415332    0.363406
     15          1           0        3.324021   -1.361499    0.494031
     16          6           0        1.613575   -0.505277   -0.194874
     17          1           0        1.527032   -1.170809   -1.065138
     18          1           0        1.302837    0.494026   -0.511965
     19          6           0        0.659089   -0.971223    0.926256
     20          8           0        0.893572   -0.171145    2.075377
     21          1           0        1.853337    0.032388    2.008053
     22          1           0        0.886667   -2.026662    1.145644
     23          6           0       -0.790845   -0.874042    0.506437
     24          6           0       -1.515014    0.307162    0.712666
     25          1           0       -1.029495    1.127201    1.229651
     26          6           0       -2.836126    0.443613    0.295453
     27          6           0       -3.626532    1.709619    0.541004
     28          8           0       -4.184463    2.266337   -0.646510
     29          1           0       -4.756491    1.569428   -1.012709
     30          1           0       -2.965168    2.471111    0.962251
     31          1           0       -4.416336    1.514504    1.281939
     32          6           0       -3.442708   -0.639537   -0.361183
     33          8           0       -4.747070   -0.460831   -0.755859
     34          1           0       -5.066969   -1.247648   -1.228343
     35          6           0       -2.743483   -1.824595   -0.579452
     36          1           0       -3.227711   -2.658004   -1.080048
     37          6           0       -1.423407   -1.936946   -0.139564
     38          1           0       -0.887406   -2.868788   -0.301545
 ---------------------------------------------------------------------

 SCF Done:  E(RB3LYP) =  -788.453755511     A.U. after   10 cycles

 The electronic state is 1-A.
 Alpha  occ. eigenvalues --  -19.18794 -19.13173 -19.12908 -14.32656 -10.25067
 Alpha  occ. eigenvalues --  -10.23357 -10.22894 -10.22500 -10.20708 -10.19200
 Alpha  occ. eigenvalues --  -10.19117 -10.19009 -10.18741 -10.18576 -10.17372
 Alpha  occ. eigenvalues --  -10.17227 -10.17226  -1.06565  -1.00982  -1.00465
 Alpha  occ. eigenvalues --   -0.90928  -0.85472  -0.78832  -0.76875  -0.75403
 Alpha  occ. eigenvalues --   -0.70032  -0.68689  -0.68515  -0.67101  -0.63467
 Alpha  occ. eigenvalues --   -0.61103  -0.57178  -0.55343  -0.54492  -0.50468
 Alpha  occ. eigenvalues --   -0.49054  -0.48495  -0.47618  -0.46696  -0.45789
 Alpha  occ. eigenvalues --   -0.44914  -0.43910  -0.43618  -0.42653  -0.41844
 Alpha  occ. eigenvalues --   -0.41018  -0.40723  -0.39661  -0.38827  -0.37997
 Alpha  occ. eigenvalues --   -0.37462  -0.36820  -0.36478  -0.35601  -0.34805
 Alpha  occ. eigenvalues --   -0.33726  -0.33476  -0.32618  -0.32209  -0.31611
 Alpha  occ. eigenvalues --   -0.26439  -0.25914  -0.24961  -0.23587  -0.21761
 Alpha virt. eigenvalues --   -0.00418   0.00740   0.07073   0.07212   0.10092
 Alpha virt. eigenvalues --    0.10945   0.11843   0.12509   0.12604   0.13259
 Alpha virt. eigenvalues --    0.13485   0.13913   0.15605   0.15834   0.16071

 Mulliken charges:
               1
     1  C   -0.451230
     2  H    0.140511
     3  H    0.146531
     4  H    0.150634
     5  C    0.213317
     6  C   -0.454556
     7  H    0.149480
     8  H    0.141163
     9  H    0.151807
    10  C   -0.445670
    11  H    0.150101
    12  H    0.147936
    13  H    0.147522
    14  N   -0.599932
    15  H    0.313488
    16  C   -0.149125
    17  H    0.135525
    18  H    0.154501
    19  C    0.076271
    20  O   -0.671358
    21  H    0.404837
    22  H    0.115162
    23  C    0.144278
    24  C   -0.254305
    25  H    0.142590
    26  C    0.120840
    27  C   -0.109400
    28  O   -0.654415
    29  H    0.419236
    30  H    0.150572
    31  H    0.137849
    32  C    0.294785
    33  O   -0.678385
    34  H    0.440722
    35  C   -0.194770
    36  H    0.141299
    37  C   -0.203754
    38  H    0.135944
 Sum of Mulliken charges =   0.00000

 Dipole moment (field-independent basis, Debye):
    X=              2.1035    Y=             -4.3470    Z=             -2.7730  Tot=              5.5687
 Quadrupole moment (field-independent basis, Debye-Ang):
   XX=            -84.7352   YY=           -101.3783   ZZ=           -107.5164
   XY=             14.2368   XZ=              3.2368   YZ=              6.7730

 Normal termination of Gaussian 09 at Mon Jan 25 16:30:59 2021.
