 Gaussian 09, Revision D.01,

 -----------------
 #p b3lyp/6-31G(d)
 -----------------

 ----------------------------------------------
 SET_328_BBB301_conf1.geo_165_120_315.n.pdb.xyz
 ----------------------------------------------
 Symbolic Z-matrix:
 Charge =  0 Multiplicity = 1

 SCF Done:  E(RB3LYP) =  -788.430501362     A.U. after   14 cycles
 Normal termination of Gaussian 09 at Mon Jan 25 16:27:11 2021.
 Gaussian 09:  AM64L-G09RevD.01 24-Apr-2013

 ----------------------------------------------------------------------
 #p b3lyp/6-31G(d) scrf=(iefpcm,read,solvent=n-Octanol) geom=allcheck g
 uess=read
 ----------------------------------------------------------------------

 Structure from the checkpoint file:  "SET_328_BBB301_conf1.geo_165_120_315.n.pdb.xyz.mst.n.o.chk"
 ----------------------------------------------
 SET_328_BBB301_conf1.geo_165_120_315.n.pdb.xyz
 ----------------------------------------------
 Charge =  0 Multiplicity = 1

                         Standard orientation:
 ---------------------------------------------------------------------
 Center     Atomic      Atomic             Coordinates (Angstroms)
 Number     Number       Type             X           Y           Z
 ---------------------------------------------------------------------
      1          6           0       -5.374159   -0.344588   -0.461057
      2          1           0       -6.254255   -0.350187    0.187372
      3          1           0       -5.415947   -1.242704   -1.087475
      4          1           0       -5.426708    0.532103   -1.113438
      5          6           0       -4.089100   -0.318024    0.373009
      6          6           0       -4.074296    0.949078    1.235160
      7          1           0       -4.955695    0.971631    1.882707
      8          1           0       -4.084912    1.841147    0.602380
      9          1           0       -3.191697    0.995899    1.880244
     10          6           0       -4.027417   -1.565614    1.265443
     11          1           0       -4.876910   -1.598529    1.952631
     12          1           0       -3.111260   -1.580203    1.864564
     13          1           0       -4.049573   -2.478095    0.658344
     14          7           0       -2.964774   -0.269404   -0.591867
     15          1           0       -3.095979   -1.017441   -1.273397
     16          6           0       -1.605370   -0.358560   -0.053401
     17          1           0       -1.306762   -1.368413    0.258421
     18          1           0       -1.539695    0.290686    0.822300
     19          6           0       -0.628838    0.177711   -1.124049
     20          8           0       -1.145661    1.403861   -1.615842
     21          1           0       -2.115565    1.270534   -1.533306
     22          1           0       -0.575652   -0.567208   -1.936435
     23          6           0        0.762212    0.374799   -0.568468
     24          6           0        1.694318   -0.664192   -0.590567
     25          1           0        1.429963   -1.612423   -1.053604
     26          6           0        2.965875   -0.527926   -0.032287
     27          6           0        3.912473   -1.695195    0.020345
     28          8           0        5.234688   -1.251945   -0.334372
     29          1           0        5.863162   -1.947697   -0.080509
     30          1           0        3.574621   -2.480633   -0.665451
     31          1           0        3.931983   -2.123985    1.032659
     32          6           0        3.327867    0.707171    0.535880
     33          8           0        4.561559    0.912806    1.077328
     34          1           0        5.144161    0.199529    0.728112
     35          6           0        2.409940    1.761265    0.553092
     36          1           0        2.714775    2.706874    0.984898
     37          6           0        1.137282    1.590435    0.014538
     38          1           0        0.425962    2.408996    0.009313
 ---------------------------------------------------------------------

 SCF Done:  E(RB3LYP) =  -788.457508109     A.U. after   10 cycles

 The electronic state is 1-A.
 Alpha  occ. eigenvalues --  -19.16848 -19.15751 -19.12617 -14.32682 -10.24550
 Alpha  occ. eigenvalues --  -10.24193 -10.23135 -10.22373 -10.20621 -10.19093
 Alpha  occ. eigenvalues --  -10.18833 -10.18312 -10.18256 -10.17966 -10.17341
 Alpha  occ. eigenvalues --  -10.17203 -10.17195  -1.04987  -1.02750  -1.00844
 Alpha  occ. eigenvalues --   -0.91035  -0.85033  -0.78882  -0.76950  -0.75252
 Alpha  occ. eigenvalues --   -0.69888  -0.68733  -0.68447  -0.67721  -0.62203
 Alpha  occ. eigenvalues --   -0.60655  -0.56918  -0.55409  -0.53754  -0.51895
 Alpha  occ. eigenvalues --   -0.49646  -0.48655  -0.47734  -0.46640  -0.46142
 Alpha  occ. eigenvalues --   -0.44520  -0.43885  -0.43755  -0.42510  -0.42137
 Alpha  occ. eigenvalues --   -0.41494  -0.40103  -0.39372  -0.37993  -0.37927
 Alpha  occ. eigenvalues --   -0.37245  -0.36732  -0.36596  -0.36085  -0.34861
 Alpha  occ. eigenvalues --   -0.33722  -0.32908  -0.32636  -0.32234  -0.31309
 Alpha  occ. eigenvalues --   -0.29080  -0.26026  -0.24544  -0.23605  -0.20905
 Alpha virt. eigenvalues --   -0.00331   0.01229   0.07050   0.07266   0.10342
 Alpha virt. eigenvalues --    0.11115   0.12379   0.12529   0.13014   0.13399
 Alpha virt. eigenvalues --    0.13954   0.14388   0.15720   0.15808   0.16203

 Mulliken charges:
               1
     1  C   -0.453467
     2  H    0.149205
     3  H    0.140874
     4  H    0.151862
     5  C    0.212432
     6  C   -0.445313
     7  H    0.146970
     8  H    0.150457
     9  H    0.147927
    10  C   -0.448789
    11  H    0.146699
    12  H    0.149199
    13  H    0.139713
    14  N   -0.601325
    15  H    0.313463
    16  C   -0.150179
    17  H    0.135100
    18  H    0.154447
    19  C    0.077421
    20  O   -0.674335
    21  H    0.405754
    22  H    0.112505
    23  C    0.143023
    24  C   -0.267058
    25  H    0.127651
    26  C    0.108716
    27  C   -0.133780
    28  O   -0.644570
    29  H    0.435318
    30  H    0.157294
    31  H    0.160460
    32  C    0.292759
    33  O   -0.686762
    34  H    0.436669
    35  C   -0.177713
    36  H    0.134567
    37  C   -0.189882
    38  H    0.142689
 Sum of Mulliken charges =   0.00000

 Dipole moment (field-independent basis, Debye):
    X=             -1.3914    Y=             -6.2225    Z=              1.3398  Tot=              6.5155
 Quadrupole moment (field-independent basis, Debye-Ang):
   XX=            -82.2097   YY=            -97.0584   ZZ=           -108.2464
   XY=            -15.5592   XZ=              0.7391   YZ=              3.5377

 Normal termination of Gaussian 09 at Mon Jan 25 16:30:01 2021.
