 Gaussian 09, Revision D.01,

 -----------------
 #p b3lyp/6-31G(d)
 -----------------

 ----------------------------------------------
 SET_328_BBB272_conf1.geo_015_090_180.n.pdb.xyz
 ----------------------------------------------
 Symbolic Z-matrix:
 Charge =  0 Multiplicity = 1

 SCF Done:  E(RB3LYP) =  -648.683457959     A.U. after   15 cycles

 1\1\GINC-PIRINEUS32\SP\RB3LYP\6-31G(d)\C9H8O4\UBAFAR01\25-Jan-2021\0\\
 #p b3lyp/6-31G(d)\\SET_328_BBB272_conf1.geo_015_090_180.n.pdb.xyz\\0,1
 \C,0,2.353,0.208,-2.598\H,0,1.872,-0.361,-3.397\H,0,3.017,-0.472,-2.05
 6\H,0,2.935,1.03,-3.013\C,0,1.333,0.74,-1.634\O,0,1.283,1.85,-1.168\O,
 0,0.418,-0.243,-1.335\C,0,-0.483,-0.001,-0.308\C,0,-0.169,-0.407,0.998
 \C,0,1.168,-0.992,1.312\O,0,1.202,-1.906,2.31\H,0,0.304,-2.185,2.563\O
 ,0,2.199,-0.687,0.753\C,0,-1.13,-0.219,2.002\H,0,-0.895,-0.491,3.026\C
 ,0,-2.365,0.352,1.713\H,0,-3.09,0.5,2.503\C,0,-2.663,0.731,0.404\H,0,-

 Normal termination of Gaussian 09 at Mon Jan 25 16:23:39 2021.
 Gaussian 09:  AM64L-G09RevD.01 24-Apr-2013

 ----------------------------------------------------------------------
 #p b3lyp/6-31G(d) scrf=(iefpcm,read,solvent=n-Octanol) geom=allcheck g
 uess=read
 ----------------------------------------------------------------------

 Structure from the checkpoint file:  "SET_328_BBB272_conf1.geo_015_090_180.n.pdb.xyz.mst.n.o.chk"
 ----------------------------------------------
 SET_328_BBB272_conf1.geo_015_090_180.n.pdb.xyz
 ----------------------------------------------
 Charge =  0 Multiplicity = 1

                         Standard orientation:
 ---------------------------------------------------------------------
 Center     Atomic      Atomic             Coordinates (Angstroms)
 Number     Number       Type             X           Y           Z
 ---------------------------------------------------------------------
      1          6           0       -3.444040   -0.288046   -0.378775
      2          1           0       -3.585312   -0.737843   -1.364295
      3          1           0       -3.468114    0.798990   -0.500561
      4          1           0       -4.240426   -0.595493    0.297893
      5          6           0       -2.110614   -0.669423    0.195024
      6          8           0       -1.880568   -1.030714    1.321214
      7          8           0       -1.137438   -0.550930   -0.770275
      8          6           0        0.187364   -0.666945   -0.374630
      9          6           0        0.908883    0.485028   -0.026153
     10          6           0        0.235204    1.815863    0.032379
     11          8           0        1.002938    2.889172   -0.269532
     12          1           0        1.851818    2.616269   -0.660914
     13          8           0       -0.922672    1.985718    0.346924
     14          6           0        2.266947    0.347133    0.295602
     15          1           0        2.835392    1.218567    0.604241
     16          6           0        2.886451   -0.897946    0.267664
     17          1           0        3.932735   -0.986884    0.530359
     18          6           0        2.154499   -2.027125   -0.099932
     19          1           0        2.632455   -3.000194   -0.132469
     20          6           0        0.802829   -1.912265   -0.424763
     21          1           0        0.218239   -2.777027   -0.719409
 ---------------------------------------------------------------------

 SCF Done:  E(RB3LYP) =  -648.704612580     A.U. after   11 cycles

 The electronic state is 1-A.
 Alpha  occ. eigenvalues --  -19.20318 -19.20159 -19.14473 -19.14373 -10.33240
 Alpha  occ. eigenvalues --  -10.32793 -10.27178 -10.22417 -10.21853 -10.21354
 Alpha  occ. eigenvalues --  -10.20953 -10.20830 -10.19497  -1.11613  -1.10658
 Alpha  occ. eigenvalues --   -1.03052  -1.02356  -0.87802  -0.78508  -0.78041
 Alpha  occ. eigenvalues --   -0.74270  -0.66395  -0.64454  -0.62170  -0.59208
 Alpha  occ. eigenvalues --   -0.55013  -0.50299  -0.49624  -0.49270  -0.47758
 Alpha  occ. eigenvalues --   -0.46658  -0.45687  -0.45364  -0.43882  -0.41347
 Alpha  occ. eigenvalues --   -0.41007  -0.40015  -0.38905  -0.38148  -0.37356
 Alpha  occ. eigenvalues --   -0.36853  -0.32751  -0.31479  -0.28614  -0.28337
 Alpha  occ. eigenvalues --   -0.27304  -0.26253
 Alpha virt. eigenvalues --   -0.05351  -0.02123   0.00603   0.03600   0.07333
 Alpha virt. eigenvalues --    0.09319   0.11832   0.13662   0.14309   0.15130
 Alpha virt. eigenvalues --    0.16538   0.17503   0.17953   0.19505   0.22284

 Mulliken charges:
               1
     1  C   -0.534063
     2  H    0.187559
     3  H    0.206873
     4  H    0.183961
     5  C    0.620144
     6  O   -0.470184
     7  O   -0.525383
     8  C    0.327562
     9  C    0.036661
    10  C    0.558323
    11  O   -0.578923
    12  H    0.440964
    13  O   -0.472766
    14  C   -0.213607
    15  H    0.164757
    16  C   -0.125922
    17  H    0.160439
    18  C   -0.138971
    19  H    0.164312
    20  C   -0.155181
    21  H    0.163444
 Sum of Mulliken charges =   0.00000

 Dipole moment (field-independent basis, Debye):
    X=              4.3979    Y=             -2.0422    Z=             -3.0079  Tot=              5.7061
 Quadrupole moment (field-independent basis, Debye-Ang):
   XX=            -55.6311   YY=            -74.0817   ZZ=            -77.5866
   XY=              3.5934   XZ=              4.7654   YZ=              0.8997

 1\1\GINC-PIRINEUS32\SP\RB3LYP\6-31G(d)\C9H8O4\UBAFAR01\25-Jan-2021\0\\
 #p b3lyp/6-31G(d) scrf=(iefpcm,read,solvent=n-Octanol) geom=allcheck g
 uess=read\\SET_328_BBB272_conf1.geo_015_090_180.n.pdb.xyz\\0,1\C,0,2.3
 53,0.208,-2.598\H,0,1.872,-0.361,-3.397\H,0,3.017,-0.472,-2.056\H,0,2.
 935,1.03,-3.013\C,0,1.333,0.74,-1.634\O,0,1.283,1.85,-1.168\O,0,0.418,
 -0.243,-1.335\C,0,-0.483,-0.001,-0.308\C,0,-0.169,-0.407,0.998\C,0,1.1
 68,-0.992,1.312\O,0,1.202,-1.906,2.31\H,0,0.304,-2.185,2.563\O,0,2.199
 ,-0.687,0.753\C,0,-1.13,-0.219,2.002\H,0,-0.895,-0.491,3.026\C,0,-2.36

 Normal termination of Gaussian 09 at Mon Jan 25 16:24:46 2021.
