 Gaussian 09, Revision D.01,

 -----------------
 #p b3lyp/6-31G(d)
 -----------------

 ---------------------------------------------
 SET_328_BBB20_conf1.geo_060_180_300.n.pdb.xyz
 ---------------------------------------------
 Symbolic Z-matrix:
 Charge =  0 Multiplicity = 1

 SCF Done:  E(RB3LYP) =  -769.345320660     A.U. after   15 cycles
 Normal termination of Gaussian 09 at Sun Jan 24 22:33:15 2021.
 Gaussian 09:  AM64L-G09RevD.01 24-Apr-2013

 ----------------------------------------------------------------------
 #p b3lyp/6-31G(d) scrf=(iefpcm,read,solvent=n-Octanol) geom=allcheck g
 uess=read
 ----------------------------------------------------------------------

 Structure from the checkpoint file:  "SET_328_BBB20_conf1.geo_060_180_300.n.pdb.xyz.mst.n.o.chk"
 ---------------------------------------------
 SET_328_BBB20_conf1.geo_060_180_300.n.pdb.xyz
 ---------------------------------------------
 Charge =  0 Multiplicity = 1

                         Standard orientation:
 ---------------------------------------------------------------------
 Center     Atomic      Atomic             Coordinates (Angstroms)
 Number     Number       Type             X           Y           Z
 ---------------------------------------------------------------------
      1          7           0        3.427798   -3.341689    0.801454
      2          1           0        2.649476   -3.756247    0.293037
      3          1           0        3.144910   -3.324365    1.777908
      4          6           0        3.669522   -1.973906    0.336097
      5          1           0        3.916987   -2.027192   -0.729537
      6          1           0        4.569857   -1.606651    0.840476
      7          6           0        2.544184   -0.950154    0.549108
      8          1           0        2.906039    0.040303    0.251654
      9          1           0        2.299422   -0.888581    1.616157
     10          6           0        1.273529   -1.289393   -0.228255
     11          1           0        0.902809   -2.259961    0.106021
     12          1           0        1.510942   -1.399772   -1.299986
     13          7           0        0.196577   -0.324538    0.009750
     14          6           0        0.493255    1.045381   -0.266409
     15          6           0        1.284324    1.416127   -1.360018
     16          1           0        1.664753    0.651250   -2.028999
     17          6           0        1.580363    2.759230   -1.595911
     18          1           0        2.192650    3.031527   -2.448486
     19          6           0        1.080558    3.743339   -0.742786
     20          1           0        1.306274    4.789420   -0.921590
     21          6           0        0.293755    3.372119    0.347570
     22          1           0       -0.089897    4.131093    1.025481
     23          6           0        0.002730    2.030140    0.606169
     24          6           0       -0.837832    1.599811    1.772977
     25          1           0       -0.984799    2.445509    2.451978
     26          1           0       -0.316132    0.815888    2.334868
     27          6           0       -2.213660    1.086376    1.334065
     28          1           0       -2.732988    1.907935    0.824221
     29          1           0       -2.811079    0.869264    2.227925
     30          6           0       -2.254845   -0.142121    0.435460
     31          6           0       -3.526668   -0.688193    0.215168
     32          1           0       -4.374952   -0.202080    0.691173
     33          6           0       -3.741317   -1.820348   -0.563095
     34          1           0       -4.743437   -2.212533   -0.697433
     35          6           0       -2.645312   -2.438607   -1.157996
     36          1           0       -2.775031   -3.318872   -1.778853
     37          6           0       -1.371290   -1.914164   -0.968563
     38          1           0       -0.531967   -2.384941   -1.462858
     39          6           0       -1.143707   -0.775205   -0.172178
 ---------------------------------------------------------------------

 SCF Done:  E(RB3LYP) =  -769.366645024     A.U. after   10 cycles

 The electronic state is 1-A.
 Alpha  occ. eigenvalues --  -14.34811 -14.30975 -10.22639 -10.22017 -10.21504
 Alpha  occ. eigenvalues --  -10.20482 -10.19326 -10.18976 -10.18874 -10.18837
 Alpha  occ. eigenvalues --  -10.18701 -10.18689 -10.18562 -10.18480 -10.18450
 Alpha  occ. eigenvalues --  -10.18295 -10.18212 -10.18051 -10.17779  -0.94932
 Alpha  occ. eigenvalues --   -0.87765  -0.85315  -0.84303  -0.79733  -0.76391
 Alpha  occ. eigenvalues --   -0.75348  -0.74959  -0.72225  -0.70040  -0.66373
 Alpha  occ. eigenvalues --   -0.64503  -0.61091  -0.59907  -0.58497  -0.57181
 Alpha  occ. eigenvalues --   -0.56477  -0.51504  -0.51097  -0.49033  -0.47710
 Alpha  occ. eigenvalues --   -0.47064  -0.46760  -0.45617  -0.45299  -0.43681
 Alpha  occ. eigenvalues --   -0.43308  -0.42754  -0.41417  -0.40796  -0.40159
 Alpha  occ. eigenvalues --   -0.38901  -0.38511  -0.38185  -0.37629  -0.36522
 Alpha  occ. eigenvalues --   -0.35521  -0.34306  -0.34015  -0.33848  -0.33431
 Alpha  occ. eigenvalues --   -0.33333  -0.32639  -0.28693  -0.24698  -0.24150
 Alpha  occ. eigenvalues --   -0.23629  -0.23243  -0.19629
 Alpha virt. eigenvalues --   -0.00536   0.00185   0.00526   0.01049   0.07621
 Alpha virt. eigenvalues --    0.09700   0.10355   0.10539   0.11726   0.12112
 Alpha virt. eigenvalues --    0.13000   0.13798   0.14609   0.15245   0.15749

 Mulliken charges:
               1
     1  N   -0.736435
     2  H    0.309974
     3  H    0.310027
     4  C   -0.150634
     5  H    0.141422
     6  H    0.145245
     7  C   -0.277232
     8  H    0.148220
     9  H    0.140902
    10  C   -0.140072
    11  H    0.149146
    12  H    0.137137
    13  N   -0.577988
    14  C    0.214403
    15  C   -0.162043
    16  H    0.139175
    17  C   -0.157718
    18  H    0.138085
    19  C   -0.132405
    20  H    0.135283
    21  C   -0.222671
    22  H    0.132753
    23  C    0.158750
    24  C   -0.347590
    25  H    0.142946
    26  H    0.158234
    27  C   -0.343600
    28  H    0.157696
    29  H    0.154639
    30  C    0.155470
    31  C   -0.210482
    32  H    0.128588
    33  C   -0.136874
    34  H    0.131817
    35  C   -0.158748
    36  H    0.134738
    37  C   -0.184919
    38  H    0.139567
    39  C    0.235193
 Sum of Mulliken charges =   0.00000

 Dipole moment (field-independent basis, Debye):
    X=             -0.5938    Y=              0.7081    Z=              0.4377  Tot=              1.0225
 Quadrupole moment (field-independent basis, Debye-Ang):
   XX=           -117.9468   YY=           -111.0219   ZZ=           -108.5032
   XY=              6.4566   XZ=             -4.4819   YZ=              3.1883

 Normal termination of Gaussian 09 at Sun Jan 24 22:37:09 2021.
