 Gaussian 09, Revision D.01,

 -----------------
 #p b3lyp/6-31G(d)
 -----------------

 ---------------------------------------------
 SET_328_BBB29_conf1.geo_090_075_180.n.pdb.xyz
 ---------------------------------------------
 Symbolic Z-matrix:
 Charge =  0 Multiplicity = 1

 SCF Done:  E(RB3LYP) =  -1548.50886539     A.U. after   16 cycles
 Normal termination of Gaussian 09 at Sun Jan 24 23:12:49 2021.
 Gaussian 09:  AM64L-G09RevD.01 24-Apr-2013

 ----------------------------------------------------------------------
 #p b3lyp/6-31G(d) scrf=(iefpcm,read,solvent=Water) geom=allcheck guess
 =read
 ----------------------------------------------------------------------

 Structure from the checkpoint file:  "SET_328_BBB29_conf1.geo_090_075_180.n.pdb.xyz.mst.n.w.chk"
 ---------------------------------------------
 SET_328_BBB29_conf1.geo_090_075_180.n.pdb.xyz
 ---------------------------------------------
 Charge =  0 Multiplicity = 1

                         Standard orientation:
 ---------------------------------------------------------------------
 Center     Atomic      Atomic             Coordinates (Angstroms)
 Number     Number       Type             X           Y           Z
 ---------------------------------------------------------------------
      1          7           0       -0.965407    4.200819    1.661153
      2          1           0       -1.045499    5.059832    1.110060
      3          1           0       -0.529713    4.489153    2.537123
      4          6           0       -0.057260    3.281441    0.963074
      5          1           0        0.134161    2.432672    1.626688
      6          1           0        0.926015    3.724806    0.730345
      7          6           0       -0.695588    2.780551   -0.334040
      8          1           0       -0.913712    3.636923   -0.984458
      9          1           0       -1.654951    2.309248   -0.104723
     10          6           0        0.205306    1.833346   -1.135864
     11          1           0        1.156458    2.334047   -1.314090
     12          1           0       -0.233412    1.629035   -2.120775
     13          7           0        0.513846    0.583607   -0.422136
     14          6           0       -0.547059   -0.285559   -0.089243
     15          6           0       -1.791586   -0.209994   -0.730762
     16          1           0       -1.964027    0.506895   -1.520878
     17          6           0       -2.815122   -1.071699   -0.348302
     18         17           0       -4.374549   -0.934663   -1.157296
     19          6           0       -2.644867   -2.039741    0.635379
     20          1           0       -3.455779   -2.699273    0.913518
     21          6           0       -1.395595   -2.136977    1.248441
     22          1           0       -1.227564   -2.888426    2.010445
     23          6           0       -0.364452   -1.262505    0.909708
     24         16           0        1.186416   -1.309917    1.784171
     25          6           0        2.255363   -0.912477    0.411358
     26          6           0        1.811984    0.021540   -0.544923
     27          6           0        2.680459    0.354590   -1.597388
     28          1           0        2.356895    1.038575   -2.371226
     29          6           0        3.964134   -0.190697   -1.659989
     30          1           0        4.620517    0.095940   -2.474779
     31          6           0        4.393918   -1.107883   -0.702347
     32          1           0        5.388830   -1.537004   -0.756314
     33          6           0        3.525940   -1.482071    0.325270
     34          1           0        3.833937   -2.206657    1.070998
 ---------------------------------------------------------------------

 SCF Done:  E(RB3LYP) =  -1548.52029281     A.U. after   11 cycles

 The electronic state is 1-A.
 Alpha  occ. eigenvalues -- -101.55495 -88.89808 -14.37320 -14.30368 -10.25797
 Alpha  occ. eigenvalues --  -10.24932 -10.24297 -10.22995 -10.22636 -10.22279
 Alpha  occ. eigenvalues --  -10.20784 -10.20611 -10.20288 -10.20002 -10.19974
 Alpha  occ. eigenvalues --  -10.19601 -10.19518 -10.19182 -10.18128  -9.47124
 Alpha  occ. eigenvalues --   -7.95845  -7.23507  -7.22560  -7.22527  -5.92344
 Alpha  occ. eigenvalues --   -5.91996  -5.91351  -0.97264  -0.89450  -0.87084
 Alpha  occ. eigenvalues --   -0.86214  -0.84944  -0.80103  -0.77192  -0.76992
 Alpha  occ. eigenvalues --   -0.74683  -0.73325  -0.68737  -0.66979  -0.63305
 Alpha  occ. eigenvalues --   -0.61433  -0.61013  -0.58177  -0.56497  -0.54225
 Alpha  occ. eigenvalues --   -0.51455  -0.48821  -0.48623  -0.48137  -0.47079
 Alpha  occ. eigenvalues --   -0.46482  -0.46043  -0.44639  -0.44218  -0.43005
 Alpha  occ. eigenvalues --   -0.41823  -0.41018  -0.40599  -0.40043  -0.38941
 Alpha  occ. eigenvalues --   -0.38400  -0.36707  -0.36314  -0.35795  -0.35051
 Alpha  occ. eigenvalues --   -0.34459  -0.33993  -0.32941  -0.32016  -0.30723
 Alpha  occ. eigenvalues --   -0.29481  -0.26367  -0.25512  -0.23376  -0.23198
 Alpha  occ. eigenvalues --   -0.19632
 Alpha virt. eigenvalues --   -0.02311  -0.01802  -0.00994   0.00252   0.02090
 Alpha virt. eigenvalues --    0.03529   0.07531   0.09435   0.10264   0.11782
 Alpha virt. eigenvalues --    0.12811   0.13910   0.14068   0.14116   0.14690

 Mulliken charges:
               1
     1  N   -0.777304
     2  H    0.322466
     3  H    0.328209
     4  C   -0.128666
     5  H    0.149743
     6  H    0.120541
     7  C   -0.272627
     8  H    0.149610
     9  H    0.152126
    10  C   -0.167204
    11  H    0.175074
    12  H    0.166971
    13  N   -0.576163
    14  C    0.314904
    15  C   -0.169190
    16  H    0.180671
    17  C   -0.094519
    18  Cl  -0.044593
    19  C   -0.132580
    20  H    0.172226
    21  C   -0.188534
    22  H    0.172860
    23  C   -0.123899
    24  S    0.137482
    25  C   -0.132345
    26  C    0.304159
    27  C   -0.184085
    28  H    0.165929
    29  C   -0.163810
    30  H    0.155980
    31  C   -0.139526
    32  H    0.153094
    33  C   -0.189793
    34  H    0.162793
 Sum of Mulliken charges =   0.00000

 Dipole moment (field-independent basis, Debye):
    X=              3.2932    Y=              2.5507    Z=             -1.6789  Tot=              4.4911
 Quadrupole moment (field-independent basis, Debye-Ang):
   XX=           -128.1094   YY=           -108.8853   ZZ=           -121.5994
   XY=              3.9056   XZ=             -4.4031   YZ=             -7.0213

 Normal termination of Gaussian 09 at Sun Jan 24 23:16:38 2021.
