 Gaussian 09, Revision D.01,

 -----------------
 #p b3lyp/6-31G(d)
 -----------------

 ----------------------------------------------
 SET_328_BBB292_conf1.geo_075_060_255.n.pdb.xyz
 ----------------------------------------------
 Symbolic Z-matrix:
 Charge =  0 Multiplicity = 1

 SCF Done:  E(RB3LYP) =  -705.212239100     A.U. after   15 cycles
 Normal termination of Gaussian 09 at Mon Mar 29 22:44:47 2021.
 Gaussian 09:  AM64L-G09RevD.01 24-Apr-2013

 ----------------------------------------------------------------------
 #p b3lyp/6-31G(d) scrf=(iefpcm,read,solvent=Water) geom=allcheck guess
 =read
 ----------------------------------------------------------------------

 Structure from the checkpoint file:  "SET_328_BBB292_conf1.geo_075_060_255.n.pdb.xyz.mst.n.w.chk"
 ----------------------------------------------
 SET_328_BBB292_conf1.geo_075_060_255.n.pdb.xyz
 ----------------------------------------------
 Charge =  0 Multiplicity = 1

                         Standard orientation:
 ---------------------------------------------------------------------
 Center     Atomic      Atomic             Coordinates (Angstroms)
 Number     Number       Type             X           Y           Z
 ---------------------------------------------------------------------
      1          7           0        3.682976    1.225985   -0.211466
      2          1           0        3.613517    2.161618   -0.608764
      3          1           0        4.064756    0.634771   -0.952232
      4          6           0        2.334322    0.756793    0.106159
      5          6           0        2.452285   -0.661658    0.637861
      6          8           0        1.761277   -0.849965    1.772023
      7          1           0        1.851056   -1.791349    2.031572
      8          8           0        3.087993   -1.541898    0.084904
      9          1           0        1.928113    1.383245    0.902562
     10          6           0        1.350812    0.779883   -1.098506
     11          1           0        1.772930    0.145622   -1.883823
     12          1           0        1.347539    1.808732   -1.473983
     13          6           0       -0.056303    0.330279   -0.778983
     14          6           0       -0.950420    1.181924   -0.113115
     15          1           0       -0.653083    2.187570    0.167632
     16          6           0       -2.237196    0.762901    0.214912
     17          8           0       -3.087642    1.646300    0.840750
     18          1           0       -3.607939    1.175097    1.518778
     19          6           0       -2.668697   -0.527537   -0.147413
     20          8           0       -3.932549   -0.970329    0.137829
     21          1           0       -4.526443   -0.205048    0.235197
     22          6           0       -1.780537   -1.385619   -0.794385
     23          1           0       -2.123836   -2.376784   -1.068069
     24          6           0       -0.488853   -0.960492   -1.102698
     25          1           0        0.187453   -1.637066   -1.615648
 ---------------------------------------------------------------------

 SCF Done:  E(RB3LYP) =  -705.245669362     A.U. after   11 cycles

 The electronic state is 1-A.
 Alpha  occ. eigenvalues --  -19.19624 -19.17674 -19.17511 -19.14267 -14.31502
 Alpha  occ. eigenvalues --  -10.32157 -10.24677 -10.24585 -10.22635 -10.19375
 Alpha  occ. eigenvalues --  -10.19047 -10.18752 -10.18684 -10.18568  -1.10508
 Alpha  occ. eigenvalues --   -1.06642  -1.03990  -1.01558  -0.89073  -0.85124
 Alpha  occ. eigenvalues --   -0.77479  -0.74252  -0.71772  -0.66922  -0.61664
 Alpha  occ. eigenvalues --   -0.60550  -0.57992  -0.56049  -0.52510  -0.50561
 Alpha  occ. eigenvalues --   -0.49166  -0.48510  -0.46890  -0.45155  -0.44015
 Alpha  occ. eigenvalues --   -0.43383  -0.42726  -0.41791  -0.40290  -0.39110
 Alpha  occ. eigenvalues --   -0.38456  -0.38071  -0.36692  -0.36135  -0.35053
 Alpha  occ. eigenvalues --   -0.32525  -0.32350  -0.31601  -0.28022  -0.24890
 Alpha  occ. eigenvalues --   -0.23799  -0.21221
 Alpha virt. eigenvalues --   -0.00134   0.00536   0.01341   0.06499   0.09523
 Alpha virt. eigenvalues --    0.10358   0.11183   0.12573   0.14720   0.15128
 Alpha virt. eigenvalues --    0.16219   0.17240   0.17876   0.19119   0.20615

 Mulliken charges:
               1
     1  N   -0.763542
     2  H    0.339451
     3  H    0.329989
     4  C   -0.041181
     5  C    0.612103
     6  O   -0.578486
     7  H    0.458200
     8  O   -0.529260
     9  H    0.164624
    10  C   -0.373452
    11  H    0.158332
    12  H    0.164042
    13  C    0.157678
    14  C   -0.250215
    15  H    0.145070
    16  C    0.297288
    17  O   -0.692522
    18  H    0.454022
    19  C    0.299447
    20  O   -0.680913
    21  H    0.448626
    22  C   -0.195853
    23  H    0.149042
    24  C   -0.214466
    25  H    0.141976
 Sum of Mulliken charges =   0.00000

 Dipole moment (field-independent basis, Debye):
    X=             -3.2602    Y=              1.5493    Z=              0.7386  Tot=              3.6844
 Quadrupole moment (field-independent basis, Debye-Ang):
   XX=            -79.2767   YY=            -79.4256   ZZ=            -74.8844
   XY=              2.7256   XZ=            -10.2246   YZ=             -4.8379

 Normal termination of Gaussian 09 at Mon Mar 29 22:46:29 2021.
