 Gaussian 09, Revision D.01,

 -----------------
 #p b3lyp/6-31G(d)
 -----------------

 ---------------------------------------------
 SET_328_BBB29_conf1.geo_090_180_300.n.pdb.xyz
 ---------------------------------------------
 Symbolic Z-matrix:
 Charge =  0 Multiplicity = 1

 SCF Done:  E(RB3LYP) =  -1548.51085459     A.U. after   16 cycles
 Normal termination of Gaussian 09 at Sun Jan 24 23:15:14 2021.
 Gaussian 09:  AM64L-G09RevD.01 24-Apr-2013

 ----------------------------------------------------------------------
 #p b3lyp/6-31G(d) scrf=(iefpcm,read,solvent=Water) geom=allcheck guess
 =read
 ----------------------------------------------------------------------

 Structure from the checkpoint file:  "SET_328_BBB29_conf1.geo_090_180_300.n.pdb.xyz.mst.n.w.chk"
 ---------------------------------------------
 SET_328_BBB29_conf1.geo_090_180_300.n.pdb.xyz
 ---------------------------------------------
 Charge =  0 Multiplicity = 1

                         Standard orientation:
 ---------------------------------------------------------------------
 Center     Atomic      Atomic             Coordinates (Angstroms)
 Number     Number       Type             X           Y           Z
 ---------------------------------------------------------------------
      1          7           0       -0.790006    4.719484   -0.643776
      2          1           0       -1.164750    4.674416   -1.594179
      3          1           0       -0.714624    5.715034   -0.431627
      4          6           0        0.555239    4.129096   -0.642645
      5          1           0        1.010368    4.338892    0.332739
      6          1           0        1.225685    4.564626   -1.399907
      7          6           0        0.496353    2.615797   -0.860847
      8          1           0        1.517097    2.226095   -0.917829
      9          1           0        0.019745    2.401522   -1.825249
     10          6           0       -0.301129    1.919925    0.246222
     11          1           0       -1.279147    2.394702    0.283875
     12          1           0        0.170675    2.087206    1.225408
     13          7           0       -0.514133    0.489399   -0.008548
     14          6           0        0.606372   -0.367242   -0.066389
     15          6           0        1.848309    0.002418    0.474158
     16          1           0        1.971552    0.954858    0.970140
     17          6           0        2.929853   -0.867512    0.370205
     18         17           0        4.480842   -0.362970    1.036253
     19          6           0        2.822899   -2.118509   -0.226965
     20          1           0        3.678574   -2.778067   -0.293517
     21          6           0        1.579668   -2.498993   -0.733480
     22          1           0        1.462818   -3.472810   -1.196173
     23          6           0        0.490531   -1.632301   -0.675569
     24         16           0       -1.054993   -2.071724   -1.440144
     25          6           0       -2.143553   -1.312680   -0.248129
     26          6           0       -1.765428   -0.086630    0.328441
     27          6           0       -2.651081    0.520842    1.231284
     28          1           0       -2.373383    1.444778    1.720606
     29          6           0       -3.890797   -0.056689    1.510173
     30          1           0       -4.562039    0.442254    2.202233
     31          6           0       -4.256843   -1.268956    0.927427
     32          1           0       -5.216530   -1.722022    1.148507
     33          6           0       -3.367855   -1.905093    0.059758
     34          1           0       -3.626713   -2.856430   -0.394603
 ---------------------------------------------------------------------

 SCF Done:  E(RB3LYP) =  -1548.52073775     A.U. after   11 cycles

 The electronic state is 1-A.
 Alpha  occ. eigenvalues -- -101.55501 -88.89774 -14.37248 -14.30492 -10.25794
 Alpha  occ. eigenvalues --  -10.24919 -10.24189 -10.22951 -10.22561 -10.21668
 Alpha  occ. eigenvalues --  -10.20781 -10.20609 -10.20307 -10.20270 -10.19963
 Alpha  occ. eigenvalues --  -10.19516 -10.19462 -10.19125 -10.18104  -9.47131
 Alpha  occ. eigenvalues --   -7.95820  -7.23514  -7.22567  -7.22534  -5.92317
 Alpha  occ. eigenvalues --   -5.91970  -5.91325  -0.97214  -0.89441  -0.87309
 Alpha  occ. eigenvalues --   -0.86202  -0.84937  -0.80084  -0.76979  -0.76918
 Alpha  occ. eigenvalues --   -0.74665  -0.73348  -0.68907  -0.67030  -0.63268
 Alpha  occ. eigenvalues --   -0.61318  -0.60739  -0.57965  -0.56643  -0.54152
 Alpha  occ. eigenvalues --   -0.51668  -0.48887  -0.48739  -0.48085  -0.47010
 Alpha  occ. eigenvalues --   -0.46373  -0.46041  -0.44537  -0.44204  -0.43010
 Alpha  occ. eigenvalues --   -0.42133  -0.41272  -0.40278  -0.39518  -0.38800
 Alpha  occ. eigenvalues --   -0.38392  -0.36863  -0.36304  -0.35716  -0.34978
 Alpha  occ. eigenvalues --   -0.34506  -0.33999  -0.32951  -0.32020  -0.30840
 Alpha  occ. eigenvalues --   -0.29474  -0.26348  -0.25494  -0.23402  -0.23141
 Alpha  occ. eigenvalues --   -0.19588
 Alpha virt. eigenvalues --   -0.02289  -0.01800  -0.00943   0.00339   0.02106
 Alpha virt. eigenvalues --    0.03566   0.07523   0.08925   0.11310   0.11744
 Alpha virt. eigenvalues --    0.12892   0.13698   0.13967   0.13987   0.14737

 Mulliken charges:
               1
     1  N   -0.766684
     2  H    0.325030
     3  H    0.330805
     4  C   -0.137744
     5  H    0.143115
     6  H    0.129278
     7  C   -0.274046
     8  H    0.150507
     9  H    0.147902
    10  C   -0.151419
    11  H    0.182268
    12  H    0.156367
    13  N   -0.581845
    14  C    0.315425
    15  C   -0.169843
    16  H    0.178292
    17  C   -0.094027
    18  Cl  -0.044490
    19  C   -0.133657
    20  H    0.171873
    21  C   -0.187761
    22  H    0.172771
    23  C   -0.124352
    24  S    0.132289
    25  C   -0.132259
    26  C    0.305292
    27  C   -0.185169
    28  H    0.165688
    29  C   -0.164312
    30  H    0.155470
    31  C   -0.139874
    32  H    0.152704
    33  C   -0.189828
    34  H    0.162235
 Sum of Mulliken charges =   0.00000

 Dipole moment (field-independent basis, Debye):
    X=             -1.1306    Y=              3.2370    Z=             -0.2168  Tot=              3.4357
 Quadrupole moment (field-independent basis, Debye-Ang):
   XX=           -126.1908   YY=           -102.5059   ZZ=           -125.2238
   XY=              0.5068   XZ=             -5.7028   YZ=             -2.1611

 Normal termination of Gaussian 09 at Sun Jan 24 23:19:05 2021.
