 Gaussian 09, Revision D.01,

 -----------------
 #p b3lyp/6-31G(d)
 -----------------

 ----------------------------------------------
 SET_328_BBB272_conf1.geo_165_045_180.n.pdb.xyz
 ----------------------------------------------
 Symbolic Z-matrix:
 Charge =  0 Multiplicity = 1

 SCF Done:  E(RB3LYP) =  -648.689291908     A.U. after   15 cycles

 1\1\GINC-PIRINEUS32\SP\RB3LYP\6-31G(d)\C9H8O4\UBAFAR01\25-Jan-2021\0\\
 #p b3lyp/6-31G(d)\\SET_328_BBB272_conf1.geo_165_045_180.n.pdb.xyz\\0,1
 \C,0,-3.242,1.165,-0.076\H,0,-3.558,0.884,0.931\H,0,-3.574,0.378,-0.75
 9\H,0,-3.694,2.114,-0.361\C,0,-1.748,1.287,-0.131\O,0,-1.103,2.233,-0.
 502\O,0,-1.16,0.11,0.315\C,0,0.235,0.009,0.352\C,0,0.863,-0.985,-0.417
 \C,0,0.173,-1.943,-1.343\O,0,-1.167,-2.01,-1.331\H,0,-1.545,-1.388,-0.
 673\O,0,0.797,-2.671,-2.095\C,0,2.257,-1.107,-0.315\H,0,2.738,-1.873,-
 0.91\C,0,2.996,-0.278,0.521\H,0,4.071,-0.393,0.585\C,0,2.345,0.697,1.2

 Normal termination of Gaussian 09 at Mon Jan 25 16:23:38 2021.
 Gaussian 09:  AM64L-G09RevD.01 24-Apr-2013

 ----------------------------------------------------------------------
 #p b3lyp/6-31G(d) scrf=(iefpcm,read,solvent=Water) geom=allcheck guess
 =read
 ----------------------------------------------------------------------

 Structure from the checkpoint file:  "SET_328_BBB272_conf1.geo_165_045_180.n.pdb.xyz.mst.n.w.chk"
 ----------------------------------------------
 SET_328_BBB272_conf1.geo_165_045_180.n.pdb.xyz
 ----------------------------------------------
 Charge =  0 Multiplicity = 1

                         Standard orientation:
 ---------------------------------------------------------------------
 Center     Atomic      Atomic             Coordinates (Angstroms)
 Number     Number       Type             X           Y           Z
 ---------------------------------------------------------------------
      1          6           0       -3.558931    0.229954   -0.223625
      2          1           0       -3.734100   -0.021840   -1.271853
      3          1           0       -3.475229    1.318172   -0.153933
      4          1           0       -4.389945   -0.114971    0.390029
      5          6           0       -2.287754   -0.407859    0.253082
      6          8           0       -2.141698   -1.128207    1.206155
      7          8           0       -1.234967   -0.043781   -0.577023
      8          6           0        0.048752   -0.535035   -0.315623
      9          6           0        1.081790    0.378156   -0.046002
     10          6           0        0.932215    1.868303    0.045805
     11          8           0       -0.226559    2.431187   -0.329209
     12          1           0       -0.863910    1.752561   -0.639022
     13          8           0        1.838912    2.581519    0.438345
     14          6           0        2.372735   -0.134835    0.151038
     15          1           0        3.166256    0.571410    0.360044
     16          6           0        2.627296   -1.499441    0.078181
     17          1           0        3.632798   -1.871554    0.231297
     18          6           0        1.582801   -2.384823   -0.199586
     19          1           0        1.770376   -3.450880   -0.265821
     20          6           0        0.290133   -1.903052   -0.399140
     21          1           0       -0.525971   -2.576855   -0.621655
 ---------------------------------------------------------------------

 SCF Done:  E(RB3LYP) =  -648.704900283     A.U. after   11 cycles

 The electronic state is 1-A.
 Alpha  occ. eigenvalues --  -19.22739 -19.19535 -19.16556 -19.14051 -10.34616
 Alpha  occ. eigenvalues --  -10.33270 -10.27722 -10.22275 -10.21087 -10.20892
 Alpha  occ. eigenvalues --  -10.20876 -10.20324 -10.20275  -1.13248  -1.10459
 Alpha  occ. eigenvalues --   -1.04953  -1.01960  -0.87622  -0.78992  -0.77734
 Alpha  occ. eigenvalues --   -0.74637  -0.66246  -0.64955  -0.61997  -0.59359
 Alpha  occ. eigenvalues --   -0.54609  -0.51131  -0.50847  -0.50128  -0.48293
 Alpha  occ. eigenvalues --   -0.46562  -0.45416  -0.45049  -0.44350  -0.42460
 Alpha  occ. eigenvalues --   -0.41614  -0.40569  -0.40132  -0.37957  -0.37385
 Alpha  occ. eigenvalues --   -0.36434  -0.33644  -0.32095  -0.30187  -0.28776
 Alpha  occ. eigenvalues --   -0.27016  -0.26263
 Alpha virt. eigenvalues --   -0.05626  -0.02272  -0.00668   0.04810   0.08321
 Alpha virt. eigenvalues --    0.09258   0.13530   0.13980   0.15480   0.15911
 Alpha virt. eigenvalues --    0.16286   0.17546   0.18711   0.19380   0.21739

 Mulliken charges:
               1
     1  C   -0.529313
     2  H    0.210810
     3  H    0.208550
     4  H    0.199399
     5  C    0.620423
     6  O   -0.469946
     7  O   -0.566605
     8  C    0.311636
     9  C    0.030006
    10  C    0.578137
    11  O   -0.613262
    12  H    0.460843
    13  O   -0.518738
    14  C   -0.187790
    15  H    0.173070
    16  C   -0.132818
    17  H    0.166930
    18  C   -0.142552
    19  H    0.173123
    20  C   -0.148263
    21  H    0.176359
 Sum of Mulliken charges =   0.00000

 Dipole moment (field-independent basis, Debye):
    X=             -3.2523    Y=             -4.5869    Z=             -3.0804  Tot=              6.4114
 Quadrupole moment (field-independent basis, Debye-Ang):
   XX=            -60.4208   YY=            -82.4463   ZZ=            -76.8984
   XY=            -14.5265   XZ=              4.2798   YZ=              1.3637

 1\1\GINC-PIRINEUS32\SP\RB3LYP\6-31G(d)\C9H8O4\UBAFAR01\25-Jan-2021\0\\
 #p b3lyp/6-31G(d) scrf=(iefpcm,read,solvent=Water) geom=allcheck guess
 =read\\SET_328_BBB272_conf1.geo_165_045_180.n.pdb.xyz\\0,1\C,0,-3.242,
 1.165,-0.076\H,0,-3.558,0.884,0.931\H,0,-3.574,0.378,-0.759\H,0,-3.694
 ,2.114,-0.361\C,0,-1.748,1.287,-0.131\O,0,-1.103,2.233,-0.502\O,0,-1.1
 6,0.11,0.315\C,0,0.235,0.009,0.352\C,0,0.863,-0.985,-0.417\C,0,0.173,-
 1.943,-1.343\O,0,-1.167,-2.01,-1.331\H,0,-1.545,-1.388,-0.673\O,0,0.79
 7,-2.671,-2.095\C,0,2.257,-1.107,-0.315\H,0,2.738,-1.873,-0.91\C,0,2.9

 Normal termination of Gaussian 09 at Mon Jan 25 16:24:42 2021.
