 Gaussian 09, Revision D.01,

 -----------------
 #p b3lyp/6-31G(d)
 -----------------

 --------------------------------------------
 SET_328_BBB6_conf1.geo_165_225_075.n.pdb.xyz
 --------------------------------------------
 Symbolic Z-matrix:
 Charge =  0 Multiplicity = 1

 SCF Done:  E(RB3LYP) =  -1096.39920952     A.U. after   15 cycles
 Normal termination of Gaussian 09 at Sun Jan 24 23:19:33 2021.
 Gaussian 09:  AM64L-G09RevD.01 24-Apr-2013

 ----------------------------------------------------------------------
 #p b3lyp/6-31G(d) scrf=(iefpcm,read,solvent=Water) geom=allcheck guess
 =read
 ----------------------------------------------------------------------

 Structure from the checkpoint file:  "SET_328_BBB6_conf1.geo_165_225_075.n.pdb.xyz.mst.n.w.chk"
 --------------------------------------------
 SET_328_BBB6_conf1.geo_165_225_075.n.pdb.xyz
 --------------------------------------------
 Charge =  0 Multiplicity = 1

                         Standard orientation:
 ---------------------------------------------------------------------
 Center     Atomic      Atomic             Coordinates (Angstroms)
 Number     Number       Type             X           Y           Z
 ---------------------------------------------------------------------
      1          6           0        1.417092    1.562804    2.016639
      2          1           0        0.484251    2.132145    2.042515
      3          1           0        2.257145    2.259955    2.047173
      4          1           0        1.458800    0.931245    2.909515
      5          6           0        1.531244    0.691745    0.748659
      6          7           0        2.788978   -0.048132    0.772743
      7          6           0        3.425798   -0.378137   -0.530076
      8          6           0        2.481840   -1.100088   -1.516654
      9          1           0        1.614674   -0.479955   -1.770770
     10          1           0        2.113704   -2.037069   -1.090603
     11          1           0        3.000903   -1.333390   -2.451898
     12          6           0        3.952917    0.921171   -1.167970
     13          1           0        4.635519    1.434508   -0.483972
     14          1           0        3.139965    1.611432   -1.417095
     15          1           0        4.490934    0.701957   -2.095916
     16          6           0        4.613302   -1.297367   -0.195642
     17          1           0        5.175072   -1.551713   -1.098961
     18          1           0        4.268358   -2.232941    0.258855
     19          1           0        5.293205   -0.807606    0.507718
     20          1           0        2.612594   -0.919133    1.274976
     21          1           0        1.524186    1.350503   -0.119955
     22          6           0        0.303641   -0.230344    0.703556
     23          8           0        0.388093   -1.369236    1.151572
     24          6           0       -1.003321    0.276028    0.179584
     25          6           0       -2.116956   -0.570427    0.298808
     26          1           0       -1.994577   -1.540249    0.761922
     27          6           0       -3.346672   -0.147201   -0.178671
     28         17           0       -4.741238   -1.209642   -0.025373
     29          6           0       -3.508637    1.102439   -0.778386
     30          1           0       -4.480081    1.410519   -1.143924
     31          6           0       -2.399261    1.939217   -0.896507
     32          1           0       -2.511348    2.912842   -1.361767
     33          6           0       -1.152012    1.532451   -0.421798
     34          1           0       -0.303697    2.197934   -0.527524
 ---------------------------------------------------------------------

 SCF Done:  E(RB3LYP) =  -1096.40495733     A.U. after   11 cycles

 The electronic state is 1-A.
 Alpha  occ. eigenvalues -- -101.55738 -19.15176 -14.31039 -10.28379 -10.26288
 Alpha  occ. eigenvalues --  -10.22129 -10.21939 -10.21605 -10.21591 -10.21280
 Alpha  occ. eigenvalues --  -10.21193 -10.20951 -10.17979 -10.16902 -10.16842
 Alpha  occ. eigenvalues --  -10.16800  -9.47372  -7.23758  -7.22806  -7.22770
 Alpha  occ. eigenvalues --   -1.05060  -0.90480  -0.90075  -0.84861  -0.79548
 Alpha  occ. eigenvalues --   -0.77554  -0.74948  -0.72756  -0.68376  -0.68229
 Alpha  occ. eigenvalues --   -0.66444  -0.62065  -0.61485  -0.55800  -0.54465
 Alpha  occ. eigenvalues --   -0.52950  -0.49567  -0.48219  -0.46654  -0.45803
 Alpha  occ. eigenvalues --   -0.44982  -0.44232  -0.44026  -0.43029  -0.42599
 Alpha  occ. eigenvalues --   -0.41527  -0.40326  -0.39488  -0.38341  -0.38109
 Alpha  occ. eigenvalues --   -0.37698  -0.37176  -0.36583  -0.36237  -0.35873
 Alpha  occ. eigenvalues --   -0.34419  -0.33900  -0.32619  -0.32252  -0.31873
 Alpha  occ. eigenvalues --   -0.27159  -0.26695  -0.25844  -0.22047
 Alpha virt. eigenvalues --   -0.06939  -0.02108   0.02296   0.02791   0.07801
 Alpha virt. eigenvalues --    0.09873   0.12098   0.12947   0.13234   0.14617
 Alpha virt. eigenvalues --    0.15044   0.15853   0.15946   0.16438   0.16578

 Mulliken charges:
               1
     1  C   -0.446853
     2  H    0.155005
     3  H    0.165617
     4  H    0.158332
     5  C   -0.061985
     6  N   -0.589426
     7  C    0.215792
     8  C   -0.459053
     9  H    0.138717
    10  H    0.148255
    11  H    0.146317
    12  C   -0.446748
    13  H    0.146554
    14  H    0.147187
    15  H    0.146253
    16  C   -0.459246
    17  H    0.148382
    18  H    0.145370
    19  H    0.147966
    20  H    0.317012
    21  H    0.156197
    22  C    0.416736
    23  O   -0.520605
    24  C    0.079151
    25  C   -0.153205
    26  H    0.178580
    27  C   -0.075924
    28  Cl  -0.034531
    29  C   -0.119283
    30  H    0.182718
    31  C   -0.146276
    32  H    0.174429
    33  C   -0.177309
    34  H    0.175873
 Sum of Mulliken charges =   0.00000

 Dipole moment (field-independent basis, Debye):
    X=              0.0547    Y=              3.9881    Z=             -2.2350  Tot=              4.5720
 Quadrupole moment (field-independent basis, Debye-Ang):
   XX=           -107.6110   YY=            -99.8315   ZZ=           -104.1123
   XY=             -7.8009   XZ=             -0.5286   YZ=             -1.3618

 Normal termination of Gaussian 09 at Sun Jan 24 23:22:33 2021.
