 Gaussian 09, Revision D.01,

 -----------------
 #p b3lyp/6-31G(d)
 -----------------

 ----------------------------------------------
 SET_328_BBB256_conf1.geo_075_180_255.n.pdb.xyz
 ----------------------------------------------
 Symbolic Z-matrix:
 Charge =  0 Multiplicity = 1

 SCF Done:  E(RB3LYP) =  -421.566697182     A.U. after   14 cycles
 Normal termination of Gaussian 09 at Mon Mar 29 22:42:30 2021.
 Gaussian 09:  AM64L-G09RevD.01 24-Apr-2013

 ----------------------------------------------------------------------
 #p b3lyp/6-31G(d) scrf=(iefpcm,read,solvent=Water) geom=allcheck guess
 =read
 ----------------------------------------------------------------------

 Structure from the checkpoint file:  "SET_328_BBB256_conf1.geo_075_180_255.n.pdb.xyz.mst.n.w.chk"
 ----------------------------------------------
 SET_328_BBB256_conf1.geo_075_180_255.n.pdb.xyz
 ----------------------------------------------
 Charge =  0 Multiplicity = 1

                         Standard orientation:
 ---------------------------------------------------------------------
 Center     Atomic      Atomic             Coordinates (Angstroms)
 Number     Number       Type             X           Y           Z
 ---------------------------------------------------------------------
      1          6           0       -3.799184    0.705116   -0.073691
      2          1           0       -3.387344    1.298921    0.748487
      3          1           0       -4.868375    0.573247    0.113998
      4          1           0       -3.679941    1.293819   -1.001060
      5          7           0       -3.147860   -0.603099   -0.119719
      6          1           0       -3.618123   -1.165760   -0.824433
      7          6           0       -1.730304   -0.522860   -0.479644
      8          1           0       -1.555920    0.141959   -1.345241
      9          1           0       -1.393475   -1.522626   -0.766015
     10          6           0       -0.873511   -0.035931    0.702242
     11          1           0       -1.030555   -0.718692    1.545005
     12          1           0       -1.209589    0.956673    1.014169
     13          6           0        0.594680    0.019824    0.361120
     14          7           0        1.245508   -1.157284    0.281064
     15          6           0        2.545642   -1.137860   -0.045533
     16          1           0        3.039232   -2.105358   -0.096927
     17          6           0        3.261651    0.028497   -0.308363
     18          1           0        4.313412   -0.018976   -0.565793
     19          6           0        2.586905    1.245240   -0.224713
     20          1           0        3.102198    2.180153   -0.418428
     21          6           0        1.235703    1.238989    0.114239
     22          1           0        0.675453    2.163232    0.192880
 ---------------------------------------------------------------------

 SCF Done:  E(RB3LYP) =  -421.575988812     A.U. after   11 cycles

 The electronic state is 1-A.
 Alpha  occ. eigenvalues --  -14.33151 -14.31302 -10.22847 -10.22301 -10.20612
 Alpha  occ. eigenvalues --  -10.20381 -10.19544 -10.19513 -10.19469 -10.18145
 Alpha  occ. eigenvalues --   -0.94165  -0.89392  -0.80101  -0.78688  -0.72527
 Alpha  occ. eigenvalues --   -0.67002  -0.62930  -0.61654  -0.57911  -0.51570
 Alpha  occ. eigenvalues --   -0.48967  -0.48369  -0.45956  -0.44600  -0.43326
 Alpha  occ. eigenvalues --   -0.41161  -0.40364  -0.39943  -0.38878  -0.36802
 Alpha  occ. eigenvalues --   -0.35802  -0.34573  -0.33339  -0.28571  -0.26020
 Alpha  occ. eigenvalues --   -0.25486  -0.22228
 Alpha virt. eigenvalues --   -0.02546  -0.00841   0.09536   0.10152   0.11944
 Alpha virt. eigenvalues --    0.13622   0.14646   0.15233   0.15839   0.16833
 Alpha virt. eigenvalues --    0.17697   0.18081   0.18490   0.19524   0.21595

 Mulliken charges:
               1
     1  C   -0.315508
     2  H    0.156817
     3  H    0.154033
     4  H    0.127124
     5  N   -0.581828
     6  H    0.336600
     7  C   -0.124991
     8  H    0.118166
     9  H    0.147973
    10  C   -0.324319
    11  H    0.152259
    12  H    0.155990
    13  C    0.299696
    14  N   -0.518705
    15  C    0.025705
    16  H    0.155781
    17  C   -0.154593
    18  H    0.159726
    19  C   -0.110975
    20  H    0.166903
    21  C   -0.182168
    22  H    0.156314
 Sum of Mulliken charges =   0.00000

 Dipole moment (field-independent basis, Debye):
    X=              0.7464    Y=              2.6789    Z=             -1.8167  Tot=              3.3218
 Quadrupole moment (field-independent basis, Debye-Ang):
   XX=            -48.5533   YY=            -58.6833   ZZ=            -61.8054
   XY=              0.7811   XZ=              2.3677   YZ=              2.6894

 Normal termination of Gaussian 09 at Mon Mar 29 22:43:18 2021.
