 Gaussian 09, Revision D.01,

 -----------------
 #p b3lyp/6-31G(d)
 -----------------

 ----------------------------------------------
 SET_328_BBB268_conf1.geo_075_060_300.n.pdb.xyz
 ----------------------------------------------
 Symbolic Z-matrix:
 Charge =  0 Multiplicity = 1

 SCF Done:  E(RB3LYP) =  -976.181106079     A.U. after   15 cycles
 Normal termination of Gaussian 09 at Sun Jan 24 23:14:03 2021.
 Gaussian 09:  AM64L-G09RevD.01 24-Apr-2013

 ----------------------------------------------------------------------
 #p b3lyp/6-31G(d) scrf=(iefpcm,read,solvent=Water) geom=allcheck guess
 =read
 ----------------------------------------------------------------------

 Structure from the checkpoint file:  "SET_328_BBB268_conf1.geo_075_060_300.n.pdb.xyz.mst.n.w.chk"
 ----------------------------------------------
 SET_328_BBB268_conf1.geo_075_060_300.n.pdb.xyz
 ----------------------------------------------
 Charge =  0 Multiplicity = 1

                         Standard orientation:
 ---------------------------------------------------------------------
 Center     Atomic      Atomic             Coordinates (Angstroms)
 Number     Number       Type             X           Y           Z
 ---------------------------------------------------------------------
      1          6           0       -1.533225    3.882752    1.323128
      2          1           0       -1.688425    3.605522    2.369297
      3          1           0       -2.491177    4.004197    0.825542
      4          1           0       -0.982860    4.830417    1.294099
      5          7           0       -0.778577    2.836754    0.645185
      6          6           0        0.504211    2.514560    1.248719
      7          1           0        0.359520    2.282548    2.307648
      8          1           0        1.187798    3.366887    1.174795
      9          1           0        0.955553    1.652550    0.768367
     10          6           0       -1.255420    2.304339   -0.506401
     11          8           0       -2.333923    2.658433   -1.005731
     12          6           0       -0.425477    1.215355   -1.209224
     13          1           0        0.607937    1.540720   -1.322300
     14          1           0       -0.848950    1.152791   -2.217081
     15          6           0       -0.435145   -0.127932   -0.548253
     16          6           0        0.577560   -0.963480   -0.078617
     17          6           0        2.036293   -0.757192   -0.118425
     18          6           0        2.833060   -1.258079    0.923654
     19          6           0        4.217081   -1.096010    0.908579
     20          6           0        4.859181   -0.430011   -0.143631
     21          6           0        6.355730   -0.245290   -0.150382
     22          1           0        6.821339   -0.784109    0.678099
     23          1           0        6.628454    0.813020   -0.058787
     24          1           0        6.798728   -0.608988   -1.083672
     25          6           0        4.065377    0.058977   -1.190027
     26          6           0        2.680890   -0.104422   -1.184118
     27          1           0        2.102808    0.251505   -2.029759
     28          1           0        4.537035    0.562333   -2.029288
     29          1           0        4.811437   -1.489500    1.727854
     30          1           0        2.352686   -1.775626    1.745780
     31          7           0        0.060982   -2.100999    0.491397
     32          6           0       -1.261579   -1.997818    0.367221
     33          6           0       -2.296424   -2.878798    0.751122
     34          1           0       -2.029642   -3.804937    1.245195
     35          6           0       -3.600558   -2.543598    0.486744
     36          1           0       -4.401722   -3.215648    0.777151
     37          6           0       -3.932355   -1.317390   -0.167221
     38          6           0       -5.368459   -0.962615   -0.451057
     39          1           0       -5.839736   -1.710208   -1.096477
     40          1           0       -5.443513    0.008035   -0.944777
     41          1           0       -5.954134   -0.920068    0.473793
     42          6           0       -2.923086   -0.467321   -0.532351
     43          1           0       -3.080762    0.490379   -1.010489
     44          7           0       -1.613394   -0.803675   -0.268854
 ---------------------------------------------------------------------

 SCF Done:  E(RB3LYP) =  -976.191848556     A.U. after   11 cycles

 The electronic state is 1-A.
 Alpha  occ. eigenvalues --  -19.11844 -14.41439 -14.37331 -14.31584 -10.29408
 Alpha  occ. eigenvalues --  -10.25114 -10.23055 -10.22737 -10.22027 -10.21647
 Alpha  occ. eigenvalues --  -10.21022 -10.20853 -10.20694 -10.20195 -10.20149
 Alpha  occ. eigenvalues --  -10.20032 -10.19947 -10.19353 -10.18983 -10.18886
 Alpha  occ. eigenvalues --  -10.18831 -10.18438 -10.18005  -1.03803  -1.03208
 Alpha  occ. eigenvalues --   -0.93828  -0.90957  -0.85895  -0.84201  -0.79819
 Alpha  occ. eigenvalues --   -0.77532  -0.76793  -0.74542  -0.72753  -0.71747
 Alpha  occ. eigenvalues --   -0.70747  -0.68939  -0.67606  -0.62751  -0.62062
 Alpha  occ. eigenvalues --   -0.60943  -0.59516  -0.56759  -0.54770  -0.52788
 Alpha  occ. eigenvalues --   -0.50763  -0.49595  -0.49123  -0.48077  -0.47740
 Alpha  occ. eigenvalues --   -0.46550  -0.46295  -0.46197  -0.45151  -0.44726
 Alpha  occ. eigenvalues --   -0.43127  -0.41951  -0.41888  -0.41704  -0.40959
 Alpha  occ. eigenvalues --   -0.40847  -0.40481  -0.40132  -0.39993  -0.39190
 Alpha  occ. eigenvalues --   -0.38396  -0.38105  -0.37676  -0.37149  -0.36153
 Alpha  occ. eigenvalues --   -0.35198  -0.34533  -0.33887  -0.33081  -0.31669
 Alpha  occ. eigenvalues --   -0.28591  -0.26483  -0.25859  -0.25355  -0.24626
 Alpha  occ. eigenvalues --   -0.22185  -0.20543
 Alpha virt. eigenvalues --   -0.03759  -0.01495  -0.00601   0.01110   0.01675
 Alpha virt. eigenvalues --    0.07550   0.09607   0.10417   0.11004   0.12267
 Alpha virt. eigenvalues --    0.12372   0.12851   0.13488   0.13568   0.14192

 Mulliken charges:
               1
     1  C   -0.324734
     2  H    0.172284
     3  H    0.187712
     4  H    0.172192
     5  N   -0.390996
     6  C   -0.326622
     7  H    0.177687
     8  H    0.175741
     9  H    0.182577
    10  C    0.604746
    11  O   -0.586127
    12  C   -0.452987
    13  H    0.194036
    14  H    0.191787
    15  C    0.306074
    16  C    0.094109
    17  C    0.078556
    18  C   -0.177536
    19  C   -0.207377
    20  C    0.170527
    21  C   -0.534721
    22  H    0.165253
    23  H    0.171728
    24  H    0.169975
    25  C   -0.202745
    26  C   -0.198854
    27  H    0.157405
    28  H    0.145073
    29  H    0.144413
    30  H    0.147603
    31  N   -0.632532
    32  C    0.535256
    33  C   -0.205269
    34  H    0.166561
    35  C   -0.161191
    36  H    0.158837
    37  C    0.099475
    38  C   -0.531441
    39  H    0.174294
    40  H    0.169587
    41  H    0.173705
    42  C   -0.000388
    43  H    0.202136
    44  N   -0.555808
 Sum of Mulliken charges =   0.00000

 Dipole moment (field-independent basis, Debye):
    X=              0.7780    Y=              2.5974    Z=              1.4521  Tot=              3.0758
 Quadrupole moment (field-independent basis, Debye-Ang):
   XX=           -113.3600   YY=           -134.6774   ZZ=           -129.8830
   XY=             16.4566   XZ=             -5.4908   YZ=              5.8874

 Normal termination of Gaussian 09 at Sun Jan 24 23:20:43 2021.
