 Gaussian 09, Revision D.01,

 -----------------
 #p b3lyp/6-31G(d)
 -----------------

 ----------------------------------------------
 SET_328_BBB272_conf1.geo_165_045_180.n.pdb.xyz
 ----------------------------------------------
 Symbolic Z-matrix:
 Charge =  0 Multiplicity = 1

 SCF Done:  E(RB3LYP) =  -648.689290785     A.U. after   15 cycles

 1\1\GINC-PIRINEUS26\SP\RB3LYP\6-31G(d)\C9H8O4\UBAFAR01\29-Mar-2021\0\\
 #p b3lyp/6-31G(d)\\SET_328_BBB272_conf1.geo_165_045_180.n.pdb.xyz\\0,1
 \C,0,-3.242,1.165,-0.076\H,0,-3.558,0.885,0.931\H,0,-3.574,0.378,-0.75
 9\H,0,-3.694,2.114,-0.361\C,0,-1.748,1.287,-0.131\O,0,-1.103,2.233,-0.
 502\O,0,-1.16,0.11,0.315\C,0,0.235,0.009,0.352\C,0,0.863,-0.985,-0.417
 \C,0,0.173,-1.943,-1.343\O,0,-1.167,-2.01,-1.331\H,0,-1.545,-1.388,-0.
 673\O,0,0.797,-2.671,-2.095\C,0,2.257,-1.107,-0.315\H,0,2.738,-1.873,-
 0.91\C,0,2.996,-0.278,0.521\H,0,4.071,-0.393,0.585\C,0,2.345,0.697,1.2

 Normal termination of Gaussian 09 at Mon Mar 29 22:43:23 2021.
 Gaussian 09:  AM64L-G09RevD.01 24-Apr-2013

 ----------------------------------------------------------------------
 #p b3lyp/6-31G(d) scrf=(iefpcm,read,solvent=Water) geom=allcheck guess
 =read
 ----------------------------------------------------------------------

 Structure from the checkpoint file:  "SET_328_BBB272_conf1.geo_165_045_180.n.pdb.xyz.mst.n.w.chk"
 ----------------------------------------------
 SET_328_BBB272_conf1.geo_165_045_180.n.pdb.xyz
 ----------------------------------------------
 Charge =  0 Multiplicity = 1

                         Standard orientation:
 ---------------------------------------------------------------------
 Center     Atomic      Atomic             Coordinates (Angstroms)
 Number     Number       Type             X           Y           Z
 ---------------------------------------------------------------------
      1          6           0       -3.558920    0.230036   -0.223646
      2          1           0       -3.734551   -0.022480   -1.271355
      3          1           0       -3.475195    1.318253   -0.153959
      4          1           0       -4.389944   -0.114868    0.390007
      5          6           0       -2.287759   -0.407802    0.253069
      6          8           0       -2.141722   -1.128148    1.206146
      7          8           0       -1.234961   -0.043750   -0.577034
      8          6           0        0.048747   -0.535030   -0.315626
      9          6           0        1.081803    0.378141   -0.046005
     10          6           0        0.932260    1.868291    0.045795
     11          8           0       -0.226502    2.431198   -0.329226
     12          1           0       -0.863865    1.752584   -0.639038
     13          8           0        1.838970    2.581490    0.438335
     14          6           0        2.372736   -0.134878    0.151043
     15          1           0        3.166271    0.571352    0.360049
     16          6           0        2.627269   -1.499489    0.078193
     17          1           0        3.632762   -1.871623    0.231314
     18          6           0        1.582756   -2.384850   -0.199575
     19          1           0        1.770308   -3.450911   -0.265805
     20          6           0        0.290099   -1.903052   -0.399136
     21          1           0       -0.526018   -2.576839   -0.621651
 ---------------------------------------------------------------------

 SCF Done:  E(RB3LYP) =  -648.704899637     A.U. after   11 cycles

 The electronic state is 1-A.
 Alpha  occ. eigenvalues --  -19.22739 -19.19535 -19.16556 -19.14051 -10.34616
 Alpha  occ. eigenvalues --  -10.33271 -10.27722 -10.22275 -10.21087 -10.20892
 Alpha  occ. eigenvalues --  -10.20876 -10.20324 -10.20273  -1.13248  -1.10459
 Alpha  occ. eigenvalues --   -1.04953  -1.01960  -0.87622  -0.78992  -0.77734
 Alpha  occ. eigenvalues --   -0.74638  -0.66246  -0.64955  -0.61998  -0.59359
 Alpha  occ. eigenvalues --   -0.54609  -0.51130  -0.50847  -0.50128  -0.48293
 Alpha  occ. eigenvalues --   -0.46564  -0.45416  -0.45049  -0.44351  -0.42457
 Alpha  occ. eigenvalues --   -0.41611  -0.40569  -0.40136  -0.37958  -0.37385
 Alpha  occ. eigenvalues --   -0.36434  -0.33644  -0.32095  -0.30186  -0.28776
 Alpha  occ. eigenvalues --   -0.27016  -0.26263
 Alpha virt. eigenvalues --   -0.05626  -0.02272  -0.00668   0.04810   0.08321
 Alpha virt. eigenvalues --    0.09259   0.13530   0.13980   0.15483   0.15911
 Alpha virt. eigenvalues --    0.16286   0.17546   0.18713   0.19382   0.21739

 Mulliken charges:
               1
     1  C   -0.529295
     2  H    0.210850
     3  H    0.208534
     4  H    0.199383
     5  C    0.620377
     6  O   -0.469935
     7  O   -0.566598
     8  C    0.311636
     9  C    0.030006
    10  C    0.578138
    11  O   -0.613262
    12  H    0.460843
    13  O   -0.518738
    14  C   -0.187790
    15  H    0.173071
    16  C   -0.132817
    17  H    0.166930
    18  C   -0.142553
    19  H    0.173124
    20  C   -0.148261
    21  H    0.176359
 Sum of Mulliken charges =   0.00000

 Dipole moment (field-independent basis, Debye):
    X=             -3.2525    Y=             -4.5874    Z=             -3.0803  Tot=              6.4118
 Quadrupole moment (field-independent basis, Debye-Ang):
   XX=            -60.4197   YY=            -82.4450   ZZ=            -76.8993
   XY=            -14.5246   XZ=              4.2804   YZ=              1.3648

 1\1\GINC-PIRINEUS26\SP\RB3LYP\6-31G(d)\C9H8O4\UBAFAR01\29-Mar-2021\0\\
 #p b3lyp/6-31G(d) scrf=(iefpcm,read,solvent=Water) geom=allcheck guess
 =read\\SET_328_BBB272_conf1.geo_165_045_180.n.pdb.xyz\\0,1\C,0,-3.242,
 1.165,-0.076\H,0,-3.558,0.885,0.931\H,0,-3.574,0.378,-0.759\H,0,-3.694
 ,2.114,-0.361\C,0,-1.748,1.287,-0.131\O,0,-1.103,2.233,-0.502\O,0,-1.1
 6,0.11,0.315\C,0,0.235,0.009,0.352\C,0,0.863,-0.985,-0.417\C,0,0.173,-
 1.943,-1.343\O,0,-1.167,-2.01,-1.331\H,0,-1.545,-1.388,-0.673\O,0,0.79
 7,-2.671,-2.095\C,0,2.257,-1.107,-0.315\H,0,2.738,-1.873,-0.91\C,0,2.9

 Normal termination of Gaussian 09 at Mon Mar 29 22:44:25 2021.
