 Gaussian 09, Revision D.01,

 -----------------
 #p b3lyp/6-31G(d)
 -----------------

 ----------------------------------------------
 SET_328_BBB321_conf1.geo_165_210_300.n.pdb.xyz
 ----------------------------------------------
 Symbolic Z-matrix:
 Charge =  0 Multiplicity = 1

 SCF Done:  E(RB3LYP) =  -1212.31216944     A.U. after   16 cycles
 Normal termination of Gaussian 09 at Sat Feb  6 18:54:01 2021.
 Gaussian 09:  AM64L-G09RevD.01 24-Apr-2013

 ----------------------------------------------------------------------
 #p b3lyp/6-31G(d) scrf=(iefpcm,read,solvent=Water) geom=allcheck guess
 =read
 ----------------------------------------------------------------------

 Structure from the checkpoint file:  "SET_328_BBB321_conf1.geo_165_210_300.n.pdb.xyz.mst.n.w.chk"
 ----------------------------------------------
 SET_328_BBB321_conf1.geo_165_210_300.n.pdb.xyz
 ----------------------------------------------
 Charge =  0 Multiplicity = 1

                         Standard orientation:
 ---------------------------------------------------------------------
 Center     Atomic      Atomic             Coordinates (Angstroms)
 Number     Number       Type             X           Y           Z
 ---------------------------------------------------------------------
      1          6           0       -6.292926   -0.863681    0.369143
      2          1           0       -6.534358   -1.097123    1.411469
      3          1           0       -6.655082   -1.689860   -0.245827
      4          1           0       -6.816370    0.052687    0.087890
      5          6           0       -4.785438   -0.771601    0.223661
      6          8           0       -4.076834   -1.780277    0.261213
      7          7           0       -4.300154    0.498938    0.073691
      8          1           0       -4.992790    1.238930    0.056694
      9          6           0       -2.965607    0.933425   -0.053360
     10          6           0       -2.752099    2.316610   -0.197343
     11          6           0       -1.456886    2.807849   -0.319399
     12          6           0       -0.361360    1.945637   -0.306845
     13          1           0        0.645425    2.328740   -0.410312
     14          1           0       -1.301768    3.875527   -0.428523
     15          1           0       -3.597987    2.996334   -0.206885
     16          6           0       -1.867636    0.064386   -0.036880
     17          1           0       -2.045231   -0.992496    0.093297
     18          6           0       -0.561316    0.564092   -0.169469
     19          6           0        0.593917   -0.354432   -0.170263
     20          7           0        1.872061    0.168905   -0.032834
     21          6           0        0.534120   -1.714194   -0.313032
     22          1           0       -0.336147   -2.336232   -0.462450
     23         16           0        2.127677   -2.402899   -0.274298
     24          6           0        2.804109   -0.765235   -0.061368
     25          7           0        4.148195   -0.676635    0.047264
     26          6           0        4.742024    0.497629    0.247572
     27          7           0        4.120261    1.690589    0.304184
     28          1           0        4.622554    2.519200    0.597227
     29          1           0        3.103185    1.686896    0.304073
     30          7           0        6.091153    0.484403    0.433759
     31          1           0        6.566501   -0.364468    0.153282
     32          1           0        6.607868    1.344167    0.292165
 ---------------------------------------------------------------------

 SCF Done:  E(RB3LYP) =  -1212.34611551     A.U. after   12 cycles

 The electronic state is 1-A.
 Alpha  occ. eigenvalues --  -88.90228 -19.12286 -14.37656 -14.35100 -14.34956
 Alpha  occ. eigenvalues --  -14.32471 -14.31206 -10.30759 -10.29927 -10.27758
 Alpha  occ. eigenvalues --  -10.24001 -10.22451 -10.20739 -10.20435 -10.19353
 Alpha  occ. eigenvalues --  -10.19279 -10.18789 -10.18704 -10.18583  -7.96417
 Alpha  occ. eigenvalues --   -5.92806  -5.92472  -5.92097  -1.03944  -0.99808
 Alpha  occ. eigenvalues --   -0.95515  -0.94235  -0.87910  -0.87676  -0.85107
 Alpha  occ. eigenvalues --   -0.78907  -0.77517  -0.75912  -0.72231  -0.71034
 Alpha  occ. eigenvalues --   -0.64268  -0.63661  -0.61234  -0.58406  -0.57945
 Alpha  occ. eigenvalues --   -0.56552  -0.54503  -0.52605  -0.51170  -0.49331
 Alpha  occ. eigenvalues --   -0.48267  -0.48045  -0.47042  -0.45226  -0.44702
 Alpha  occ. eigenvalues --   -0.43887  -0.43469  -0.42529  -0.40864  -0.40592
 Alpha  occ. eigenvalues --   -0.40293  -0.39877  -0.39164  -0.37502  -0.36411
 Alpha  occ. eigenvalues --   -0.35915  -0.34278  -0.31751  -0.29574  -0.28273
 Alpha  occ. eigenvalues --   -0.28191  -0.27471  -0.26947  -0.25817  -0.24924
 Alpha  occ. eigenvalues --   -0.22381  -0.19528
 Alpha virt. eigenvalues --   -0.03377  -0.01758  -0.00617   0.02399   0.03868
 Alpha virt. eigenvalues --    0.07052   0.08746   0.09273   0.09917   0.10326
 Alpha virt. eigenvalues --    0.11486   0.13012   0.13700   0.14145   0.14657

 Mulliken charges:
               1
     1  C   -0.542362
     2  H    0.195982
     3  H    0.187963
     4  H    0.175986
     5  C    0.602451
     6  O   -0.558986
     7  N   -0.710795
     8  H    0.388505
     9  C    0.339309
    10  C   -0.206258
    11  C   -0.155734
    12  C   -0.197692
    13  H    0.154118
    14  H    0.152662
    15  H    0.157788
    16  C   -0.247823
    17  H    0.173335
    18  C    0.096974
    19  C    0.274257
    20  N   -0.582223
    21  C   -0.428414
    22  H    0.197278
    23  S    0.181602
    24  C    0.303973
    25  N   -0.616698
    26  C    0.662412
    27  N   -0.782002
    28  H    0.390094
    29  H    0.397761
    30  N   -0.772448
    31  H    0.382151
    32  H    0.386833
 Sum of Mulliken charges =   0.00000

 Dipole moment (field-independent basis, Debye):
    X=              1.0563    Y=              8.6646    Z=              0.2987  Tot=              8.7339
 Quadrupole moment (field-independent basis, Debye-Ang):
   XX=            -38.5085   YY=           -108.2398   ZZ=           -121.4262
   XY=              8.2791   XZ=              0.5680   YZ=              2.6926

 Normal termination of Gaussian 09 at Sat Feb  6 18:57:18 2021.
