 Gaussian 09, Revision D.01,

 -----------------
 #p b3lyp/6-31G(d)
 -----------------

 ----------------------------------------------
 SET_328_BBB321_conf1.geo_330_345_315.n.pdb.xyz
 ----------------------------------------------
 Symbolic Z-matrix:
 Charge =  0 Multiplicity = 1

 SCF Done:  E(RB3LYP) =  -1212.29414386     A.U. after   16 cycles
 Normal termination of Gaussian 09 at Thu Jan 28 04:51:35 2021.
 Gaussian 09:  AM64L-G09RevD.01 24-Apr-2013

 ----------------------------------------------------------------------
 #p b3lyp/6-31G(d) scrf=(iefpcm,read,solvent=Water) geom=allcheck guess
 =read
 ----------------------------------------------------------------------

 Structure from the checkpoint file:  "SET_328_BBB321_conf1.geo_330_345_315.n.pdb.xyz.mst.n.w.chk"
 ----------------------------------------------
 SET_328_BBB321_conf1.geo_330_345_315.n.pdb.xyz
 ----------------------------------------------
 Charge =  0 Multiplicity = 1

                         Standard orientation:
 ---------------------------------------------------------------------
 Center     Atomic      Atomic             Coordinates (Angstroms)
 Number     Number       Type             X           Y           Z
 ---------------------------------------------------------------------
      1          6           0       -5.045276    2.917997    0.148257
      2          1           0       -4.765873    3.929481   -0.144618
      3          1           0       -5.415831    2.944664    1.178975
      4          1           0       -5.858300    2.563269   -0.492038
      5          6           0       -3.816835    2.032479    0.069934
      6          8           0       -2.677130    2.499584    0.087079
      7          7           0       -4.091893    0.692734    0.011134
      8          1           0       -5.075335    0.440108    0.008641
      9          6           0       -3.198409   -0.398274   -0.015138
     10          6           0       -3.755560   -1.686603   -0.041804
     11          6           0       -2.923235   -2.802346   -0.068967
     12          6           0       -1.538815   -2.659364   -0.071208
     13          1           0       -0.904388   -3.538124   -0.099054
     14          1           0       -3.363943   -3.793897   -0.091335
     15          1           0       -4.833924   -1.811740   -0.042170
     16          6           0       -1.803734   -0.249031   -0.018646
     17          1           0       -1.370817    0.736269    0.000525
     18          6           0       -0.968971   -1.376850   -0.046285
     19          6           0        0.494966   -1.189035   -0.047532
     20          7           0        1.009171    0.092916   -0.112687
     21          6           0        1.423796   -2.192458    0.011333
     22          1           0        1.259291   -3.257430    0.077406
     23         16           0        3.032472   -1.544696   -0.005437
     24          6           0        2.323109    0.122403   -0.105054
     25          7           0        3.014360    1.276332   -0.259172
     26          6           0        4.296470    1.428267    0.004263
     27          7           0        4.912713    2.531769   -0.485958
     28          1           0        4.318565    3.231080   -0.913687
     29          1           0        5.764937    2.865866   -0.050103
     30          7           0        5.090822    0.538466    0.668379
     31          1           0        4.648559   -0.047123    1.368587
     32          1           0        6.023299    0.847405    0.922444
 ---------------------------------------------------------------------

 SCF Done:  E(RB3LYP) =  -1212.33961147     A.U. after   12 cycles

 The electronic state is 1-A.
 Alpha  occ. eigenvalues --  -88.90272 -19.12344 -14.37437 -14.35865 -14.35388
 Alpha  occ. eigenvalues --  -14.31927 -14.31598 -10.31235 -10.29848 -10.27850
 Alpha  occ. eigenvalues --  -10.23836 -10.22186 -10.20637 -10.20271 -10.19312
 Alpha  occ. eigenvalues --  -10.19144 -10.18720 -10.18703 -10.18238  -7.96424
 Alpha  occ. eigenvalues --   -5.92814  -5.92475  -5.92111  -1.03970  -0.99946
 Alpha  occ. eigenvalues --   -0.95629  -0.94064  -0.88337  -0.87918  -0.85059
 Alpha  occ. eigenvalues --   -0.78766  -0.77496  -0.75769  -0.72266  -0.70845
 Alpha  occ. eigenvalues --   -0.64697  -0.62822  -0.61830  -0.59353  -0.57197
 Alpha  occ. eigenvalues --   -0.56066  -0.54069  -0.52348  -0.51495  -0.49270
 Alpha  occ. eigenvalues --   -0.48611  -0.47804  -0.47399  -0.45218  -0.44707
 Alpha  occ. eigenvalues --   -0.43510  -0.43375  -0.42489  -0.41531  -0.40895
 Alpha  occ. eigenvalues --   -0.40336  -0.39828  -0.39174  -0.37513  -0.36016
 Alpha  occ. eigenvalues --   -0.35583  -0.34557  -0.31992  -0.30017  -0.28265
 Alpha  occ. eigenvalues --   -0.28135  -0.27577  -0.26388  -0.25657  -0.24397
 Alpha  occ. eigenvalues --   -0.22499  -0.19542
 Alpha virt. eigenvalues --   -0.03552  -0.01295  -0.01055   0.02454   0.03736
 Alpha virt. eigenvalues --    0.06767   0.08119   0.09102   0.09534   0.10533
 Alpha virt. eigenvalues --    0.12146   0.13398   0.13682   0.13997   0.14504

 Mulliken charges:
               1
     1  C   -0.543152
     2  H    0.182179
     3  H    0.196741
     4  H    0.182315
     5  C    0.593570
     6  O   -0.554022
     7  N   -0.707022
     8  H    0.388113
     9  C    0.350802
    10  C   -0.208778
    11  C   -0.158699
    12  C   -0.208172
    13  H    0.147168
    14  H    0.152551
    15  H    0.156094
    16  C   -0.245838
    17  H    0.168049
    18  C    0.097972
    19  C    0.272685
    20  N   -0.551941
    21  C   -0.428047
    22  H    0.197742
    23  S    0.166248
    24  C    0.259257
    25  N   -0.589693
    26  C    0.658845
    27  N   -0.763595
    28  H    0.386731
    29  H    0.391068
    30  N   -0.773504
    31  H    0.390258
    32  H    0.394075
 Sum of Mulliken charges =   0.00000

 Dipole moment (field-independent basis, Debye):
    X=              3.3728    Y=              0.1862    Z=              2.8115  Tot=              4.3949
 Quadrupole moment (field-independent basis, Debye-Ang):
   XX=            -17.4831   YY=           -101.8434   ZZ=           -117.5672
   XY=             21.3524   XZ=             12.8012   YZ=              0.0381

 Normal termination of Gaussian 09 at Thu Jan 28 04:54:42 2021.
