 Gaussian 09, Revision D.01,

 -----------------
 #p b3lyp/6-31G(d)
 -----------------

 ----------------------------------------------
 SET_328_BBB292_conf1.geo_255_060_105.n.pdb.xyz
 ----------------------------------------------
 Symbolic Z-matrix:
 Charge =  0 Multiplicity = 1

 SCF Done:  E(RB3LYP) =  -705.217143906     A.U. after   15 cycles
 Normal termination of Gaussian 09 at Mon Mar 29 22:44:36 2021.
 Gaussian 09:  AM64L-G09RevD.01 24-Apr-2013

 ----------------------------------------------------------------------
 #p b3lyp/6-31G(d) scrf=(iefpcm,read,solvent=Water) geom=allcheck guess
 =read
 ----------------------------------------------------------------------

 Structure from the checkpoint file:  "SET_328_BBB292_conf1.geo_255_060_105.n.pdb.xyz.mst.n.w.chk"
 ----------------------------------------------
 SET_328_BBB292_conf1.geo_255_060_105.n.pdb.xyz
 ----------------------------------------------
 Charge =  0 Multiplicity = 1

                         Standard orientation:
 ---------------------------------------------------------------------
 Center     Atomic      Atomic             Coordinates (Angstroms)
 Number     Number       Type             X           Y           Z
 ---------------------------------------------------------------------
      1          7           0       -3.731037   -0.869499   -0.461661
      2          1           0       -4.367081   -1.230246    0.247394
      3          1           0       -3.705049   -1.556175   -1.214382
      4          6           0       -2.394445   -0.659087    0.109392
      5          6           0       -2.362531    0.747241    0.718222
      6          8           0       -3.294064    1.568738    0.224434
      7          1           0       -3.848928    0.987805   -0.372859
      8          8           0       -1.556415    1.112584    1.552656
      9          1           0       -2.146755   -1.361607    0.911549
     10          6           0       -1.330179   -0.786587   -1.010849
     11          1           0       -1.560521   -0.053183   -1.789422
     12          1           0       -1.473380   -1.778859   -1.455005
     13          6           0        0.104429   -0.632885   -0.561018
     14          6           0        0.826820    0.524439   -0.879165
     15          1           0        0.364092    1.322687   -1.451636
     16          6           0        2.151318    0.680897   -0.476907
     17          8           0        2.820252    1.822612   -0.811655
     18          1           0        3.729716    1.767716   -0.461023
     19          6           0        2.778657   -0.336316    0.264238
     20          8           0        4.080056   -0.097874    0.617170
     21          1           0        4.434005   -0.858464    1.111836
     22          6           0        2.069800   -1.492291    0.580966
     23          1           0        2.558971   -2.277786    1.147857
     24          6           0        0.743245   -1.640587    0.168260
     25          1           0        0.210872   -2.552823    0.417640
 ---------------------------------------------------------------------

 SCF Done:  E(RB3LYP) =  -705.251944658     A.U. after   11 cycles

 The electronic state is 1-A.
 Alpha  occ. eigenvalues --  -19.18108 -19.17987 -19.17334 -19.13170 -14.33258
 Alpha  occ. eigenvalues --  -10.31211 -10.24694 -10.24550 -10.23205 -10.19846
 Alpha  occ. eigenvalues --  -10.19413 -10.18971 -10.18480 -10.18416  -1.09361
 Alpha  occ. eigenvalues --   -1.06848  -1.04172  -1.00983  -0.90021  -0.85132
 Alpha  occ. eigenvalues --   -0.77742  -0.74231  -0.71592  -0.65864  -0.62364
 Alpha  occ. eigenvalues --   -0.60462  -0.58728  -0.54571  -0.53023  -0.51724
 Alpha  occ. eigenvalues --   -0.49465  -0.47871  -0.47229  -0.45045  -0.44501
 Alpha  occ. eigenvalues --   -0.43436  -0.42791  -0.42542  -0.40791  -0.39376
 Alpha  occ. eigenvalues --   -0.38363  -0.37602  -0.36413  -0.35696  -0.34847
 Alpha  occ. eigenvalues --   -0.34066  -0.32044  -0.30892  -0.28427  -0.25693
 Alpha  occ. eigenvalues --   -0.23742  -0.20628
 Alpha virt. eigenvalues --    0.00356   0.00817   0.01695   0.07652   0.08591
 Alpha virt. eigenvalues --    0.10371   0.12213   0.13327   0.13746   0.15437
 Alpha virt. eigenvalues --    0.16256   0.17646   0.18238   0.19175   0.19936

 Mulliken charges:
               1
     1  N   -0.805538
     2  H    0.365405
     3  H    0.359065
     4  C   -0.056275
     5  C    0.612630
     6  O   -0.605288
     7  H    0.452042
     8  O   -0.536222
     9  H    0.170600
    10  C   -0.380560
    11  H    0.168056
    12  H    0.174814
    13  C    0.178761
    14  C   -0.254948
    15  H    0.141363
    16  C    0.313338
    17  O   -0.683987
    18  H    0.455077
    19  C    0.295019
    20  O   -0.694334
    21  H    0.466490
    22  C   -0.211771
    23  H    0.155881
    24  C   -0.221342
    25  H    0.141724
 Sum of Mulliken charges =   0.00000

 Dipole moment (field-independent basis, Debye):
    X=             -0.6096    Y=             -7.7165    Z=             -1.5492  Tot=              7.8940
 Quadrupole moment (field-independent basis, Debye-Ang):
   XX=            -49.1795   YY=            -79.7039   ZZ=            -83.3126
   XY=              8.6083   XZ=             12.8091   YZ=             -6.0007

 Normal termination of Gaussian 09 at Mon Mar 29 22:46:16 2021.
