 Gaussian 09, Revision D.01,

 -----------------
 #p b3lyp/6-31G(d)
 -----------------

 ---------------------------------------------
 SET_328_BBB20_conf1.geo_090_075_060.n.pdb.xyz
 ---------------------------------------------
 Symbolic Z-matrix:
 Charge =  0 Multiplicity = 1

 SCF Done:  E(RB3LYP) =  -769.345294058     A.U. after   15 cycles
 Normal termination of Gaussian 09 at Sun Jan 24 21:48:01 2021.
 Gaussian 09:  AM64L-G09RevD.01 24-Apr-2013

 ----------------------------------------------------------------------
 #p b3lyp/6-31G(d) scrf=(iefpcm,read,solvent=Water) geom=allcheck guess
 =read
 ----------------------------------------------------------------------

 Structure from the checkpoint file:  "SET_328_BBB20_conf1.geo_090_075_060.n.pdb.xyz.mst.n.w.chk"
 ---------------------------------------------
 SET_328_BBB20_conf1.geo_090_075_060.n.pdb.xyz
 ---------------------------------------------
 Charge =  0 Multiplicity = 1

                         Standard orientation:
 ---------------------------------------------------------------------
 Center     Atomic      Atomic             Coordinates (Angstroms)
 Number     Number       Type             X           Y           Z
 ---------------------------------------------------------------------
      1          7           0       -0.141564    3.587674    1.391862
      2          1           0        0.646954    2.941798    1.405321
      3          1           0       -0.239578    3.897817    2.355233
      4          6           0       -1.356336    2.846779    1.014182
      5          1           0       -2.221416    3.465908    1.277606
      6          1           0       -1.471269    1.896471    1.559980
      7          6           0       -1.402360    2.571973   -0.492680
      8          1           0       -1.443288    3.525861   -1.030689
      9          1           0       -2.323406    2.031039   -0.730223
     10          6           0       -0.185660    1.813198   -1.032409
     11          1           0        0.706724    2.408768   -0.831561
     12          1           0       -0.263623    1.724437   -2.126669
     13          7           0        0.017321    0.511916   -0.381898
     14          6           0       -1.074654   -0.404601   -0.433744
     15          6           0       -1.879402   -0.521191   -1.573909
     16          1           0       -1.657818    0.080114   -2.448855
     17          6           0       -2.956731   -1.407302   -1.589825
     18          1           0       -3.571091   -1.489402   -2.480456
     19          6           0       -3.235227   -2.189101   -0.468278
     20          1           0       -4.071095   -2.880445   -0.475077
     21          6           0       -2.434942   -2.068697    0.669143
     22          1           0       -2.649812   -2.661818    1.554382
     23          6           0       -1.362403   -1.173773    0.705465
     24          6           0       -0.486197   -1.014296    1.913272
     25          1           0       -0.941592   -1.520536    2.767898
     26          1           0       -0.403840    0.049204    2.163104
     27          6           0        0.912692   -1.596526    1.690646
     28          1           0        0.803893   -2.670320    1.488109
     29          1           0        1.475474   -1.528978    2.628921
     30          6           0        1.764568   -0.980141    0.590858
     31          6           0        3.098205   -1.412900    0.543291
     32          1           0        3.417966   -2.145692    1.280510
     33          6           0        4.017713   -0.932625   -0.383387
     34          1           0        5.042292   -1.289624   -0.375377
     35          6           0        3.596958    0.015241   -1.314822
     36          1           0        4.284118    0.404833   -2.058447
     37          6           0        2.276108    0.454151   -1.302831
     38          1           0        1.955907    1.166191   -2.052509
     39          6           0        1.340036   -0.017313   -0.358462
 ---------------------------------------------------------------------

 SCF Done:  E(RB3LYP) =  -769.354503377     A.U. after   10 cycles

 The electronic state is 1-A.
 Alpha  occ. eigenvalues --  -14.34778 -14.30321 -10.22838 -10.22105 -10.21096
 Alpha  occ. eigenvalues --  -10.19851 -10.19498 -10.19067 -10.18892 -10.18762
 Alpha  occ. eigenvalues --  -10.18750 -10.18746 -10.18640 -10.18622 -10.18437
 Alpha  occ. eigenvalues --  -10.18354 -10.18298 -10.18206 -10.17583  -0.94948
 Alpha  occ. eigenvalues --   -0.86998  -0.85436  -0.84337  -0.79776  -0.76111
 Alpha  occ. eigenvalues --   -0.75441  -0.75026  -0.72268  -0.69922  -0.66357
 Alpha  occ. eigenvalues --   -0.64524  -0.60771  -0.60013  -0.58148  -0.57174
 Alpha  occ. eigenvalues --   -0.55722  -0.51549  -0.50603  -0.48937  -0.47643
 Alpha  occ. eigenvalues --   -0.47320  -0.46491  -0.45434  -0.44633  -0.43905
 Alpha  occ. eigenvalues --   -0.43325  -0.43111  -0.41392  -0.40681  -0.39803
 Alpha  occ. eigenvalues --   -0.39295  -0.38511  -0.37749  -0.36714  -0.36090
 Alpha  occ. eigenvalues --   -0.35447  -0.34392  -0.33933  -0.33469  -0.33262
 Alpha  occ. eigenvalues --   -0.33195  -0.32613  -0.28737  -0.24806  -0.24364
 Alpha  occ. eigenvalues --   -0.23803  -0.23269  -0.19741
 Alpha virt. eigenvalues --   -0.00720   0.00032   0.00330   0.00787   0.08090
 Alpha virt. eigenvalues --    0.09549   0.10619   0.10922   0.12858   0.12956
 Alpha virt. eigenvalues --    0.13688   0.14196   0.14457   0.15252   0.15597

 Mulliken charges:
               1
     1  N   -0.778450
     2  H    0.324087
     3  H    0.329744
     4  C   -0.143073
     5  H    0.140725
     6  H    0.135730
     7  C   -0.264181
     8  H    0.139999
     9  H    0.144279
    10  C   -0.161228
    11  H    0.164958
    12  H    0.149294
    13  N   -0.572685
    14  C    0.210360
    15  C   -0.170342
    16  H    0.151380
    17  C   -0.170020
    18  H    0.147663
    19  C   -0.144266
    20  H    0.144905
    21  C   -0.233502
    22  H    0.143321
    23  C    0.154728
    24  C   -0.356162
    25  H    0.149610
    26  H    0.167431
    27  C   -0.342921
    28  H    0.160578
    29  H    0.160278
    30  C    0.146315
    31  C   -0.219650
    32  H    0.139276
    33  C   -0.150505
    34  H    0.141664
    35  C   -0.169724
    36  H    0.145322
    37  C   -0.195237
    38  H    0.152477
    39  C    0.227821
 Sum of Mulliken charges =   0.00000

 Dipole moment (field-independent basis, Debye):
    X=             -0.6773    Y=             -0.6382    Z=              1.2707  Tot=              1.5751
 Quadrupole moment (field-independent basis, Debye-Ang):
   XX=           -108.0751   YY=           -117.4097   ZZ=           -101.5039
   XY=              0.4843   XZ=              0.9822   YZ=             -3.0406

 Normal termination of Gaussian 09 at Sun Jan 24 21:52:12 2021.
