 Gaussian 09, Revision D.01,

 -----------------
 #p b3lyp/6-31G(d)
 -----------------

 ----------------------------------------------
 SET_328_BBB256_conf1.geo_285_180_255.n.pdb.xyz
 ----------------------------------------------
 Symbolic Z-matrix:
 Charge =  0 Multiplicity = 1

 SCF Done:  E(RB3LYP) =  -421.567141725     A.U. after   14 cycles
 Normal termination of Gaussian 09 at Sun Jan 24 23:05:27 2021.
 Gaussian 09:  AM64L-G09RevD.01 24-Apr-2013

 ----------------------------------------------------------------------
 #p b3lyp/6-31G(d) scrf=(iefpcm,read,solvent=Water) geom=allcheck guess
 =read
 ----------------------------------------------------------------------

 Structure from the checkpoint file:  "SET_328_BBB256_conf1.geo_285_180_255.n.pdb.xyz.mst.n.w.chk"
 ----------------------------------------------
 SET_328_BBB256_conf1.geo_285_180_255.n.pdb.xyz
 ----------------------------------------------
 Charge =  0 Multiplicity = 1

                         Standard orientation:
 ---------------------------------------------------------------------
 Center     Atomic      Atomic             Coordinates (Angstroms)
 Number     Number       Type             X           Y           Z
 ---------------------------------------------------------------------
      1          6           0       -3.789039    0.623535   -0.276453
      2          1           0       -3.393535    0.719992   -1.299456
      3          1           0       -3.659135    1.592039    0.219768
      4          1           0       -4.861001    0.426059   -0.349454
      5          7           0       -3.162109   -0.419478    0.532366
      6          1           0       -3.349913   -1.325980    0.106730
      7          6           0       -1.720216   -0.261104    0.694089
      8          1           0       -1.373679   -1.017348    1.406596
      9          1           0       -1.533653    0.717697    1.151352
     10          6           0       -0.875588   -0.374183   -0.597396
     11          1           0       -1.223150    0.369990   -1.320258
     12          1           0       -1.030829   -1.365336   -1.036987
     13          6           0        0.589123   -0.153347   -0.331511
     14          7           0        0.988105    1.124069   -0.167506
     15          6           0        2.279750    1.352994    0.107247
     16          1           0        2.563874    2.396044    0.228564
     17          6           0        3.237148    0.346040    0.235108
     18          1           0        4.269262    0.593410    0.456499
     19          6           0        2.822468   -0.974414    0.067881
     20          1           0        3.529403   -1.792615    0.154529
     21          6           0        1.482285   -1.226763   -0.218021
     22          1           0        1.124791   -2.242640   -0.357571
 ---------------------------------------------------------------------

 SCF Done:  E(RB3LYP) =  -421.576466617     A.U. after   10 cycles

 The electronic state is 1-A.
 Alpha  occ. eigenvalues --  -14.33089 -14.31401 -10.22826 -10.22278 -10.20573
 Alpha  occ. eigenvalues --  -10.20428 -10.19512 -10.19502 -10.19461 -10.18023
 Alpha  occ. eigenvalues --   -0.94099  -0.89462  -0.80031  -0.78596  -0.72392
 Alpha  occ. eigenvalues --   -0.67018  -0.62862  -0.61663  -0.58688  -0.51273
 Alpha  occ. eigenvalues --   -0.49261  -0.47896  -0.46382  -0.44099  -0.42974
 Alpha  occ. eigenvalues --   -0.41240  -0.40860  -0.39594  -0.38130  -0.36785
 Alpha  occ. eigenvalues --   -0.36287  -0.34745  -0.33787  -0.28556  -0.26145
 Alpha  occ. eigenvalues --   -0.25788  -0.21598
 Alpha virt. eigenvalues --   -0.02464  -0.00833   0.09523   0.10363   0.12426
 Alpha virt. eigenvalues --    0.13161   0.14529   0.15038   0.15754   0.16441
 Alpha virt. eigenvalues --    0.17729   0.17966   0.18884   0.19689   0.21579

 Mulliken charges:
               1
     1  C   -0.313221
     2  H    0.135504
     3  H    0.152030
     4  H    0.153636
     5  N   -0.575633
     6  H    0.330705
     7  C   -0.134613
     8  H    0.142360
     9  H    0.146858
    10  C   -0.338628
    11  H    0.158278
    12  H    0.150201
    13  C    0.299772
    14  N   -0.518952
    15  C    0.025295
    16  H    0.155226
    17  C   -0.155586
    18  H    0.159267
    19  C   -0.112054
    20  H    0.166272
    21  C   -0.182456
    22  H    0.155739
 Sum of Mulliken charges =   0.00000

 Dipole moment (field-independent basis, Debye):
    X=              1.6359    Y=             -2.5271    Z=             -1.0455  Tot=              3.1867
 Quadrupole moment (field-independent basis, Debye-Ang):
   XX=            -51.7813   YY=            -56.3931   ZZ=            -63.8624
   XY=              0.4501   XZ=              6.7903   YZ=              1.7797

 Normal termination of Gaussian 09 at Sun Jan 24 23:06:12 2021.
