 Gaussian 09, Revision D.01,

 -----------------
 #p b3lyp/6-31G(d)
 -----------------

 ---------------------------------------------
 SET_328_BBB29_conf1.geo_090_075_075.n.pdb.xyz
 ---------------------------------------------
 Symbolic Z-matrix:
 Charge =  0 Multiplicity = 1

 SCF Done:  E(RB3LYP) =  -1548.51082917     A.U. after   16 cycles
 Normal termination of Gaussian 09 at Mon Mar 29 22:48:53 2021.
 Gaussian 09:  AM64L-G09RevD.01 24-Apr-2013

 ----------------------------------------------------------------------
 #p b3lyp/6-31G(d) scrf=(iefpcm,read,solvent=Water) geom=allcheck guess
 =read
 ----------------------------------------------------------------------

 Structure from the checkpoint file:  "SET_328_BBB29_conf1.geo_090_075_075.n.pdb.xyz.mst.n.w.chk"
 ---------------------------------------------
 SET_328_BBB29_conf1.geo_090_075_075.n.pdb.xyz
 ---------------------------------------------
 Charge =  0 Multiplicity = 1

                         Standard orientation:
 ---------------------------------------------------------------------
 Center     Atomic      Atomic             Coordinates (Angstroms)
 Number     Number       Type             X           Y           Z
 ---------------------------------------------------------------------
      1          7           0        1.716249    3.816247    1.088607
      2          1           0        2.250307    3.940578    1.950784
      3          1           0        1.530894    4.761472    0.748781
      4          6           0        0.433912    3.173161    1.409953
      5          1           0       -0.203538    3.773341    2.079392
      6          1           0        0.651578    2.237916    1.936671
      7          6           0       -0.354723    2.867267    0.136113
      8          1           0       -0.539295    3.801351   -0.408785
      9          1           0       -1.336123    2.466462    0.403206
     10          6           0        0.372858    1.917338   -0.820367
     11          1           0        1.387316    2.292953   -0.935633
     12          1           0       -0.099621    1.920614   -1.811053
     13          7           0        0.481240    0.551893   -0.287612
     14          6           0       -0.700841   -0.174679   -0.037901
     15          6           0       -1.928233    0.191338   -0.610230
     16          1           0       -1.993664    1.033794   -1.284331
     17          6           0       -3.072873   -0.541520   -0.309896
     18         17           0       -4.603798   -0.039033   -1.026462
     19          6           0       -3.045703   -1.657679    0.519513
     20          1           0       -3.949869   -2.212382    0.735425
     21          6           0       -1.818486   -2.041355    1.060583
     22          1           0       -1.761825   -2.912933    1.702591
     23          6           0       -0.664994   -1.303058    0.806488
     24         16           0        0.869722   -1.723103    1.604999
     25          6           0        1.969972   -1.303557    0.265309
     26          6           0        1.668350   -0.183450   -0.531813
     27          6           0        2.563689    0.159384   -1.555168
     28          1           0        2.340894    0.989781   -2.211371
     29          6           0        3.741956   -0.563557   -1.743208
     30          1           0        4.423373   -0.266531   -2.533952
     31          6           0        4.034374   -1.665915   -0.941697
     32          1           0        4.946208   -2.233482   -1.091256
     33          6           0        3.132241   -2.045109    0.053130
     34          1           0        3.330969   -2.908362    0.677580
 ---------------------------------------------------------------------

 SCF Done:  E(RB3LYP) =  -1548.52072056     A.U. after   11 cycles

 The electronic state is 1-A.
 Alpha  occ. eigenvalues -- -101.55489 -88.89767 -14.37183 -14.30367 -10.25789
 Alpha  occ. eigenvalues --  -10.24884 -10.24149 -10.22946 -10.22548 -10.21600
 Alpha  occ. eigenvalues --  -10.20758 -10.20578 -10.20266 -10.19934 -10.19928
 Alpha  occ. eigenvalues --  -10.19482 -10.19427 -10.19110 -10.17991  -9.47116
 Alpha  occ. eigenvalues --   -7.95808  -7.23499  -7.22552  -7.22519  -5.92306
 Alpha  occ. eigenvalues --   -5.91958  -5.91314  -0.97225  -0.89404  -0.87114
 Alpha  occ. eigenvalues --   -0.86147  -0.84895  -0.80066  -0.76978  -0.76825
 Alpha  occ. eigenvalues --   -0.74643  -0.73277  -0.68791  -0.67076  -0.63277
 Alpha  occ. eigenvalues --   -0.61433  -0.60931  -0.57765  -0.56368  -0.54174
 Alpha  occ. eigenvalues --   -0.51240  -0.48835  -0.48596  -0.48222  -0.47171
 Alpha  occ. eigenvalues --   -0.46443  -0.45900  -0.44537  -0.44178  -0.42963
 Alpha  occ. eigenvalues --   -0.41771  -0.41022  -0.40149  -0.39909  -0.38863
 Alpha  occ. eigenvalues --   -0.38414  -0.36653  -0.36255  -0.35699  -0.35068
 Alpha  occ. eigenvalues --   -0.34568  -0.33645  -0.32870  -0.32010  -0.30717
 Alpha  occ. eigenvalues --   -0.29450  -0.26324  -0.25479  -0.23275  -0.23170
 Alpha  occ. eigenvalues --   -0.19539
 Alpha virt. eigenvalues --   -0.02278  -0.01765  -0.00912   0.00365   0.02090
 Alpha virt. eigenvalues --    0.03575   0.07618   0.09189   0.11474   0.12036
 Alpha virt. eigenvalues --    0.13044   0.13933   0.13995   0.14324   0.14671

 Mulliken charges:
               1
     1  N   -0.767772
     2  H    0.329087
     3  H    0.324179
     4  C   -0.131737
     5  H    0.124538
     6  H    0.148437
     7  C   -0.279240
     8  H    0.147586
     9  H    0.151360
    10  C   -0.157178
    11  H    0.180704
    12  H    0.158671
    13  N   -0.574574
    14  C    0.314083
    15  C   -0.170958
    16  H    0.180006
    17  C   -0.094040
    18  Cl  -0.045476
    19  C   -0.133915
    20  H    0.171817
    21  C   -0.188480
    22  H    0.172601
    23  C   -0.124427
    24  S    0.134953
    25  C   -0.132547
    26  C    0.307592
    27  C   -0.183728
    28  H    0.163598
    29  C   -0.164572
    30  H    0.155209
    31  C   -0.139895
    32  H    0.152466
    33  C   -0.190294
    34  H    0.161943
 Sum of Mulliken charges =   0.00000

 Dipole moment (field-independent basis, Debye):
    X=              1.4864    Y=              2.7843    Z=             -0.0962  Tot=              3.1576
 Quadrupole moment (field-independent basis, Debye-Ang):
   XX=           -127.5587   YY=           -106.3711   ZZ=           -121.5404
   XY=              1.5132   XZ=             -5.7534   YZ=             -0.4530

 Normal termination of Gaussian 09 at Mon Mar 29 22:52:43 2021.
