 Gaussian 16, Revision B.01,
 Gaussian 16:  ES64L-G16RevB.01 20-Dec-2017

 ----------------------------------------------------------------------
 #p b3lyp/6-31G(d) opt freq NoSymm scf=(MaxCycle=2000,NoVarAcc,NoIncFoc
 k) scrf=(iefpcm,read,solvent=water) MaxDisk=20GB
 ----------------------------------------------------------------------

 --------------------------------------------
 SET_328_BBB6_conf1.geo_330_225_075.n.pdb.xyz
 --------------------------------------------
 Symbolic Z-matrix:
 Charge =  0 Multiplicity = 1

 SCF Done:  E(RB3LYP) =  -1096.36198890     A.U. after   13 cycles
 SCF Done:  E(RB3LYP) =  -1096.39067647     A.U. after   11 cycles
 SCF Done:  E(RB3LYP) =  -1096.40363999     A.U. after   11 cycles
 SCF Done:  E(RB3LYP) =  -1096.40399091     A.U. after   11 cycles
 SCF Done:  E(RB3LYP) =  -1096.40518504     A.U. after   12 cycles
 SCF Done:  E(RB3LYP) =  -1096.40583285     A.U. after   11 cycles
 SCF Done:  E(RB3LYP) =  -1096.40574675     A.U. after   10 cycles
 SCF Done:  E(RB3LYP) =  -1096.40580564     A.U. after   11 cycles
 SCF Done:  E(RB3LYP) =  -1096.40588731     A.U. after   10 cycles
 SCF Done:  E(RB3LYP) =  -1096.40597155     A.U. after   10 cycles
 SCF Done:  E(RB3LYP) =  -1096.40598875     A.U. after    9 cycles
 SCF Done:  E(RB3LYP) =  -1096.40581832     A.U. after   10 cycles
 SCF Done:  E(RB3LYP) =  -1096.40589599     A.U. after    9 cycles
 SCF Done:  E(RB3LYP) =  -1096.40579085     A.U. after   10 cycles
 SCF Done:  E(RB3LYP) =  -1096.40586736     A.U. after    9 cycles
 SCF Done:  E(RB3LYP) =  -1096.40585915     A.U. after    7 cycles
 SCF Done:  E(RB3LYP) =  -1096.40584601     A.U. after    8 cycles
 SCF Done:  E(RB3LYP) =  -1096.40584582     A.U. after    6 cycles
 SCF Done:  E(RB3LYP) =  -1096.40584742     A.U. after    6 cycles
 Optimization completed.
    -- Stationary point found.
 Normal termination of Gaussian 16 at Wed Apr 28 07:07:25 2021.

 --------------------------------------------------------------------
 #P Geom=AllCheck Guess=TCheck SCRF=Check GenChk RB3LYP/6-31G(d) Freq
 --------------------------------------------------------------------

 Structure from the checkpoint file:  "SET_328_BBB6_conf1.geo_330_225_075.n.pdb.xyz.mst.n.w.chk"
 --------------------------------------------
 SET_328_BBB6_conf1.geo_330_225_075.n.pdb.xyz
 --------------------------------------------
 Charge =  0 Multiplicity = 1

                          Input orientation:
 ---------------------------------------------------------------------
 Center     Atomic      Atomic             Coordinates (Angstroms)
 Number     Number       Type             X           Y           Z
 ---------------------------------------------------------------------
      1          6           0       -0.779799   -1.076201    2.110405
      2          1           0       -0.583314   -0.542093    3.042683
      3          1           0       -0.453571   -2.113494    2.231145
      4          1           0       -1.857218   -1.073863    1.923276
      5          6           0        0.012636   -0.404740    0.969359
      6          7           0        1.440830   -0.440380    1.267836
      7          6           0        2.258529    0.704928    0.795208
      8          6           0        2.066091    1.019832   -0.702768
      9          1           0        1.026898    1.290024   -0.918613
     10          1           0        2.330731    0.155226   -1.321116
     11          1           0        2.695320    1.863021   -1.006893
     12          6           0        1.909443    1.941655    1.637967
     13          1           0        0.867401    2.247048    1.498421
     14          1           0        2.541101    2.789428    1.354364
     15          1           0        2.062746    1.733584    2.700746
     16          6           0        3.720017    0.316213    1.054755
     17          1           0        4.003270   -0.560460    0.461792
     18          1           0        3.868097    0.075656    2.110904
     19          1           0        4.393600    1.135383    0.787338
     20          1           0        1.811918   -1.296969    0.853881
     21          1           0       -0.304859    0.636704    0.897334
     22          6           0       -0.333202   -1.133550   -0.337421
     23          8           0        0.413222   -2.012349   -0.756477
     24          6           0       -1.605769   -0.823654   -1.061088
     25          6           0       -2.422308    0.259634   -0.704991
     26          1           0       -2.161422    0.915279    0.114447
     27          6           0       -3.587170    0.496989   -1.428633
     28         17           0       -4.606327    1.862970   -0.980006
     29          6           0       -3.965069   -0.315020   -2.496985
     30          1           0       -4.877711   -0.108795   -3.043968
     31          6           0       -3.146009   -1.392090   -2.845449
     32          1           0       -3.430132   -2.030273   -3.673650
     33          6           0       -1.976460   -1.644359   -2.137359
     34          1           0       -1.331509   -2.474284   -2.398445
 ---------------------------------------------------------------------

 SCF Done:  E(RB3LYP) =  -1096.40584742     A.U. after    1 cycles

 Alpha  occ. eigenvalues -- -101.55751 -19.15101 -14.30897 -10.28312 -10.26298
 Alpha  occ. eigenvalues --  -10.21954 -10.21720 -10.21677 -10.21508 -10.21483
 Alpha  occ. eigenvalues --  -10.20758 -10.20575 -10.17870 -10.16772 -10.16713
 Alpha  occ. eigenvalues --  -10.16676  -9.47378  -7.23766  -7.22811  -7.22777
 Alpha  occ. eigenvalues --   -1.04965  -0.90466  -0.89991  -0.84670  -0.79593
 Alpha  occ. eigenvalues --   -0.77502  -0.74494  -0.72819  -0.68323  -0.68152
 Alpha  occ. eigenvalues --   -0.66271  -0.62938  -0.60280  -0.55592  -0.54435
 Alpha  occ. eigenvalues --   -0.52834  -0.49678  -0.48085  -0.46718  -0.45613
 Alpha  occ. eigenvalues --   -0.44842  -0.44218  -0.43905  -0.42897  -0.42470
 Alpha  occ. eigenvalues --   -0.41457  -0.40255  -0.39312  -0.38268  -0.37889
 Alpha  occ. eigenvalues --   -0.37611  -0.37032  -0.36515  -0.36116  -0.35812
 Alpha  occ. eigenvalues --   -0.34331  -0.33738  -0.32535  -0.32283  -0.31741
 Alpha  occ. eigenvalues --   -0.27253  -0.26571  -0.25591  -0.22028
 Alpha virt. eigenvalues --   -0.06783  -0.02034   0.02119   0.02894   0.08078
 Alpha virt. eigenvalues --    0.10447   0.11899   0.12476   0.13389   0.14647
 Alpha virt. eigenvalues --    0.15210   0.15932   0.16170   0.16404   0.16989

 Mulliken charges:
               1
     1  C   -0.445644
     2  H    0.163323
     3  H    0.157572
     4  H    0.154674
     5  C   -0.062364
     6  N   -0.598518
     7  C    0.216337
     8  C   -0.460310
     9  H    0.143659
    10  H    0.145858
    11  H    0.145862
    12  C   -0.446317
    13  H    0.148416
    14  H    0.146398
    15  H    0.144153
    16  C   -0.459007
    17  H    0.145857
    18  H    0.145885
    19  H    0.148421
    20  H    0.321186
    21  H    0.163772
    22  C    0.418924
    23  O   -0.522579
    24  C    0.082334
    25  C   -0.172894
    26  H    0.187991
    27  C   -0.082255
    28  Cl  -0.034898
    29  C   -0.121088
    30  H    0.182382
    31  C   -0.141189
    32  H    0.172020
    33  C   -0.154369
    34  H    0.166409
 Sum of Mulliken charges =  -0.00000

 Dipole moment (field-independent basis, Debye):
    X=             -1.4775    Y=              0.6015    Z=             -1.2697  Tot=              2.0388
 Quadrupole moment (field-independent basis, Debye-Ang):
   XX=           -101.4055   YY=           -106.2867   ZZ=            -99.6307
   XY=              8.6607   XZ=              5.3948   YZ=              3.7847

  Exact polarizability: 235.108 -37.879 199.446  34.221  31.691 188.256
 Approx polarizability: 251.899 -50.331 228.140  32.016  39.318 205.481

                      1                      2                      3
                      A                      A                      A
 Frequencies --     23.1829                26.4042                43.0190
 Red. masses --      4.2070                 4.2651                 3.1508
 Frc consts  --      0.0013                 0.0018                 0.0034
 IR Inten    --      1.0213                 0.0835                 1.7925

                      4                      5                      6
                      A                      A                      A
 Frequencies --     76.8644               105.8070               138.7281
 Red. masses --      4.3496                 4.9731                 5.9006
 Frc consts  --      0.0151                 0.0328                 0.0669
 IR Inten    --      4.0623                 1.6694                 2.5238

                      7                      8                      9
                      A                      A                      A
 Frequencies --    169.7075               202.0276               209.7194
 Red. masses --      3.1493                 4.8447                 1.1696
 Frc consts  --      0.0534                 0.1165                 0.0303
 IR Inten    --      0.3774                 0.2261                 1.6429

                     10                     11                     12
                      A                      A                      A
 Frequencies --    222.5732               227.1135               244.0104
 Red. masses --      1.8127                 1.2184                 1.8221
 Frc consts  --      0.0529                 0.0370                 0.0639
 IR Inten    --      4.4700                 0.6838                 0.3539

                     13                     14                     15
                      A                      A                      A
 Frequencies --    264.5463               282.5799               287.7618
 Red. masses --      1.5271                 1.4267                 1.8066
 Frc consts  --      0.0630                 0.0671                 0.0881
 IR Inten    --      0.7720                 2.0998                 2.1728

                     16                     17                     18
                      A                      A                      A
 Frequencies --    322.6864               337.3696               364.0153
 Red. masses --      3.0601                 4.2087                 2.6451
 Frc consts  --      0.1877                 0.2822                 0.2065
 IR Inten    --      1.9071                12.4137                13.7779

                     19                     20                     21
                      A                      A                      A
 Frequencies --    367.7862               398.4991               437.1221
 Red. masses --      2.9065                 7.1666                 3.0251
 Frc consts  --      0.2316                 0.6705                 0.3406
 IR Inten    --      2.4989                 8.9238                 2.3410

                     22                     23                     24
                      A                      A                      A
 Frequencies --    445.7097               459.8219               485.9375
 Red. masses --      2.7321                 2.7178                 3.1727
 Frc consts  --      0.3198                 0.3386                 0.4414
 IR Inten    --     14.1609                 8.2396                 6.0922

                     25                     26                     27
                      A                      A                      A
 Frequencies --    512.2953               535.9327               663.2435
 Red. masses --      4.6827                 3.7405                 5.9962
 Frc consts  --      0.7241                 0.6330                 1.5541
 IR Inten    --      3.4437                 7.7094                 8.5699

                     28                     29                     30
                      A                      A                      A
 Frequencies --    683.9011               708.7373               737.1262
 Red. masses --      3.1126                 3.6171                 3.1742
 Frc consts  --      0.8577                 1.0705                 1.0162
 IR Inten    --      5.5786                13.2748                78.2269

                     31                     32                     33
                      A                      A                      A
 Frequencies --    750.2761               790.0754               821.6921
 Red. masses --      2.5720                 3.4072                 1.5865
 Frc consts  --      0.8530                 1.2531                 0.6311
 IR Inten    --     26.7514               150.5560                21.6848

                     34                     35                     36
                      A                      A                      A
 Frequencies --    833.1082               902.6183               906.9001
 Red. masses --      2.7045                 1.5681                 1.5007
 Frc consts  --      1.1060                 0.7527                 0.7272
 IR Inten    --     38.8302                24.3475                10.1999

                     37                     38                     39
                      A                      A                      A
 Frequencies --    919.6950               939.3572               950.0406
 Red. masses --      1.7018                 1.5867                 1.3719
 Frc consts  --      0.8481                 0.8249                 0.7296
 IR Inten    --      0.6183                 8.9116                 0.8511

                     40                     41                     42
                      A                      A                      A
 Frequencies --    965.4039               982.4800               990.0467
 Red. masses --      1.2040                 2.2711                 3.5510
 Frc consts  --      0.6611                 1.2916                 2.0508
 IR Inten    --      0.2480                25.9522               110.5515

                     43                     44                     45
                      A                      A                      A
 Frequencies --   1006.0756              1015.3232              1044.0279
 Red. masses --      1.3181                 5.4258                 1.4683
 Frc consts  --      0.7861                 3.2955                 0.9429
 IR Inten    --      0.8778                 4.9592                 4.2583

                     46                     47                     48
                      A                      A                      A
 Frequencies --   1055.9240              1086.9001              1103.5356
 Red. masses --      1.4183                 1.5695                 1.9700
 Frc consts  --      0.9317                 1.0924                 1.4135
 IR Inten    --      5.9168                28.2145                30.2299

                     49                     50                     51
                      A                      A                      A
 Frequencies --   1108.2624              1128.8486              1171.0517
 Red. masses --      2.6958                 1.6625                 2.6403
 Frc consts  --      1.9509                 1.2482                 2.1333
 IR Inten    --     11.4507                19.5637               135.3714

                     52                     53                     54
                      A                      A                      A
 Frequencies --   1194.2298              1236.9960              1242.3497
 Red. masses --      1.1717                 2.4000                 2.6042
 Frc consts  --      0.9846                 2.1637                 2.3682
 IR Inten    --      1.8455                50.4006               209.9416

                     55                     56                     57
                      A                      A                      A
 Frequencies --   1265.4590              1286.7571              1304.9007
 Red. masses --      2.7449                 2.8231                 1.5140
 Frc consts  --      2.5898                 2.7541                 1.5189
 IR Inten    --     76.3333                97.7461                 9.5938

                     58                     59                     60
                      A                      A                      A
 Frequencies --   1324.2233              1358.0931              1387.6904
 Red. masses --      1.4948                 4.9559                 1.2716
 Frc consts  --      1.5444                 5.3856                 1.4428
 IR Inten    --     23.4456                 9.9023                20.9559

                     61                     62                     63
                      A                      A                      A
 Frequencies --   1412.6082              1418.0476              1422.8976
 Red. masses --      1.2627                 1.2526                 1.2793
 Frc consts  --      1.4846                 1.4840                 1.5260
 IR Inten    --      8.6091                 6.2917                14.8986

                     64                     65                     66
                      A                      A                      A
 Frequencies --   1436.6005              1455.4849              1493.4543
 Red. masses --      1.2408                 3.0507                 1.0923
 Frc consts  --      1.5087                 3.8078                 1.4354
 IR Inten    --      8.8753                24.6017                14.6604

                     67                     68                     69
                      A                      A                      A
 Frequencies --   1502.5939              1503.5360              1504.8723
 Red. masses --      1.0616                 1.0741                 1.0489
 Frc consts  --      1.4121                 1.4306                 1.3995
 IR Inten    --      4.8648                10.4799                 0.7659

                     70                     71                     72
                      A                      A                      A
 Frequencies --   1509.0155              1515.1911              1518.5261
 Red. masses --      1.0621                 1.2354                 1.1338
 Frc consts  --      1.4250                 1.6710                 1.5403
 IR Inten    --     14.8561                 0.7182                13.4833

                     73                     74                     75
                      A                      A                      A
 Frequencies --   1520.6752              1529.0759              1543.2251
 Red. masses --      1.3922                 1.0615                 1.2535
 Frc consts  --      1.8968                 1.4623                 1.7589
 IR Inten    --     17.7240                 6.6229                18.9950

                     76                     77                     78
                      A                      A                      A
 Frequencies --   1620.1712              1645.8857              1742.0896
 Red. masses --      6.0238                 5.9758                11.5265
 Frc consts  --      9.3163                 9.5378                20.6106
 IR Inten    --     90.9780                15.0482               336.6079

                     79                     80                     81
                      A                      A                      A
 Frequencies --   3049.6447              3055.3096              3062.5171
 Red. masses --      1.0347                 1.0358                 1.0369
 Frc consts  --      5.6695                 5.6967                 5.7300
 IR Inten    --     40.6830                61.4406                 7.8955

                     82                     83                     84
                      A                      A                      A
 Frequencies --   3068.9786              3117.2329              3118.8429
 Red. masses --      1.0345                 1.1019                 1.0925
 Frc consts  --      5.7410                 6.3086                 6.2610
 IR Inten    --     34.2651                24.6466                26.9636

                     85                     86                     87
                      A                      A                      A
 Frequencies --   3121.2870              3124.9575              3126.1241
 Red. masses --      1.1022                 1.1005                 1.0948
 Frc consts  --      6.3266                 6.3318                 6.3035
 IR Inten    --      5.3161               104.1678                76.0012

                     88                     89                     90
                      A                      A                      A
 Frequencies --   3133.8721              3141.5785              3142.6251
 Red. masses --      1.1033                 1.1028                 1.1008
 Frc consts  --      6.3839                 6.4127                 6.4056
 IR Inten    --     25.1237                74.9832                88.5501

                     91                     92                     93
                      A                      A                      A
 Frequencies --   3154.9416              3227.4318              3239.8142
 Red. masses --      1.1035                 1.0878                 1.0926
 Frc consts  --      6.4715                 6.6762                 6.7568
 IR Inten    --     38.1920                 6.2541                 4.7663

                     94                     95                     96
                      A                      A                      A
 Frequencies --   3247.8632              3259.7588              3471.1678
 Red. masses --      1.0949                 1.0907                 1.0729
 Frc consts  --      6.8047                 6.8286                 7.6165
 IR Inten    --     14.7578                 1.2232                16.7958

 - Thermochemistry -
 -------------------
 Temperature   298.150 Kelvin.  Pressure   1.00000 Atm.
 Atom     1 has atomic number  6 and mass  12.00000

 Molecular mass:   239.10769 amu.
 Principal axes and moments of inertia in atomic units:
                           1         2         3
     Eigenvalues --  2292.641337463.073248370.26893
           X            0.92044  -0.15820  -0.35744
           Y           -0.02488   0.88888  -0.45747
           Z            0.39010   0.42997   0.81422
 This molecule is an asymmetric top.
 Rotational symmetry number  1.
 Warning -- assumption of classical behavior for rotation
           may cause significant error
 Rotational temperatures (Kelvin)      0.03778     0.01161     0.01035
 Rotational constants (GHZ):           0.78719     0.24182     0.21561
 Zero-point vibrational energy     754930.2 (Joules/Mol)
                                  180.43264 (Kcal/Mol)
 Warning -- explicit consideration of  26 degrees of freedom as
           vibrations may cause significant error
 Vibrational temperatures:     33.35    37.99    61.89   110.59   152.23
          (Kelvin)            199.60   244.17   290.67   301.74   320.23
                              326.77   351.08   380.62   406.57   414.03
                              464.27   485.40   523.74   529.16   573.35
                              628.92   641.28   661.58   699.16   737.08
                              771.09   954.26   983.98  1019.71  1060.56
                             1079.48  1136.74  1182.23  1198.66  1298.67
                             1304.83  1323.24  1351.53  1366.90  1389.00
                             1413.57  1424.46  1447.52  1460.82  1502.12
                             1519.24  1563.81  1587.74  1594.54  1624.16
                             1684.88  1718.23  1779.76  1787.46  1820.71
                             1851.36  1877.46  1905.26  1953.99  1996.58
                             2032.43  2040.25  2047.23  2066.95  2094.12
                             2148.75  2161.90  2163.25  2165.18  2171.14
                             2180.02  2184.82  2187.91  2200.00  2220.36
                             2331.06  2368.06  2506.48  4387.76  4395.91
                             4406.28  4415.58  4485.00  4487.32  4490.84
                             4496.12  4497.80  4508.94  4520.03  4521.54
                             4539.26  4643.55  4661.37  4672.95  4690.07
                             4994.24

 Zero-point correction=                           0.287538 (Hartree/Particle)
 Thermal correction to Energy=                    0.304558
 Thermal correction to Enthalpy=                  0.305502
 Thermal correction to Gibbs Free Energy=         0.241705
 Sum of electronic and zero-point Energies=          -1096.118310
 Sum of electronic and thermal Energies=             -1096.101289
 Sum of electronic and thermal Enthalpies=           -1096.100345
 Sum of electronic and thermal Free Energies=        -1096.164142

                     E (Thermal)             CV                S
                      KCal/Mol        Cal/Mol-Kelvin    Cal/Mol-Kelvin
 Total                  191.113             64.286            134.272
 Electronic               0.000              0.000              0.000
 Translational            0.889              2.981             42.317
 Rotational               0.889              2.981             33.326
 Vibrational            189.336             58.325             58.630
 Vibration     1          0.593              1.985              6.341
 Vibration     2          0.593              1.985              6.083
 Vibration     3          0.595              1.980              5.115
 Vibration     4          0.599              1.965              3.969
 Vibration     5          0.605              1.945              3.344
 Vibration     6          0.614              1.915              2.821
 Vibration     7          0.625              1.880              2.439
 Vibration     8          0.639              1.837              2.115
 Vibration     9          0.642              1.826              2.046
 Vibration    10          0.648              1.807              1.938
 Vibration    11          0.651              1.800              1.902
 Vibration    12          0.659              1.773              1.773
 Vibration    13          0.671              1.738              1.632
 Vibration    14          0.682              1.706              1.518
 Vibration    15          0.685              1.696              1.487
 Vibration    16          0.708              1.630              1.296
 Vibration    17          0.718              1.601              1.225
 Vibration    18          0.738              1.546              1.105
 Vibration    19          0.740              1.538              1.089
 Vibration    20          0.765              1.473              0.968
 Vibration    21          0.797              1.389              0.836
 Vibration    22          0.805              1.370              0.809
 Vibration    23          0.818              1.339              0.767
 Vibration    24          0.842              1.281              0.694
 Vibration    25          0.867              1.223              0.628
 Vibration    26          0.891              1.171              0.574

 Optimization completed.
    -- Stationary point found.
 Normal termination of Gaussian 16 at Wed Apr 28 07:46:44 2021.
