 Gaussian 09, Revision D.01,

 -----------------
 #p b3lyp/6-31G(d)
 -----------------

 ----------------------------------------------
 SET_328_BBB227_conf1.geo_075_180_240.n.pdb.xyz
 ----------------------------------------------
 Symbolic Z-matrix:
 Charge =  0 Multiplicity = 1

 SCF Done:  E(RB3LYP) =  -1203.25971816     A.U. after   15 cycles
 Normal termination of Gaussian 09 at Mon Mar 29 22:47:42 2021.
 Gaussian 09:  AM64L-G09RevD.01 24-Apr-2013

 ----------------------------------------------------------------------
 #p b3lyp/6-31G(d) scrf=(iefpcm,read,solvent=Water) geom=allcheck guess
 =read
 ----------------------------------------------------------------------

 Structure from the checkpoint file:  "SET_328_BBB227_conf1.geo_075_180_240.n.pdb.xyz.mst.n.w.chk"
 ----------------------------------------------
 SET_328_BBB227_conf1.geo_075_180_240.n.pdb.xyz
 ----------------------------------------------
 Charge =  0 Multiplicity = 1

                         Standard orientation:
 ---------------------------------------------------------------------
 Center     Atomic      Atomic             Coordinates (Angstroms)
 Number     Number       Type             X           Y           Z
 ---------------------------------------------------------------------
      1         16           0        1.586476    2.530549    0.643470
      2          6           0        1.012910    1.138664   -0.198196
      3          7           0        1.809129    0.069124   -0.432011
      4          6           0        3.218426   -0.069940   -0.063879
      5          6           0        3.378777   -0.843476    1.255274
      6          6           0        4.859035   -1.044627    1.611377
      7          6           0        5.623776   -1.728748    0.470359
      8          6           0        5.461502   -0.958627   -0.847169
      9          6           0        3.982956   -0.755158   -1.206221
     10          1           0        3.521174   -1.730659   -1.410566
     11          1           0        3.885107   -0.159185   -2.119363
     12          1           0        5.970286   -1.484397   -1.663005
     13          1           0        5.948644    0.021753   -0.755159
     14          1           0        5.241756   -2.750264    0.341239
     15          1           0        6.685719   -1.820611    0.727242
     16          1           0        4.942670   -1.631074    2.533252
     17          1           0        5.316700   -0.068097    1.818549
     18          1           0        2.890214   -1.821677    1.152622
     19          1           0        2.857678   -0.307430    2.054746
     20          1           0        3.601116    0.943917    0.071477
     21          1           0        1.367803   -0.796415   -0.720139
     22          7           0       -0.255143    1.083963   -0.674640
     23          6           0       -0.762397    0.064974   -1.603147
     24          6           0       -1.808681   -0.832019   -0.923289
     25          1           0       -2.429138   -1.273709   -1.709896
     26          1           0       -1.325593   -1.656842   -0.392009
     27          1           0       -1.224871    0.604995   -2.435844
     28          1           0        0.057089   -0.508731   -2.030848
     29          6           0       -1.272388    2.076214   -0.293137
     30          1           0       -1.185783    2.969519   -0.923842
     31          1           0       -1.062858    2.382371    0.730329
     32          6           0       -2.683649    1.472701   -0.393294
     33          1           0       -3.069570    1.538203   -1.416202
     34          1           0       -3.354413    2.060640    0.239057
     35          6           0       -2.673584   -0.003695    0.057629
     36          1           0       -2.183523   -0.023568    1.041206
     37          6           0       -4.057581   -0.559095    0.240334
     38          6           0       -4.734389   -1.505050   -0.497232
     39          1           0       -4.461041   -2.092023   -1.358446
     40          7           0       -5.973101   -1.625316    0.094183
     41          1           0       -6.716959   -2.247023   -0.196510
     42          6           0       -6.005393   -0.770600    1.146038
     43          1           0       -6.871080   -0.671805    1.785683
     44          7           0       -4.869549   -0.107167    1.270786
 ---------------------------------------------------------------------

 SCF Done:  E(RB3LYP) =  -1203.28752324     A.U. after   11 cycles

 The electronic state is 1-A.
 Alpha  occ. eigenvalues --  -88.81853 -14.38371 -14.37452 -14.36576 -14.31337
 Alpha  occ. eigenvalues --  -10.30031 -10.23714 -10.22657 -10.21912 -10.21714
 Alpha  occ. eigenvalues --  -10.20849 -10.20154 -10.19570 -10.18823 -10.18513
 Alpha  occ. eigenvalues --  -10.17947 -10.17736 -10.17675 -10.17642 -10.17493
 Alpha  occ. eigenvalues --   -7.88062  -5.84654  -5.83961  -5.83703  -1.00876
 Alpha  occ. eigenvalues --   -0.99277  -0.92502  -0.86708  -0.82774  -0.81022
 Alpha  occ. eigenvalues --   -0.76572  -0.75606  -0.73891  -0.73116  -0.71121
 Alpha  occ. eigenvalues --   -0.67120  -0.64178  -0.62140  -0.60921  -0.60228
 Alpha  occ. eigenvalues --   -0.58840  -0.57246  -0.56341  -0.55304  -0.54255
 Alpha  occ. eigenvalues --   -0.52402  -0.49384  -0.48472  -0.47160  -0.45431
 Alpha  occ. eigenvalues --   -0.44228  -0.43840  -0.43523  -0.43214  -0.43009
 Alpha  occ. eigenvalues --   -0.42069  -0.41771  -0.41019  -0.40171  -0.39380
 Alpha  occ. eigenvalues --   -0.38058  -0.37592  -0.37286  -0.36483  -0.36081
 Alpha  occ. eigenvalues --   -0.34484  -0.34177  -0.33545  -0.33067  -0.32424
 Alpha  occ. eigenvalues --   -0.31905  -0.30889  -0.30132  -0.27705  -0.27503
 Alpha  occ. eigenvalues --   -0.23592  -0.22303  -0.21798  -0.20813
 Alpha virt. eigenvalues --    0.00483   0.03347   0.05964   0.06953   0.08437
 Alpha virt. eigenvalues --    0.09177   0.10568   0.10924   0.11122   0.12128
 Alpha virt. eigenvalues --    0.12671   0.13578   0.14229   0.14253   0.14937

 Mulliken charges:
               1
     1  S   -0.490140
     2  C    0.380264
     3  N   -0.600834
     4  C    0.045346
     5  C   -0.260461
     6  C   -0.267436
     7  C   -0.260618
     8  C   -0.266902
     9  C   -0.271020
    10  H    0.136970
    11  H    0.144263
    12  H    0.139126
    13  H    0.137374
    14  H    0.133845
    15  H    0.135339
    16  H    0.138154
    17  H    0.136707
    18  H    0.133787
    19  H    0.145641
    20  H    0.167846
    21  H    0.369984
    22  N   -0.405408
    23  C   -0.184565
    24  C   -0.283326
    25  H    0.159139
    26  H    0.159696
    27  H    0.182354
    28  H    0.175888
    29  C   -0.114653
    30  H    0.161355
    31  H    0.181299
    32  C   -0.309514
    33  H    0.150810
    34  H    0.163255
    35  C   -0.144379
    36  H    0.147793
    37  C    0.210385
    38  C   -0.032674
    39  H    0.177759
    40  N   -0.550974
    41  H    0.399668
    42  C    0.202785
    43  H    0.180045
    44  N   -0.553973
 Sum of Mulliken charges =   0.00000

 Dipole moment (field-independent basis, Debye):
    X=             -5.6809    Y=            -10.1339    Z=             -5.9736  Tot=             13.0634
 Quadrupole moment (field-independent basis, Debye-Ang):
   XX=            -87.9846   YY=           -135.7505   ZZ=           -129.3492
   XY=              7.1040   XZ=              7.7912   YZ=             -1.9561

 Normal termination of Gaussian 09 at Mon Mar 29 22:52:18 2021.
