 Gaussian 09, Revision D.01,

 -----------------
 #p b3lyp/6-31G(d)
 -----------------

 ---------------------------------------------
 SET_328_BBB20_conf1.geo_120_180_300.n.pdb.xyz
 ---------------------------------------------
 Symbolic Z-matrix:
 Charge =  0 Multiplicity = 1

 SCF Done:  E(RB3LYP) =  -769.345651690     A.U. after   15 cycles
 Normal termination of Gaussian 09 at Mon Mar 29 22:47:30 2021.
 Gaussian 09:  AM64L-G09RevD.01 24-Apr-2013

 ----------------------------------------------------------------------
 #p b3lyp/6-31G(d) scrf=(iefpcm,read,solvent=Water) geom=allcheck guess
 =read
 ----------------------------------------------------------------------

 Structure from the checkpoint file:  "SET_328_BBB20_conf1.geo_120_180_300.n.pdb.xyz.mst.n.w.chk"
 ---------------------------------------------
 SET_328_BBB20_conf1.geo_120_180_300.n.pdb.xyz
 ---------------------------------------------
 Charge =  0 Multiplicity = 1

                         Standard orientation:
 ---------------------------------------------------------------------
 Center     Atomic      Atomic             Coordinates (Angstroms)
 Number     Number       Type             X           Y           Z
 ---------------------------------------------------------------------
      1          7           0       -3.897136   -2.379858   -0.336283
      2          1           0       -4.449480   -1.537769   -0.505133
      3          1           0       -4.565242   -3.147762   -0.370017
      4          6           0       -3.328651   -2.300872    1.018030
      5          1           0       -2.880150   -3.273785    1.250006
      6          1           0       -4.082786   -2.107928    1.797093
      7          6           0       -2.258739   -1.209360    1.096444
      8          1           0       -1.932644   -1.091466    2.135532
      9          1           0       -2.701295   -0.253608    0.795244
     10          6           0       -1.046289   -1.515688    0.218029
     11          1           0       -1.386870   -1.783723   -0.790124
     12          1           0       -0.536548   -2.392963    0.623347
     13          7           0       -0.068469   -0.418068    0.216569
     14          6           0        1.288015   -0.747338   -0.069579
     15          6           0        1.566231   -1.954151   -0.742998
     16          1           0        0.743659   -2.575358   -1.074076
     17          6           0        2.867227   -2.363835   -1.017154
     18          1           0        3.034471   -3.300855   -1.537372
     19          6           0        3.940295   -1.560950   -0.635557
     20          1           0        4.963149   -1.860646   -0.839521
     21          6           0        3.674085   -0.360197    0.017759
     22          1           0        4.503788    0.270980    0.327606
     23          6           0        2.375653    0.074804    0.319691
     24          6           0        2.283682    1.402014    1.058648
     25          1           0        2.651094    2.197545    0.396285
     26          1           0        2.988335    1.367300    1.896513
     27          6           0        0.907304    1.823802    1.587771
     28          1           0        1.018644    2.760754    2.140480
     29          1           0        0.540979    1.067879    2.289682
     30          6           0       -0.092289    2.002695    0.481398
     31          6           0       -0.563070    3.259219    0.092376
     32          1           0       -0.200665    4.140589    0.615794
     33          6           0       -1.501424    3.392731   -0.932454
     34          1           0       -1.864960    4.375127   -1.214290
     35          6           0       -1.974757    2.252096   -1.581910
     36          1           0       -2.707503    2.339888   -2.377390
     37          6           0       -1.501631    0.992321   -1.216425
     38          1           0       -1.868922    0.108302   -1.725348
     39          6           0       -0.553612    0.859872   -0.193455
 ---------------------------------------------------------------------

 SCF Done:  E(RB3LYP) =  -769.354990249     A.U. after   10 cycles

 The electronic state is 1-A.
 Alpha  occ. eigenvalues --  -14.34690 -14.30302 -10.22767 -10.22056 -10.20648
 Alpha  occ. eigenvalues --  -10.20056 -10.19444 -10.19006 -10.18823 -10.18729
 Alpha  occ. eigenvalues --  -10.18694 -10.18647 -10.18566 -10.18563 -10.18397
 Alpha  occ. eigenvalues --  -10.18273 -10.18273 -10.18167 -10.17490  -0.94796
 Alpha  occ. eigenvalues --   -0.87034  -0.85373  -0.84279  -0.79692  -0.76087
 Alpha  occ. eigenvalues --   -0.75387  -0.74964  -0.72219  -0.69882  -0.65888
 Alpha  occ. eigenvalues --   -0.64458  -0.60681  -0.59769  -0.58331  -0.56894
 Alpha  occ. eigenvalues --   -0.56322  -0.51392  -0.50727  -0.48454  -0.47477
 Alpha  occ. eigenvalues --   -0.46886  -0.46741  -0.45262  -0.44814  -0.43654
 Alpha  occ. eigenvalues --   -0.43280  -0.42676  -0.42005  -0.41259  -0.39511
 Alpha  occ. eigenvalues --   -0.38514  -0.38232  -0.37759  -0.36620  -0.35916
 Alpha  occ. eigenvalues --   -0.35276  -0.34551  -0.34209  -0.33716  -0.33213
 Alpha  occ. eigenvalues --   -0.32949  -0.32555  -0.28752  -0.24718  -0.24309
 Alpha  occ. eigenvalues --   -0.23673  -0.23309  -0.19483
 Alpha virt. eigenvalues --   -0.00657   0.00102   0.00409   0.00861   0.08681
 Alpha virt. eigenvalues --    0.10124   0.10773   0.11050   0.12246   0.13082
 Alpha virt. eigenvalues --    0.13747   0.14232   0.14950   0.15306   0.15388

 Mulliken charges:
               1
     1  N   -0.768780
     2  H    0.323980
     3  H    0.328529
     4  C   -0.137257
     5  H    0.139331
     6  H    0.125074
     7  C   -0.272197
     8  H    0.142014
     9  H    0.146633
    10  C   -0.139779
    11  H    0.157405
    12  H    0.156955
    13  N   -0.577855
    14  C    0.227947
    15  C   -0.196686
    16  H    0.152155
    17  C   -0.170132
    18  H    0.144621
    19  C   -0.150909
    20  H    0.141362
    21  C   -0.220369
    22  H    0.138535
    23  C    0.146442
    24  C   -0.343278
    25  H    0.160185
    26  H    0.160016
    27  C   -0.346160
    28  H    0.148839
    29  H    0.158492
    30  C    0.150948
    31  C   -0.233725
    32  H    0.142559
    33  C   -0.145054
    34  H    0.144126
    35  C   -0.169659
    36  H    0.146892
    37  C   -0.171365
    38  H    0.151433
    39  C    0.208729
 Sum of Mulliken charges =   0.00000

 Dipole moment (field-independent basis, Debye):
    X=             -2.5487    Y=             -0.1309    Z=              1.2203  Tot=              2.8288
 Quadrupole moment (field-independent basis, Debye-Ang):
   XX=            -95.0697   YY=           -103.4732   ZZ=           -113.0634
   XY=              6.3992   XZ=              1.6136   YZ=              0.8960

 Normal termination of Gaussian 09 at Mon Mar 29 22:51:30 2021.
