 Gaussian 09, Revision D.01,

 -----------------
 #p b3lyp/6-31G(d)
 -----------------

 ----------------------------------------------
 SET_328_BBB292_conf1.geo_105_165_120.n.pdb.xyz
 ----------------------------------------------
 Symbolic Z-matrix:
 Charge =  0 Multiplicity = 1

 SCF Done:  E(RB3LYP) =  -705.222144219     A.U. after   15 cycles
 Normal termination of Gaussian 09 at Mon Jan 25 16:25:41 2021.
 Gaussian 09:  AM64L-G09RevD.01 24-Apr-2013

 ----------------------------------------------------------------------
 #p b3lyp/6-31G(d) scrf=(iefpcm,read,solvent=Water) geom=allcheck guess
 =read
 ----------------------------------------------------------------------

 Structure from the checkpoint file:  "SET_328_BBB292_conf1.geo_105_165_120.n.pdb.xyz.mst.n.w.chk"
 ----------------------------------------------
 SET_328_BBB292_conf1.geo_105_165_120.n.pdb.xyz
 ----------------------------------------------
 Charge =  0 Multiplicity = 1

                         Standard orientation:
 ---------------------------------------------------------------------
 Center     Atomic      Atomic             Coordinates (Angstroms)
 Number     Number       Type             X           Y           Z
 ---------------------------------------------------------------------
      1          7           0        1.926257    1.300684    0.978866
      2          1           0        1.224796    1.277570    1.717983
      3          1           0        1.614029    1.987226    0.290968
      4          6           0        2.084491   -0.020870    0.355569
      5          6           0        3.567944   -0.190406   -0.023793
      6          8           0        4.361828    0.724957    0.530502
      7          1           0        3.718021    1.321506    1.021109
      8          8           0        3.993565   -1.084206   -0.734984
      9          1           0        1.897771   -0.774815    1.130321
     10          6           0        1.167804   -0.320637   -0.848338
     11          1           0        1.495743   -1.271507   -1.276586
     12          1           0        1.332904    0.447766   -1.611931
     13          6           0       -0.298146   -0.380574   -0.483022
     14          6           0       -1.126394    0.736981   -0.668376
     15          1           0       -0.721066    1.643296   -1.108377
     16          6           0       -2.471588    0.695874   -0.306417
     17          8           0       -3.353119    1.733896   -0.452971
     18          1           0       -2.913430    2.494229   -0.875536
     19          6           0       -3.016270   -0.473009    0.254614
     20          8           0       -4.334422   -0.524227    0.609118
     21          1           0       -4.740669    0.334834    0.389912
     22          6           0       -2.199933   -1.585826    0.440769
     23          1           0       -2.633310   -2.483454    0.865445
     24          6           0       -0.852773   -1.539227    0.074341
     25          1           0       -0.232213   -2.418639    0.219232
 ---------------------------------------------------------------------

 SCF Done:  E(RB3LYP) =  -705.254862418     A.U. after   11 cycles

 The electronic state is 1-A.
 Alpha  occ. eigenvalues --  -19.18130 -19.18040 -19.17307 -19.13286 -14.33656
 Alpha  occ. eigenvalues --  -10.31387 -10.24889 -10.24521 -10.23360 -10.19445
 Alpha  occ. eigenvalues --  -10.19251 -10.18961 -10.18732 -10.18486  -1.09448
 Alpha  occ. eigenvalues --   -1.06964  -1.04159  -1.01065  -0.90209  -0.85099
 Alpha  occ. eigenvalues --   -0.77578  -0.74225  -0.72030  -0.65592  -0.63550
 Alpha  occ. eigenvalues --   -0.59025  -0.58222  -0.54585  -0.53508  -0.53278
 Alpha  occ. eigenvalues --   -0.49166  -0.47962  -0.46916  -0.45172  -0.43818
 Alpha  occ. eigenvalues --   -0.43165  -0.43081  -0.42700  -0.40536  -0.39829
 Alpha  occ. eigenvalues --   -0.38484  -0.38050  -0.36448  -0.35804  -0.34669
 Alpha  occ. eigenvalues --   -0.33889  -0.32035  -0.30985  -0.29216  -0.25593
 Alpha  occ. eigenvalues --   -0.23987  -0.20651
 Alpha virt. eigenvalues --    0.00271   0.00579   0.01894   0.07650   0.08499
 Alpha virt. eigenvalues --    0.10751   0.11753   0.13660   0.14171   0.15367
 Alpha virt. eigenvalues --    0.16489   0.17185   0.17853   0.18451   0.19689

 Mulliken charges:
               1
     1  N   -0.805855
     2  H    0.369152
     3  H    0.357932
     4  C   -0.072730
     5  C    0.622823
     6  O   -0.606814
     7  H    0.453269
     8  O   -0.544374
     9  H    0.198538
    10  C   -0.372568
    11  H    0.170449
    12  H    0.162096
    13  C    0.160885
    14  C   -0.276118
    15  H    0.151891
    16  C    0.303941
    17  O   -0.696403
    18  H    0.467583
    19  C    0.308376
    20  O   -0.683929
    21  H    0.456013
    22  C   -0.197726
    23  H    0.147784
    24  C   -0.216467
    25  H    0.142252
 Sum of Mulliken charges =   0.00000

 Dipole moment (field-independent basis, Debye):
    X=             -4.9050    Y=              6.2180    Z=              1.0209  Tot=              7.9853
 Quadrupole moment (field-independent basis, Debye-Ang):
   XX=           -116.9488   YY=            -70.0823   ZZ=            -79.5415
   XY=             -1.3155   XZ=              9.5083   YZ=             -5.5513

 Normal termination of Gaussian 09 at Mon Jan 25 16:27:18 2021.
