 Gaussian 09, Revision D.01,

 -----------------
 #p b3lyp/6-31G(d)
 -----------------

 ----------------------------------------------
 SET_328_BBB256_conf1.geo_180_075_255.n.pdb.xyz
 ----------------------------------------------
 Symbolic Z-matrix:
 Charge =  0 Multiplicity = 1

 SCF Done:  E(RB3LYP) =  -421.570062228     A.U. after   14 cycles
 Normal termination of Gaussian 09 at Sun Jan 24 23:00:47 2021.
 Gaussian 09:  AM64L-G09RevD.01 24-Apr-2013

 ----------------------------------------------------------------------
 #p b3lyp/6-31G(d) scrf=(iefpcm,read,solvent=Water) geom=allcheck guess
 =read
 ----------------------------------------------------------------------

 Structure from the checkpoint file:  "SET_328_BBB256_conf1.geo_180_075_255.n.pdb.xyz.mst.n.w.chk"
 ----------------------------------------------
 SET_328_BBB256_conf1.geo_180_075_255.n.pdb.xyz
 ----------------------------------------------
 Charge =  0 Multiplicity = 1

                         Standard orientation:
 ---------------------------------------------------------------------
 Center     Atomic      Atomic             Coordinates (Angstroms)
 Number     Number       Type             X           Y           Z
 ---------------------------------------------------------------------
      1          6           0        3.469639   -0.910183    0.594288
      2          1           0        3.149982   -0.992335    1.648003
      3          1           0        4.345632   -0.251791    0.570701
      4          1           0        3.785329   -1.901043    0.253742
      5          7           0        2.436433   -0.388225   -0.294680
      6          1           0        1.660570   -1.049635   -0.332296
      7          6           0        1.908617    0.888723    0.179721
      8          1           0        2.696158    1.646637    0.076055
      9          1           0        1.642373    0.860666    1.251457
     10          6           0        0.683882    1.339345   -0.630617
     11          1           0        0.920446    1.234244   -1.695557
     12          1           0        0.503864    2.401199   -0.438061
     13          6           0       -0.573303    0.566181   -0.315206
     14          7           0       -0.588786   -0.744025   -0.631564
     15          6           0       -1.688031   -1.454312   -0.343196
     16          1           0       -1.658672   -2.507001   -0.611699
     17          6           0       -2.823232   -0.914285    0.258051
     18          1           0       -3.685887   -1.537996    0.461283
     19          6           0       -2.808788    0.440862    0.582420
     20          1           0       -3.668525    0.908002    1.052468
     21          6           0       -1.669256    1.188723    0.293588
     22          1           0       -1.621963    2.244486    0.533318
 ---------------------------------------------------------------------

 SCF Done:  E(RB3LYP) =  -421.576914428     A.U. after   10 cycles

 The electronic state is 1-A.
 Alpha  occ. eigenvalues --  -14.33428 -14.30746 -10.23023 -10.22458 -10.20726
 Alpha  occ. eigenvalues --  -10.20343 -10.19657 -10.19581 -10.19380 -10.18473
 Alpha  occ. eigenvalues --   -0.94449  -0.89217  -0.80215  -0.78809  -0.72863
 Alpha  occ. eigenvalues --   -0.66084  -0.63144  -0.62081  -0.58620  -0.51329
 Alpha  occ. eigenvalues --   -0.48858  -0.48058  -0.46408  -0.44162  -0.43441
 Alpha  occ. eigenvalues --   -0.41739  -0.40379  -0.39965  -0.38120  -0.37421
 Alpha  occ. eigenvalues --   -0.35390  -0.34567  -0.34045  -0.28782  -0.26130
 Alpha  occ. eigenvalues --   -0.25551  -0.21883
 Alpha virt. eigenvalues --   -0.02744  -0.00957   0.09692   0.10934   0.12134
 Alpha virt. eigenvalues --    0.13758   0.14979   0.15400   0.16311   0.17122
 Alpha virt. eigenvalues --    0.17566   0.17802   0.18548   0.19013   0.21105

 Mulliken charges:
               1
     1  C   -0.306377
     2  H    0.124985
     3  H    0.148091
     4  H    0.150751
     5  N   -0.589522
     6  H    0.329509
     7  C   -0.114751
     8  H    0.143377
     9  H    0.115790
    10  C   -0.339451
    11  H    0.159227
    12  H    0.157089
    13  C    0.306807
    14  N   -0.510738
    15  C    0.027896
    16  H    0.158264
    17  C   -0.155797
    18  H    0.161774
    19  C   -0.108375
    20  H    0.168076
    21  C   -0.185297
    22  H    0.158673
 Sum of Mulliken charges =   0.00000

 Dipole moment (field-independent basis, Debye):
    X=             -2.9211    Y=              1.0268    Z=              2.1933  Tot=              3.7945
 Quadrupole moment (field-independent basis, Debye-Ang):
   XX=            -54.5683   YY=            -53.7635   ZZ=            -63.6678
   XY=              1.2601   XZ=              0.8182   YZ=             -0.2496

 Normal termination of Gaussian 09 at Sun Jan 24 23:01:32 2021.
