 Gaussian 09, Revision D.01,

 -----------------
 #p b3lyp/6-31G(d)
 -----------------

 --------------------------------------------
 SET_328_BBB6_conf1.geo_330_225_075.n.pdb.xyz
 --------------------------------------------
 Symbolic Z-matrix:
 Charge =  0 Multiplicity = 1

 SCF Done:  E(RB3LYP) =  -1096.39899995     A.U. after   15 cycles
 Normal termination of Gaussian 09 at Sun Jan 24 23:21:27 2021.
 Gaussian 09:  AM64L-G09RevD.01 24-Apr-2013

 ----------------------------------------------------------------------
 #p b3lyp/6-31G(d) scrf=(iefpcm,read,solvent=Water) geom=allcheck guess
 =read
 ----------------------------------------------------------------------

 Structure from the checkpoint file:  "SET_328_BBB6_conf1.geo_330_225_075.n.pdb.xyz.mst.n.w.chk"
 --------------------------------------------
 SET_328_BBB6_conf1.geo_330_225_075.n.pdb.xyz
 --------------------------------------------
 Charge =  0 Multiplicity = 1

                         Standard orientation:
 ---------------------------------------------------------------------
 Center     Atomic      Atomic             Coordinates (Angstroms)
 Number     Number       Type             X           Y           Z
 ---------------------------------------------------------------------
      1          6           0        0.968419    0.050637    2.469874
      2          1           0        1.522761    0.882600    2.911460
      3          1           0        1.311437   -0.877739    2.935430
      4          1           0       -0.093973    0.175688    2.694788
      5          6           0        1.244290    0.011256    0.952206
      6          7           0        2.673119   -0.161522    0.710530
      7          6           0        3.239802    0.497783   -0.492826
      8          6           0        2.467621    0.177098   -1.789505
      9          1           0        1.429626    0.520035   -1.725957
     10          1           0        2.461152   -0.901215   -1.983346
     11          1           0        2.926993    0.676256   -2.648878
     12          6           0        3.259388    2.017069   -0.258942
     13          1           0        2.249042    2.423834   -0.148794
     14          1           0        3.729492    2.527697   -1.104962
     15          1           0        3.823036    2.255176    0.648006
     16          6           0        4.681939   -0.011277   -0.613408
     17          1           0        4.701891   -1.092104   -0.788128
     18          1           0        5.237167    0.196647    0.304814
     19          1           0        5.196827    0.473443   -1.448153
     20          1           0        2.845139   -1.166088    0.641665
     21          1           0        0.928141    0.963359    0.521367
     22          6           0        0.403972   -1.123723    0.350143
     23          8           0        0.917909   -2.219578    0.155382
     24          6           0       -1.050768   -0.916999    0.064134
     25          6           0       -1.653166    0.347722    0.136568
     26          1           0       -1.085014    1.226404    0.406808
     27          6           0       -3.009132    0.469472   -0.153438
     28         17           0       -3.759574    2.061625   -0.065102
     29          6           0       -3.784383   -0.631950   -0.512196
     30          1           0       -4.838840   -0.509930   -0.732299
     31          6           0       -3.176020   -1.887639   -0.582428
     32          1           0       -3.769182   -2.751182   -0.860623
     33          6           0       -1.821898   -2.030407   -0.300222
     34          1           0       -1.338426   -2.997478   -0.353002
 ---------------------------------------------------------------------

 SCF Done:  E(RB3LYP) =  -1096.40426229     A.U. after   11 cycles

 The electronic state is 1-A.
 Alpha  occ. eigenvalues -- -101.55833 -19.15253 -14.31041 -10.28450 -10.26435
 Alpha  occ. eigenvalues --  -10.22177 -10.21855 -10.21846 -10.21641 -10.21635
 Alpha  occ. eigenvalues --  -10.20891 -10.20696 -10.17999 -10.16876 -10.16835
 Alpha  occ. eigenvalues --  -10.16800  -9.47460  -7.23849  -7.22892  -7.22859
 Alpha  occ. eigenvalues --   -1.05155  -0.90624  -0.90117  -0.84794  -0.79752
 Alpha  occ. eigenvalues --   -0.77656  -0.74625  -0.72977  -0.68459  -0.68264
 Alpha  occ. eigenvalues --   -0.66424  -0.63101  -0.60435  -0.55726  -0.54602
 Alpha  occ. eigenvalues --   -0.53001  -0.49836  -0.48234  -0.46863  -0.45767
 Alpha  occ. eigenvalues --   -0.44996  -0.44341  -0.44032  -0.43036  -0.42631
 Alpha  occ. eigenvalues --   -0.41608  -0.40387  -0.39439  -0.38414  -0.38025
 Alpha  occ. eigenvalues --   -0.37729  -0.37159  -0.36660  -0.36243  -0.35973
 Alpha  occ. eigenvalues --   -0.34454  -0.33841  -0.32660  -0.32371  -0.31888
 Alpha  occ. eigenvalues --   -0.27407  -0.26707  -0.25704  -0.22107
 Alpha virt. eigenvalues --   -0.06930  -0.02184   0.02009   0.02753   0.07875
 Alpha virt. eigenvalues --    0.10172   0.11789   0.12350   0.13280   0.14525
 Alpha virt. eigenvalues --    0.15066   0.15821   0.16057   0.16317   0.16821

 Mulliken charges:
               1
     1  C   -0.446454
     2  H    0.165900
     3  H    0.158843
     4  H    0.154345
     5  C   -0.061733
     6  N   -0.590195
     7  C    0.212569
     8  C   -0.459102
     9  H    0.139588
    10  H    0.147617
    11  H    0.147017
    12  C   -0.444450
    13  H    0.147072
    14  H    0.146004
    15  H    0.146447
    16  C   -0.459666
    17  H    0.145069
    18  H    0.148455
    19  H    0.148643
    20  H    0.316351
    21  H    0.156311
    22  C    0.413855
    23  O   -0.517918
    24  C    0.081145
    25  C   -0.175993
    26  H    0.186238
    27  C   -0.081144
    28  Cl  -0.033027
    29  C   -0.121240
    30  H    0.183235
    31  C   -0.141675
    32  H    0.173224
    33  C   -0.153144
    34  H    0.167815
 Sum of Mulliken charges =   0.00000

 Dipole moment (field-independent basis, Debye):
    X=             -1.8294    Y=              0.2381    Z=             -0.7530  Tot=              1.9925
 Quadrupole moment (field-independent basis, Debye-Ang):
   XX=            -99.6039   YY=           -105.6456   ZZ=           -104.1976
   XY=             10.7606   XZ=             -0.9893   YZ=              1.1277

 Normal termination of Gaussian 09 at Sun Jan 24 23:24:28 2021.
