 Gaussian 09, Revision D.01,

 -----------------
 #p b3lyp/6-31G(d)
 -----------------

 ----------------------------------------------
 SET_328_BBB256_conf1.geo_285_180_105.n.pdb.xyz
 ----------------------------------------------
 Symbolic Z-matrix:
 Charge =  0 Multiplicity = 1

 SCF Done:  E(RB3LYP) =  -421.567190245     A.U. after   14 cycles
 Normal termination of Gaussian 09 at Sun Jan 24 23:05:11 2021.
 Gaussian 09:  AM64L-G09RevD.01 24-Apr-2013

 ----------------------------------------------------------------------
 #p b3lyp/6-31G(d) scrf=(iefpcm,read,solvent=Water) geom=allcheck guess
 =read
 ----------------------------------------------------------------------

 Structure from the checkpoint file:  "SET_328_BBB256_conf1.geo_285_180_105.n.pdb.xyz.mst.n.w.chk"
 ----------------------------------------------
 SET_328_BBB256_conf1.geo_285_180_105.n.pdb.xyz
 ----------------------------------------------
 Charge =  0 Multiplicity = 1

                         Standard orientation:
 ---------------------------------------------------------------------
 Center     Atomic      Atomic             Coordinates (Angstroms)
 Number     Number       Type             X           Y           Z
 ---------------------------------------------------------------------
      1          6           0        3.817827    0.674741    0.001939
      2          1           0        4.885181    0.492294    0.155160
      3          1           0        3.425212    1.166274    0.905268
      4          1           0        3.713092    1.380826   -0.830530
      5          7           0        3.161596   -0.583515   -0.348495
      6          1           0        3.330278   -1.260805    0.392543
      7          6           0        1.721729   -0.467979   -0.562239
      8          1           0        1.350234   -1.431266   -0.930986
      9          1           0        1.558602    0.264888   -1.361194
     10          6           0        0.881662   -0.061971    0.677640
     11          1           0        1.224813    0.906492    1.052934
     12          1           0        1.045956   -0.805351    1.466740
     13          6           0       -0.591164    0.008830    0.361898
     14          7           0       -1.252494   -1.162307    0.281499
     15          6           0       -2.553354   -1.133121   -0.035235
     16          1           0       -3.054327   -2.097417   -0.085116
     17          6           0       -3.264880    0.038099   -0.287306
     18          1           0       -4.318252   -0.001305   -0.535650
     19          6           0       -2.580424    1.250600   -0.206383
     20          1           0       -3.090016    2.189674   -0.390652
     21          6           0       -1.226791    1.234145    0.121794
     22          1           0       -0.662121    2.156381    0.197805
 ---------------------------------------------------------------------

 SCF Done:  E(RB3LYP) =  -421.576434975     A.U. after   10 cycles

 The electronic state is 1-A.
 Alpha  occ. eigenvalues --  -14.33087 -14.31391 -10.22844 -10.22253 -10.20575
 Alpha  occ. eigenvalues --  -10.20484 -10.19550 -10.19486 -10.19450 -10.18096
 Alpha  occ. eigenvalues --   -0.94147  -0.89441  -0.80053  -0.78569  -0.72380
 Alpha  occ. eigenvalues --   -0.67013  -0.62871  -0.61676  -0.58737  -0.51295
 Alpha  occ. eigenvalues --   -0.49346  -0.47620  -0.46409  -0.44180  -0.43199
 Alpha  occ. eigenvalues --   -0.41521  -0.40220  -0.39456  -0.38533  -0.36807
 Alpha  occ. eigenvalues --   -0.36231  -0.34745  -0.33855  -0.28558  -0.26155
 Alpha  occ. eigenvalues --   -0.25766  -0.21613
 Alpha virt. eigenvalues --   -0.02470  -0.00838   0.09432   0.10452   0.12391
 Alpha virt. eigenvalues --    0.13343   0.14670   0.15102   0.15532   0.16188
 Alpha virt. eigenvalues --    0.17669   0.18001   0.18485   0.19772   0.21983

 Mulliken charges:
               1
     1  C   -0.313458
     2  H    0.153787
     3  H    0.135965
     4  H    0.151572
     5  N   -0.575666
     6  H    0.330729
     7  C   -0.134989
     8  H    0.146351
     9  H    0.143129
    10  C   -0.340547
    11  H    0.157216
    12  H    0.151503
    13  C    0.300647
    14  N   -0.518717
    15  C    0.025531
    16  H    0.155068
    17  C   -0.155323
    18  H    0.159131
    19  C   -0.111569
    20  H    0.166499
    21  C   -0.182393
    22  H    0.155533
 Sum of Mulliken charges =   0.00000

 Dipole moment (field-independent basis, Debye):
    X=             -1.1434    Y=              2.6069    Z=              0.8382  Tot=              2.9675
 Quadrupole moment (field-independent basis, Debye-Ang):
   XX=            -52.3687   YY=            -58.2617   ZZ=            -62.8537
   XY=             -0.5988   XZ=              7.3665   YZ=             -1.2951

 Normal termination of Gaussian 09 at Sun Jan 24 23:05:55 2021.
