 Gaussian 09, Revision D.01,

 -----------------
 #p b3lyp/6-31G(d)
 -----------------

 ----------------------------------------------
 SET_328_BBB324_conf1.geo_180_120_300.n.pdb.xyz
 ----------------------------------------------
 Symbolic Z-matrix:
 Charge =  0 Multiplicity = 1

 SCF Done:  E(RB3LYP) =  -1692.24363366     A.U. after   16 cycles
 Normal termination of Gaussian 09 at Thu Jan 28 04:57:00 2021.
 Gaussian 09:  AM64L-G09RevD.01 24-Apr-2013

 ----------------------------------------------------------------------
 #p b3lyp/6-31G(d) scrf=(iefpcm,read,solvent=Water) geom=allcheck guess
 =read
 ----------------------------------------------------------------------

 Structure from the checkpoint file:  "SET_328_BBB324_conf1.geo_180_120_300.n.pdb.xyz.mst.n.w.chk"
 ----------------------------------------------
 SET_328_BBB324_conf1.geo_180_120_300.n.pdb.xyz
 ----------------------------------------------
 Charge =  0 Multiplicity = 1

                         Standard orientation:
 ---------------------------------------------------------------------
 Center     Atomic      Atomic             Coordinates (Angstroms)
 Number     Number       Type             X           Y           Z
 ---------------------------------------------------------------------
      1          6           0        0.467367   -2.402799   -1.205172
      2          1           0       -0.106386   -3.049665   -0.538040
      3          1           0        1.143349   -3.001517   -1.809839
      4          1           0       -0.225123   -1.864911   -1.860666
      5          7           0        1.263763   -1.473084   -0.412759
      6          6           0        0.551123   -0.607063    0.531399
      7          1           0        1.095874   -0.568437    1.479398
      8          1           0       -0.430305   -1.035737    0.719638
      9          6           0        0.395370    0.757542   -0.044990
     10          6           0       -0.662355    1.516010   -0.503250
     11          6           0       -2.074010    1.174817   -0.487166
     12          7           0       -3.004835    1.976056   -0.958724
     13          8           0       -4.192676    1.243857   -0.734935
     14          6           0       -3.835732    0.088534   -0.154523
     15          7           0       -2.553289   -0.018326    0.025216
     16          6           0       -4.930354   -0.909847    0.186169
     17          6           0       -5.566723   -1.446271   -1.096203
     18          1           0       -5.989437   -0.638416   -1.697961
     19          1           0       -6.361412   -2.147025   -0.833066
     20          1           0       -4.819474   -1.972847   -1.693766
     21          8           0       -4.363547   -2.000508    0.885350
     22          1           0       -4.238788   -1.685319    1.801515
     23          6           0       -5.972448   -0.227020    1.082933
     24          8           0       -5.303987    0.098035    2.294997
     25          1           0       -5.972664    0.227367    2.987779
     26          1           0       -6.788322   -0.937891    1.252973
     27          1           0       -6.381062    0.664797    0.592649
     28          7           0       -0.205820    2.722234   -1.012372
     29          6           0        1.096173    2.693541   -0.864503
     30          1           0        1.787934    3.464158   -1.167151
     31          7           0        1.521751    1.521896   -0.285475
     32          6           0        2.839653    1.179439    0.119843
     33          6           0        3.646795    2.187775    0.653007
     34          1           0        3.256966    3.193831    0.737584
     35          6           0        4.926777    1.884231    1.101137
     36          1           0        5.553607    2.664334    1.518537
     37          6           0        5.392691    0.570934    1.051991
     38          1           0        6.371411    0.311764    1.435641
     39          6           0        4.581771   -0.420828    0.508777
     40         17           0        5.214636   -2.060590    0.520538
     41          6           0        3.296147   -0.151465    0.006298
     42          6           0        2.547782   -1.216485   -0.771599
     43          8           0        3.123193   -1.806655   -1.689222
 ---------------------------------------------------------------------

 SCF Done:  E(RB3LYP) =  -1692.27298781     A.U. after   11 cycles

 The electronic state is 1-A.
 Alpha  occ. eigenvalues -- -101.55873 -19.25342 -19.15651 -19.15168 -19.12785
 Alpha  occ. eigenvalues --  -14.42056 -14.39376 -14.38149 -14.34860 -14.33935
 Alpha  occ. eigenvalues --  -10.30675 -10.29877 -10.27260 -10.27173 -10.27018
 Alpha  occ. eigenvalues --  -10.26810 -10.26060 -10.24535 -10.24219 -10.23979
 Alpha  occ. eigenvalues --  -10.23531 -10.23318 -10.21590 -10.21574 -10.21463
 Alpha  occ. eigenvalues --  -10.21448 -10.18749  -9.47499  -7.23906  -7.22936
 Alpha  occ. eigenvalues --   -7.22873  -1.16943  -1.05279  -1.04602  -1.04366
 Alpha  occ. eigenvalues --   -1.01521  -0.95302  -0.94799  -0.92556  -0.89885
 Alpha  occ. eigenvalues --   -0.88008  -0.84637  -0.80023  -0.78855  -0.78478
 Alpha  occ. eigenvalues --   -0.75249  -0.73080  -0.71102  -0.69363  -0.67628
 Alpha  occ. eigenvalues --   -0.66488  -0.65406  -0.63340  -0.60426  -0.58855
 Alpha  occ. eigenvalues --   -0.57735  -0.56686  -0.54526  -0.53310  -0.53236
 Alpha  occ. eigenvalues --   -0.51891  -0.50921  -0.49881  -0.49591  -0.49139
 Alpha  occ. eigenvalues --   -0.48593  -0.47451  -0.47354  -0.45762  -0.45270
 Alpha  occ. eigenvalues --   -0.44631  -0.43561  -0.42728  -0.42520  -0.42088
 Alpha  occ. eigenvalues --   -0.41731  -0.40855  -0.40590  -0.39744  -0.39578
 Alpha  occ. eigenvalues --   -0.39184  -0.38565  -0.38542  -0.37814  -0.36170
 Alpha  occ. eigenvalues --   -0.36089  -0.35450  -0.34477  -0.34033  -0.32391
 Alpha  occ. eigenvalues --   -0.31575  -0.30916  -0.30079  -0.29437  -0.28818
 Alpha  occ. eigenvalues --   -0.28064  -0.27861  -0.26081  -0.26004  -0.25286
 Alpha  occ. eigenvalues --   -0.23720
 Alpha virt. eigenvalues --   -0.04880  -0.04390  -0.03278   0.00088   0.01486
 Alpha virt. eigenvalues --    0.02128   0.02713   0.07418   0.08009   0.10454
 Alpha virt. eigenvalues --    0.10653   0.11451   0.11598   0.11889   0.12172

 Mulliken charges:
               1
     1  C   -0.326745
     2  H    0.181718
     3  H    0.192807
     4  H    0.179115
     5  N   -0.392383
     6  C   -0.264419
     7  H    0.207050
     8  H    0.224901
     9  C    0.333311
    10  C    0.122549
    11  C    0.432511
    12  N   -0.276810
    13  O   -0.386319
    14  C    0.613214
    15  N   -0.557988
    16  C    0.210735
    17  C   -0.463065
    18  H    0.172894
    19  H    0.174329
    20  H    0.175109
    21  O   -0.672190
    22  H    0.432350
    23  C   -0.044424
    24  O   -0.666355
    25  H    0.456927
    26  H    0.160300
    27  H    0.153224
    28  N   -0.562019
    29  C    0.226574
    30  H    0.208557
    31  N   -0.559715
    32  C    0.293202
    33  C   -0.154342
    34  H    0.186927
    35  C   -0.140215
    36  H    0.181711
    37  C   -0.126740
    38  H    0.184064
    39  C   -0.133906
    40  Cl  -0.008591
    41  C    0.052909
    42  C    0.543867
    43  O   -0.564627
 Sum of Mulliken charges =   0.00000

 Dipole moment (field-independent basis, Debye):
    X=             -2.6306    Y=              0.9443    Z=              6.8093  Tot=              7.3606
 Quadrupole moment (field-independent basis, Debye-Ang):
   XX=           -115.6499   YY=           -170.2215   ZZ=           -156.4749
   XY=             36.1484   XZ=             -1.9951   YZ=              5.3324

 Normal termination of Gaussian 09 at Thu Jan 28 05:04:03 2021.
