 Gaussian 09, Revision D.01,

 -----------------
 #p b3lyp/6-31G(d)
 -----------------

 ---------------------------------------------
 SET_328_BBB29_conf1.geo_120_180_180.n.pdb.xyz
 ---------------------------------------------
 Symbolic Z-matrix:
 Charge =  0 Multiplicity = 1

 SCF Done:  E(RB3LYP) =  -1548.50844807     A.U. after   16 cycles
 Normal termination of Gaussian 09 at Mon Mar 29 22:48:55 2021.
 Gaussian 09:  AM64L-G09RevD.01 24-Apr-2013

 ----------------------------------------------------------------------
 #p b3lyp/6-31G(d) scrf=(iefpcm,read,solvent=Water) geom=allcheck guess
 =read
 ----------------------------------------------------------------------

 Structure from the checkpoint file:  "SET_328_BBB29_conf1.geo_120_180_180.n.pdb.xyz.mst.n.w.chk"
 ---------------------------------------------
 SET_328_BBB29_conf1.geo_120_180_180.n.pdb.xyz
 ---------------------------------------------
 Charge =  0 Multiplicity = 1

                         Standard orientation:
 ---------------------------------------------------------------------
 Center     Atomic      Atomic             Coordinates (Angstroms)
 Number     Number       Type             X           Y           Z
 ---------------------------------------------------------------------
      1          7           0       -3.550352    3.988505   -1.142373
      2          1           0       -3.746003    4.978209   -0.973090
      3          1           0       -4.374678    3.494164   -0.799818
      4          6           0       -2.395190    3.593592   -0.324983
      5          1           0       -2.552403    3.744726    0.756358
      6          1           0       -1.549608    4.231172   -0.608074
      7          6           0       -2.035408    2.129140   -0.578581
      8          1           0       -1.823406    1.984790   -1.642085
      9          1           0       -2.898975    1.500547   -0.334487
     10          6           0       -0.813484    1.699718    0.240506
     11          1           0       -0.972820    1.890673    1.310026
     12          1           0        0.032721    2.315225   -0.065704
     13          7           0       -0.434051    0.301951   -0.001096
     14          6           0        0.932356   -0.031343   -0.098520
     15          6           0        1.942292    0.796988    0.416168
     16          1           0        1.696710    1.708813    0.941836
     17          6           0        3.277957    0.438790    0.252715
     18         17           0        4.519618    1.517482    0.887190
     19          6           0        3.660606   -0.744569   -0.370990
     20          1           0        4.704953   -1.002568   -0.481448
     21          6           0        2.655184   -1.589424   -0.841230
     22          1           0        2.921528   -2.526722   -1.321083
     23          6           0        1.312084   -1.236477   -0.725434
     24         16           0        0.043245   -2.263085   -1.438354
     25          6           0       -1.211057   -2.004633   -0.196335
     26          6           0       -1.338294   -0.723980    0.374184
     27          6           0       -2.362645   -0.512323    1.308130
     28          1           0       -2.473276    0.458549    1.774911
     29          6           0       -3.246484   -1.541219    1.639467
     30          1           0       -4.039307   -1.347914    2.354454
     31          6           0       -3.107581   -2.805683    1.070633
     32          1           0       -3.790450   -3.606567    1.331521
     33          6           0       -2.074702   -3.039152    0.163192
     34          1           0       -1.943388   -4.020658   -0.281115
 ---------------------------------------------------------------------

 SCF Done:  E(RB3LYP) =  -1548.52025957     A.U. after   11 cycles

 The electronic state is 1-A.
 Alpha  occ. eigenvalues -- -101.55509 -88.89812 -14.37388 -14.30491 -10.25828
 Alpha  occ. eigenvalues --  -10.25057 -10.24225 -10.23011 -10.22638 -10.22334
 Alpha  occ. eigenvalues --  -10.20829 -10.20644 -10.20342 -10.20290 -10.20008
 Alpha  occ. eigenvalues --  -10.19636 -10.19553 -10.19188 -10.18129  -9.47137
 Alpha  occ. eigenvalues --   -7.95854  -7.23520  -7.22573  -7.22540  -5.92352
 Alpha  occ. eigenvalues --   -5.92004  -5.91359  -0.97401  -0.89443  -0.87231
 Alpha  occ. eigenvalues --   -0.86299  -0.84979  -0.80125  -0.77596  -0.76715
 Alpha  occ. eigenvalues --   -0.74696  -0.73509  -0.68885  -0.66868  -0.63395
 Alpha  occ. eigenvalues --   -0.61367  -0.60552  -0.58592  -0.56750  -0.54207
 Alpha  occ. eigenvalues --   -0.51689  -0.49109  -0.48811  -0.48177  -0.46842
 Alpha  occ. eigenvalues --   -0.46442  -0.45667  -0.45009  -0.44272  -0.43239
 Alpha  occ. eigenvalues --   -0.42749  -0.41524  -0.40097  -0.39343  -0.38728
 Alpha  occ. eigenvalues --   -0.38077  -0.36847  -0.36671  -0.35536  -0.35215
 Alpha  occ. eigenvalues --   -0.35165  -0.33745  -0.32955  -0.32036  -0.30937
 Alpha  occ. eigenvalues --   -0.29498  -0.26380  -0.25519  -0.23591  -0.23161
 Alpha  occ. eigenvalues --   -0.19661
 Alpha virt. eigenvalues --   -0.02334  -0.01845  -0.00969   0.00228   0.02036
 Alpha virt. eigenvalues --    0.03557   0.07318   0.08854   0.10542   0.12097
 Alpha virt. eigenvalues --    0.12396   0.13517   0.13668   0.14160   0.14778

 Mulliken charges:
               1
     1  N   -0.778046
     2  H    0.328930
     3  H    0.324959
     4  C   -0.133470
     5  H    0.125458
     6  H    0.143738
     7  C   -0.267232
     8  H    0.150249
     9  H    0.151363
    10  C   -0.160144
    11  H    0.163879
    12  H    0.175744
    13  N   -0.581258
    14  C    0.314492
    15  C   -0.176262
    16  H    0.183027
    17  C   -0.092302
    18  Cl  -0.044765
    19  C   -0.133666
    20  H    0.172290
    21  C   -0.187073
    22  H    0.173129
    23  C   -0.124016
    24  S    0.134022
    25  C   -0.132634
    26  C    0.305186
    27  C   -0.174416
    28  H    0.160444
    29  C   -0.166222
    30  H    0.156352
    31  C   -0.138067
    32  H    0.153325
    33  C   -0.189904
    34  H    0.162889
 Sum of Mulliken charges =   0.00000

 Dipole moment (field-independent basis, Debye):
    X=             -3.1526    Y=              1.4372    Z=              2.7657  Tot=              4.4332
 Quadrupole moment (field-independent basis, Debye-Ang):
   XX=           -117.7359   YY=           -112.1768   ZZ=           -131.5981
   XY=             -8.8851   XZ=            -13.5902   YZ=              6.5117

 Normal termination of Gaussian 09 at Mon Mar 29 22:52:36 2021.
