 Gaussian 09, Revision D.01,

 -----------------
 #p b3lyp/6-31G(d)
 -----------------

 ----------------------------------------------
 SET_328_BBB321_conf1.geo_030_210_300.n.pdb.xyz
 ----------------------------------------------
 Symbolic Z-matrix:
 Charge =  0 Multiplicity = 1

 SCF Done:  E(RB3LYP) =  -1212.29687988     A.U. after   16 cycles
 Normal termination of Gaussian 09 at Thu Jan 28 04:43:38 2021.
 Gaussian 09:  AM64L-G09RevD.01 24-Apr-2013

 ----------------------------------------------------------------------
 #p b3lyp/6-31G(d) scrf=(iefpcm,read,solvent=Water) geom=allcheck guess
 =read
 ----------------------------------------------------------------------

 Structure from the checkpoint file:  "SET_328_BBB321_conf1.geo_030_210_300.n.pdb.xyz.mst.n.w.chk"
 ----------------------------------------------
 SET_328_BBB321_conf1.geo_030_210_300.n.pdb.xyz
 ----------------------------------------------
 Charge =  0 Multiplicity = 1

                         Standard orientation:
 ---------------------------------------------------------------------
 Center     Atomic      Atomic             Coordinates (Angstroms)
 Number     Number       Type             X           Y           Z
 ---------------------------------------------------------------------
      1          6           0        6.226217   -1.554371   -0.080247
      2          1           0        6.880910   -0.712713    0.148045
      3          1           0        6.476392   -1.934528   -1.074946
      4          1           0        6.410099   -2.357807    0.634462
      5          6           0        4.751371   -1.201252   -0.046032
      6          8           0        3.882478   -2.074873   -0.096340
      7          7           0        4.487979    0.139533    0.027851
      8          1           0        5.295431    0.748146    0.055493
      9          6           0        3.242167    0.801820    0.048648
     10          6           0        3.262289    2.207008    0.113983
     11          6           0        2.065850    2.916665    0.133239
     12          6           0        0.840500    2.251158    0.091200
     13          1           0       -0.092256    2.800135    0.105002
     14          1           0        2.089986    4.000736    0.182337
     15          1           0        4.210246    2.734981    0.146370
     16          6           0        2.015089    0.130074    0.008628
     17          1           0        2.015489   -0.947788   -0.043374
     18          6           0        0.808648    0.850592    0.029613
     19          6           0       -0.489567    0.144790   -0.016553
     20          7           0       -1.654643    0.887415   -0.047849
     21          6           0       -0.654985   -1.213202   -0.032649
     22          1           0        0.099192   -1.983634   -0.007038
     23         16           0       -2.338473   -1.624797   -0.085193
     24          6           0       -2.738108    0.144029   -0.085828
     25          7           0       -3.971997    0.683163   -0.218957
     26          6           0       -5.104145    0.049872    0.016819
     27          7           0       -6.253835    0.670223   -0.345930
     28          1           0       -6.180167    1.422365   -1.020061
     29          1           0       -7.127036    0.157679   -0.329078
     30          7           0       -5.233522   -1.177389    0.600864
     31          1           0       -6.170101   -1.465056    0.869104
     32          1           0       -4.522287   -1.450491    1.270710
 ---------------------------------------------------------------------

 SCF Done:  E(RB3LYP) =  -1212.33960310     A.U. after   12 cycles

 The electronic state is 1-A.
 Alpha  occ. eigenvalues --  -88.90271 -19.12263 -14.37612 -14.35936 -14.35475
 Alpha  occ. eigenvalues --  -14.31920 -14.31588 -10.31311 -10.29897 -10.27863
 Alpha  occ. eigenvalues --  -10.23947 -10.22198 -10.20611 -10.20313 -10.19300
 Alpha  occ. eigenvalues --  -10.19234 -10.18737 -10.18634 -10.18419  -7.96429
 Alpha  occ. eigenvalues --   -5.92818  -5.92480  -5.92116  -1.03920  -0.99978
 Alpha  occ. eigenvalues --   -0.95661  -0.94194  -0.88373  -0.87956  -0.85064
 Alpha  occ. eigenvalues --   -0.78787  -0.77478  -0.75839  -0.72249  -0.70917
 Alpha  occ. eigenvalues --   -0.64459  -0.63720  -0.61268  -0.59368  -0.56877
 Alpha  occ. eigenvalues --   -0.56630  -0.54127  -0.52373  -0.51671  -0.49116
 Alpha  occ. eigenvalues --   -0.48240  -0.48107  -0.47832  -0.45212  -0.44528
 Alpha  occ. eigenvalues --   -0.43658  -0.43285  -0.42796  -0.41512  -0.40749
 Alpha  occ. eigenvalues --   -0.40392  -0.39890  -0.39239  -0.37334  -0.36230
 Alpha  occ. eigenvalues --   -0.35901  -0.34202  -0.31825  -0.29993  -0.28169
 Alpha  occ. eigenvalues --   -0.28102  -0.27761  -0.26449  -0.25792  -0.24694
 Alpha  occ. eigenvalues --   -0.22309  -0.19579
 Alpha virt. eigenvalues --   -0.03525  -0.01774  -0.00670   0.02458   0.03924
 Alpha virt. eigenvalues --    0.06535   0.08015   0.08926   0.09851   0.10494
 Alpha virt. eigenvalues --    0.11854   0.13500   0.13740   0.14129   0.14308

 Mulliken charges:
               1
     1  C   -0.542722
     2  H    0.175721
     3  H    0.195086
     4  H    0.188926
     5  C    0.603422
     6  O   -0.559508
     7  N   -0.711302
     8  H    0.388115
     9  C    0.337733
    10  C   -0.206785
    11  C   -0.153081
    12  C   -0.198318
    13  H    0.147184
    14  H    0.151983
    15  H    0.157214
    16  C   -0.251586
    17  H    0.173643
    18  C    0.095690
    19  C    0.271494
    20  N   -0.555693
    21  C   -0.425917
    22  H    0.197596
    23  S    0.165635
    24  C    0.259430
    25  N   -0.592398
    26  C    0.664572
    27  N   -0.764738
    28  H    0.387139
    29  H    0.393401
    30  N   -0.775849
    31  H    0.394955
    32  H    0.388959
 Sum of Mulliken charges =   0.00000

 Dipole moment (field-independent basis, Debye):
    X=             -4.2453    Y=             -0.3761    Z=              1.3653  Tot=              4.4753
 Quadrupole moment (field-independent basis, Debye-Ang):
   XX=             -0.8380   YY=           -118.2428   ZZ=           -116.7244
   XY=             23.0712   XZ=             -3.2715   YZ=             -4.8243

 Normal termination of Gaussian 09 at Thu Jan 28 04:46:42 2021.
