 Gaussian 09, Revision D.01,

 -----------------
 #p b3lyp/6-31G(d)
 -----------------

 ----------------------------------------------
 SET_328_BBB301_conf1.geo_165_105_270.n.pdb.xyz
 ----------------------------------------------
 Symbolic Z-matrix:
 Charge =  0 Multiplicity = 1

 SCF Done:  E(RB3LYP) =  -788.416944775     A.U. after   14 cycles
 Normal termination of Gaussian 09 at Mon Mar 29 22:50:29 2021.
 Gaussian 09:  AM64L-G09RevD.01 24-Apr-2013

 ----------------------------------------------------------------------
 #p b3lyp/6-31G(d) scrf=(iefpcm,read,solvent=Water) geom=allcheck guess
 =read
 ----------------------------------------------------------------------

 Structure from the checkpoint file:  "SET_328_BBB301_conf1.geo_165_105_270.n.pdb.xyz.mst.n.w.chk"
 ----------------------------------------------
 SET_328_BBB301_conf1.geo_165_105_270.n.pdb.xyz
 ----------------------------------------------
 Charge =  0 Multiplicity = 1

                         Standard orientation:
 ---------------------------------------------------------------------
 Center     Atomic      Atomic             Coordinates (Angstroms)
 Number     Number       Type             X           Y           Z
 ---------------------------------------------------------------------
      1          6           0       -3.822986    1.824950   -0.917256
      2          1           0       -4.677391    2.131960   -1.525970
      3          1           0       -2.935071    1.848437   -1.555867
      4          1           0       -3.685966    2.559772   -0.118631
      5          6           0       -4.062615    0.428833   -0.325980
      6          6           0       -5.329656    0.457365    0.537403
      7          1           0       -5.523173   -0.526104    0.980507
      8          1           0       -6.202325    0.732624   -0.059849
      9          1           0       -5.223188    1.181134    1.350257
     10          6           0       -4.247066   -0.598404   -1.460213
     11          1           0       -4.420005   -1.598995   -1.049549
     12          1           0       -3.365080   -0.647266   -2.108017
     13          1           0       -5.105343   -0.338344   -2.086583
     14          7           0       -2.946220    0.086689    0.586765
     15          1           0       -3.179036   -0.788787    1.055522
     16          6           0       -1.631235   -0.089109   -0.025073
     17          1           0       -1.328385    0.846322   -0.505897
     18          1           0       -1.598590   -0.873387   -0.799742
     19          6           0       -0.593686   -0.438381    1.044779
     20          8           0       -1.022854   -1.675355    1.620263
     21          1           0       -0.417011   -1.882832    2.353601
     22          1           0       -0.616532    0.356826    1.802169
     23          6           0        0.807116   -0.528563    0.468512
     24          6           0        1.635478    0.593697    0.425418
     25          1           0        1.280087    1.534300    0.838308
     26          6           0        2.917151    0.566894   -0.136934
     27          6           0        3.761758    1.822078   -0.123484
     28          8           0        4.670794    1.896048    0.980721
     29          1           0        5.311160    1.169611    0.881121
     30          1           0        3.101267    2.684346   -0.015065
     31          1           0        4.299838    1.947303   -1.074392
     32          6           0        3.382064   -0.654542   -0.660726
     33          8           0        4.613862   -0.821624   -1.230827
     34          1           0        5.140246   -0.005186   -1.176654
     35          6           0        2.565271   -1.790889   -0.624960
     36          1           0        2.949925   -2.716913   -1.037555
     37          6           0        1.293818   -1.727257   -0.066099
     38          1           0        0.671217   -2.614227   -0.028635
 ---------------------------------------------------------------------

 SCF Done:  E(RB3LYP) =  -788.441528597     A.U. after   10 cycles

 The electronic state is 1-A.
 Alpha  occ. eigenvalues --  -19.18037 -19.14586 -19.14358 -14.30639 -10.25257
 Alpha  occ. eigenvalues --  -10.23734 -10.23469 -10.21445 -10.19923 -10.19460
 Alpha  occ. eigenvalues --  -10.19154 -10.19004 -10.18737 -10.18664 -10.16659
 Alpha  occ. eigenvalues --  -10.16609 -10.16526  -1.05948  -1.01574  -1.01440
 Alpha  occ. eigenvalues --   -0.89788  -0.85520  -0.78497  -0.76719  -0.75573
 Alpha  occ. eigenvalues --   -0.69873  -0.68088  -0.67989  -0.67913  -0.61764
 Alpha  occ. eigenvalues --   -0.61143  -0.57877  -0.54586  -0.54066  -0.52118
 Alpha  occ. eigenvalues --   -0.49947  -0.48174  -0.47327  -0.46355  -0.45158
 Alpha  occ. eigenvalues --   -0.44243  -0.43712  -0.42568  -0.42170  -0.41675
 Alpha  occ. eigenvalues --   -0.40960  -0.40342  -0.38961  -0.38588  -0.37634
 Alpha  occ. eigenvalues --   -0.37068  -0.36831  -0.35874  -0.35353  -0.34540
 Alpha  occ. eigenvalues --   -0.33676  -0.33075  -0.33007  -0.32052  -0.31412
 Alpha  occ. eigenvalues --   -0.27558  -0.27204  -0.25201  -0.21992  -0.21698
 Alpha virt. eigenvalues --   -0.01054   0.00522   0.05842   0.08157   0.09953
 Alpha virt. eigenvalues --    0.11349   0.12529   0.12797   0.13209   0.13806
 Alpha virt. eigenvalues --    0.13872   0.14246   0.15019   0.15878   0.16408

 Mulliken charges:
               1
     1  C   -0.451008
     2  H    0.144954
     3  H    0.147659
     4  H    0.143721
     5  C    0.220935
     6  C   -0.455847
     7  H    0.141776
     8  H    0.145566
     9  H    0.144836
    10  C   -0.456916
    11  H    0.140198
    12  H    0.147590
    13  H    0.143136
    14  N   -0.603725
    15  H    0.315841
    16  C   -0.120974
    17  H    0.148730
    18  H    0.123229
    19  C    0.070233
    20  O   -0.673841
    21  H    0.437227
    22  H    0.128871
    23  C    0.122985
    24  C   -0.268468
    25  H    0.145387
    26  C    0.116936
    27  C   -0.157164
    28  O   -0.653339
    29  H    0.429493
    30  H    0.169622
    31  H    0.146513
    32  C    0.274370
    33  O   -0.676651
    34  H    0.456056
    35  C   -0.183018
    36  H    0.147419
    37  C   -0.198596
    38  H    0.146264
 Sum of Mulliken charges =   0.00000

 Dipole moment (field-independent basis, Debye):
    X=              1.9012    Y=             -0.0437    Z=             -0.8552  Tot=              2.0852
 Quadrupole moment (field-independent basis, Debye-Ang):
   XX=            -90.6182   YY=           -105.1284   ZZ=           -103.1803
   XY=              1.0231   XZ=             -1.7029   YZ=             -7.7039

 Normal termination of Gaussian 09 at Mon Mar 29 22:53:42 2021.
