 Gaussian 09, Revision D.01,

 -----------------
 #p b3lyp/6-31G(d)
 -----------------

 ----------------------------------------------
 SET_328_BBB292_conf1.geo_075_060_105.n.pdb.xyz
 ----------------------------------------------
 Symbolic Z-matrix:
 Charge =  0 Multiplicity = 1

 SCF Done:  E(RB3LYP) =  -705.216941533     A.U. after   15 cycles
 Normal termination of Gaussian 09 at Mon Mar 29 22:44:30 2021.
 Gaussian 09:  AM64L-G09RevD.01 24-Apr-2013

 ----------------------------------------------------------------------
 #p b3lyp/6-31G(d) scrf=(iefpcm,read,solvent=Water) geom=allcheck guess
 =read
 ----------------------------------------------------------------------

 Structure from the checkpoint file:  "SET_328_BBB292_conf1.geo_075_060_105.n.pdb.xyz.mst.n.w.chk"
 ----------------------------------------------
 SET_328_BBB292_conf1.geo_075_060_105.n.pdb.xyz
 ----------------------------------------------
 Charge =  0 Multiplicity = 1

                         Standard orientation:
 ---------------------------------------------------------------------
 Center     Atomic      Atomic             Coordinates (Angstroms)
 Number     Number       Type             X           Y           Z
 ---------------------------------------------------------------------
      1          7           0        3.580830    1.210921   -0.370731
      2          1           0        4.070297    1.732394    0.356444
      3          1           0        3.479749    1.834792   -1.169149
      4          6           0        2.273638    0.749815    0.116174
      5          6           0        2.478553   -0.631452    0.750119
      6          8           0        3.604705   -1.234005    0.355737
      7          1           0        4.065113   -0.536445   -0.201176
      8          8           0        1.693566   -1.158776    1.515797
      9          1           0        1.844042    1.400338    0.885308
     10          6           0        1.286572    0.659183   -1.073987
     11          1           0        1.708470   -0.027235   -1.815951
     12          1           0        1.271844    1.654283   -1.532738
     13          6           0       -0.120678    0.235233   -0.728610
     14          6           0       -0.992935    1.127615   -0.082531
     15          1           0       -0.654505    2.127038    0.177369
     16          6           0       -2.294845    0.747619    0.224628
     17          8           0       -3.219923    1.542536    0.846448
     18          1           0       -2.843086    2.419172    1.031272
     19          6           0       -2.755248   -0.539099   -0.113387
     20          8           0       -4.035475   -0.912167    0.182826
     21          1           0       -4.478580   -0.155090    0.607396
     22          6           0       -1.898272   -1.425330   -0.756883
     23          1           0       -2.265706   -2.410635   -1.018347
     24          6           0       -0.589465   -1.037152   -1.062467
     25          1           0        0.069652   -1.734350   -1.570101
 ---------------------------------------------------------------------

 SCF Done:  E(RB3LYP) =  -705.252308052     A.U. after   11 cycles

 The electronic state is 1-A.
 Alpha  occ. eigenvalues --  -19.18107 -19.17962 -19.17267 -19.13158 -14.33400
 Alpha  occ. eigenvalues --  -10.31184 -10.24861 -10.24492 -10.23262 -10.19885
 Alpha  occ. eigenvalues --  -10.19447 -10.18875 -10.18617 -10.18427  -1.09280
 Alpha  occ. eigenvalues --   -1.07023  -1.04158  -1.00938  -0.90119  -0.85162
 Alpha  occ. eigenvalues --   -0.77825  -0.74136  -0.71697  -0.65700  -0.63551
 Alpha  occ. eigenvalues --   -0.59116  -0.58389  -0.54606  -0.53889  -0.51671
 Alpha  occ. eigenvalues --   -0.49686  -0.47899  -0.47800  -0.44945  -0.43479
 Alpha  occ. eigenvalues --   -0.43200  -0.43056  -0.42630  -0.40637  -0.39935
 Alpha  occ. eigenvalues --   -0.38735  -0.37460  -0.36431  -0.35616  -0.35036
 Alpha  occ. eigenvalues --   -0.33985  -0.32048  -0.30821  -0.28599  -0.25753
 Alpha  occ. eigenvalues --   -0.23751  -0.20679
 Alpha virt. eigenvalues --    0.00059   0.00968   0.01860   0.07828   0.08591
 Alpha virt. eigenvalues --    0.10248   0.12283   0.13426   0.14025   0.14906
 Alpha virt. eigenvalues --    0.16368   0.17477   0.18655   0.19099   0.19458

 Mulliken charges:
               1
     1  N   -0.808363
     2  H    0.367465
     3  H    0.361128
     4  C   -0.055741
     5  C    0.612560
     6  O   -0.607256
     7  H    0.451877
     8  O   -0.538170
     9  H    0.172660
    10  C   -0.382037
    11  H    0.167762
    12  H    0.175200
    13  C    0.175165
    14  C   -0.269474
    15  H    0.152366
    16  C    0.302772
    17  O   -0.696070
    18  H    0.467541
    19  C    0.309967
    20  O   -0.684047
    21  H    0.456033
    22  C   -0.200877
    23  H    0.147063
    24  C   -0.217469
    25  H    0.139944
 Sum of Mulliken charges =   0.00000

 Dipole moment (field-independent basis, Debye):
    X=              2.2996    Y=              9.3212    Z=             -2.3475  Tot=              9.8836
 Quadrupole moment (field-independent basis, Debye-Ang):
   XX=            -71.9105   YY=            -71.5329   ZZ=            -83.0613
   XY=              7.6673   XZ=             -9.7544   YZ=              8.3112

 Normal termination of Gaussian 09 at Mon Mar 29 22:46:11 2021.
