 Gaussian 09, Revision D.01,

 -----------------
 #p b3lyp/6-31G(d)
 -----------------

 ----------------------------------------------
 SET_328_BBB227_conf1.geo_165_180_240.n.pdb.xyz
 ----------------------------------------------
 Symbolic Z-matrix:
 Charge =  0 Multiplicity = 1

 SCF Done:  E(RB3LYP) =  -1203.26796540     A.U. after   15 cycles
 Normal termination of Gaussian 09 at Sun Jan 24 22:55:12 2021.
 Gaussian 09:  AM64L-G09RevD.01 24-Apr-2013

 ----------------------------------------------------------------------
 #p b3lyp/6-31G(d) scrf=(iefpcm,read,solvent=Water) geom=allcheck guess
 =read
 ----------------------------------------------------------------------

 Structure from the checkpoint file:  "SET_328_BBB227_conf1.geo_165_180_240.n.pdb.xyz.mst.n.w.chk"
 ----------------------------------------------
 SET_328_BBB227_conf1.geo_165_180_240.n.pdb.xyz
 ----------------------------------------------
 Charge =  0 Multiplicity = 1

                         Standard orientation:
 ---------------------------------------------------------------------
 Center     Atomic      Atomic             Coordinates (Angstroms)
 Number     Number       Type             X           Y           Z
 ---------------------------------------------------------------------
      1         16           0       -1.516265    2.410193    0.627963
      2          6           0       -1.073839    0.945834   -0.174252
      3          7           0       -1.999352    0.011412   -0.476566
      4          6           0       -3.393791   -0.029327   -0.031224
      5          6           0       -4.308223   -0.386532   -1.210533
      6          6           0       -5.776028   -0.471307   -0.767699
      7          6           0       -5.960998   -1.453966    0.396276
      8          6           0       -5.041470   -1.102065    1.572284
      9          6           0       -3.573157   -1.018571    1.132296
     10          1           0       -3.227140   -2.009908    0.811034
     11          1           0       -2.936276   -0.712954    1.969690
     12          1           0       -5.145364   -1.840447    2.375330
     13          1           0       -5.347023   -0.135642    1.994218
     14          1           0       -5.732532   -2.471516    0.050483
     15          1           0       -7.007053   -1.460993    0.722123
     16          1           0       -6.400816   -0.763413   -1.618739
     17          1           0       -6.116825    0.525177   -0.456649
     18          1           0       -3.999840   -1.354667   -1.627771
     19          1           0       -4.187475    0.357274   -2.005363
     20          1           0       -3.633957    0.977268    0.318050
     21          1           0       -1.731379   -0.751433   -1.088219
     22          7           0        0.217939    0.670993   -0.513959
     23          6           0        0.661448   -0.647898   -0.991465
     24          6           0        2.028629   -1.022623   -0.408475
     25          1           0        1.921888   -1.190361    0.670139
     26          1           0        2.345066   -1.969643   -0.856295
     27          1           0       -0.054005   -1.404681   -0.674248
     28          1           0        0.697168   -0.653138   -2.089289
     29          6           0        1.210086    1.739356   -0.713541
     30          1           0        0.804614    2.653050   -0.286607
     31          1           0        1.330729    1.891923   -1.796909
     32          6           0        2.563503    1.393632   -0.093585
     33          1           0        2.456777    1.331426    0.996032
     34          1           0        3.263493    2.206896   -0.309138
     35          6           0        3.094302    0.063705   -0.643683
     36          1           0        3.217212    0.172985   -1.731850
     37          6           0        4.427303   -0.331709   -0.072338
     38          6           0        5.112198    0.192074    1.000270
     39          1           0        4.897082    1.000506    1.679944
     40          7           0        6.269344   -0.547677    1.104902
     41          1           0        7.002180   -0.419582    1.793135
     42          6           0        6.248012   -1.475937    0.115850
     43          1           0        7.048414   -2.187931   -0.025834
     44          7           0        5.153135   -1.380624   -0.617485
 ---------------------------------------------------------------------

 SCF Done:  E(RB3LYP) =  -1203.29508481     A.U. after   11 cycles

 The electronic state is 1-A.
 Alpha  occ. eigenvalues --  -88.81848 -14.38363 -14.37427 -14.36871 -14.31347
 Alpha  occ. eigenvalues --  -10.30249 -10.23694 -10.22574 -10.21944 -10.21565
 Alpha  occ. eigenvalues --  -10.20805 -10.20071 -10.19386 -10.18637 -10.18436
 Alpha  occ. eigenvalues --  -10.18081 -10.17791 -10.17781 -10.17677 -10.17517
 Alpha  occ. eigenvalues --   -7.88069  -5.84663  -5.83949  -5.83724  -1.00858
 Alpha  occ. eigenvalues --   -0.99259  -0.92439  -0.86698  -0.82853  -0.81095
 Alpha  occ. eigenvalues --   -0.76902  -0.75472  -0.73978  -0.73116  -0.71286
 Alpha  occ. eigenvalues --   -0.66903  -0.64031  -0.61613  -0.61036  -0.60486
 Alpha  occ. eigenvalues --   -0.58964  -0.57411  -0.56297  -0.54976  -0.54702
 Alpha  occ. eigenvalues --   -0.53193  -0.49087  -0.47006  -0.46050  -0.45432
 Alpha  occ. eigenvalues --   -0.44799  -0.44523  -0.43908  -0.43421  -0.43045
 Alpha  occ. eigenvalues --   -0.42850  -0.41739  -0.41377  -0.40140  -0.39466
 Alpha  occ. eigenvalues --   -0.38579  -0.37668  -0.36841  -0.35839  -0.35367
 Alpha  occ. eigenvalues --   -0.34556  -0.34239  -0.33673  -0.33389  -0.32171
 Alpha  occ. eigenvalues --   -0.31922  -0.31061  -0.30183  -0.27684  -0.27514
 Alpha  occ. eigenvalues --   -0.24068  -0.22302  -0.21609  -0.20916
 Alpha virt. eigenvalues --    0.00087   0.03352   0.06157   0.07615   0.08951
 Alpha virt. eigenvalues --    0.09072   0.10986   0.11012   0.11444   0.12148
 Alpha virt. eigenvalues --    0.13140   0.13551   0.14737   0.15039   0.15217

 Mulliken charges:
               1
     1  S   -0.490128
     2  C    0.379603
     3  N   -0.596476
     4  C    0.043736
     5  C   -0.276091
     6  C   -0.266785
     7  C   -0.260977
     8  C   -0.267269
     9  C   -0.257192
    10  H    0.134714
    11  H    0.143119
    12  H    0.138811
    13  H    0.137454
    14  H    0.134226
    15  H    0.136086
    16  H    0.140021
    17  H    0.138371
    18  H    0.139805
    19  H    0.146147
    20  H    0.169990
    21  H    0.381421
    22  N   -0.407194
    23  C   -0.166834
    24  C   -0.265981
    25  H    0.148330
    26  H    0.158168
    27  H    0.172431
    28  H    0.169610
    29  C   -0.143866
    30  H    0.187444
    31  H    0.156268
    32  C   -0.275316
    33  H    0.150585
    34  H    0.154308
    35  C   -0.163809
    36  H    0.139576
    37  C    0.220454
    38  C   -0.030470
    39  H    0.175031
    40  N   -0.551670
    41  H    0.399724
    42  C    0.202632
    43  H    0.180005
    44  N   -0.558012
 Sum of Mulliken charges =   0.00000

 Dipole moment (field-independent basis, Debye):
    X=              4.4944    Y=             -5.4040    Z=             -0.1179  Tot=              7.0297
 Quadrupole moment (field-independent basis, Debye-Ang):
   XX=            -84.3509   YY=           -142.2476   ZZ=           -124.7595
   XY=             17.7465   XZ=             26.6267   YZ=             -4.9886

 Normal termination of Gaussian 09 at Sun Jan 24 23:00:06 2021.
