 Gaussian 09, Revision D.01,

 -----------------
 #p b3lyp/6-31G(d)
 -----------------

 ---------------------------------------------
 SET_328_BBB20_conf1.geo_090_285_300.n.pdb.xyz
 ---------------------------------------------
 Symbolic Z-matrix:
 Charge =  0 Multiplicity = 1

 SCF Done:  E(RB3LYP) =  -769.345650442     A.U. after   15 cycles
 Normal termination of Gaussian 09 at Sun Jan 24 22:09:53 2021.
 Gaussian 09:  AM64L-G09RevD.01 24-Apr-2013

 ----------------------------------------------------------------------
 #p b3lyp/6-31G(d) scrf=(iefpcm,read,solvent=Water) geom=allcheck guess
 =read
 ----------------------------------------------------------------------

 Structure from the checkpoint file:  "SET_328_BBB20_conf1.geo_090_285_300.n.pdb.xyz.mst.n.w.chk"
 ---------------------------------------------
 SET_328_BBB20_conf1.geo_090_285_300.n.pdb.xyz
 ---------------------------------------------
 Charge =  0 Multiplicity = 1

                         Standard orientation:
 ---------------------------------------------------------------------
 Center     Atomic      Atomic             Coordinates (Angstroms)
 Number     Number       Type             X           Y           Z
 ---------------------------------------------------------------------
      1          7           0        0.116539    3.689649    1.486359
      2          1           0       -0.743606    3.170521    1.307066
      3          1           0        0.052316    4.532134    0.907835
      4          6           0        1.268634    2.893696    1.046794
      5          1           0        1.257415    1.957559    1.613151
      6          1           0        2.179203    3.426840    1.345041
      7          6           0        1.362794    2.584315   -0.457881
      8          1           0        2.295533    2.044693   -0.655233
      9          1           0        1.424133    3.527549   -1.016577
     10          6           0        0.170272    1.805370   -1.022555
     11          1           0        0.264296    1.724388   -2.116225
     12          1           0       -0.738767    2.380370   -0.835239
     13          7           0       -0.017813    0.497368   -0.381424
     14          6           0       -1.334198   -0.046186   -0.357127
     15          6           0       -2.274649    0.415267   -1.301224
     16          1           0       -1.959447    1.130096   -2.049745
     17          6           0       -3.591714   -0.036566   -1.314111
     18          1           0       -4.282386    0.348129   -2.057440
     19          6           0       -4.004187   -0.988270   -0.382401
     20          1           0       -5.025504   -1.354867   -0.372528
     21          6           0       -3.078296   -1.459651    0.544624
     22          1           0       -3.389039   -2.194777    1.281348
     23          6           0       -1.748462   -1.015025    0.591350
     24          6           0       -0.890859   -1.629284    1.688543
     25          1           0       -0.769677   -2.700124    1.479059
     26          1           0       -1.457889   -1.576309    2.626812
     27          6           0        0.503202   -1.032156    1.920828
     28          1           0        0.960120   -1.540073    2.774342
     29          1           0        0.407272    0.028793    2.179082
     30          6           0        1.382370   -1.176003    0.709607
     31          6           0        2.465514   -2.059381    0.671075
     32          1           0        2.688799   -2.654729    1.553578
     33          6           0        3.267510   -2.169330   -0.465980
     34          1           0        4.111229   -2.851996   -0.474858
     35          6           0        2.982301   -1.387939   -1.587873
     36          1           0        3.597961   -1.462180   -2.478804
     37          6           0        1.893909   -0.513940   -1.570281
     38          1           0        1.667371    0.087050   -2.444562
     39          6           0        1.087455   -0.406948   -0.430163
 ---------------------------------------------------------------------

 SCF Done:  E(RB3LYP) =  -769.355706576     A.U. after   10 cycles

 The electronic state is 1-A.
 Alpha  occ. eigenvalues --  -14.34809 -14.30575 -10.22849 -10.22198 -10.21199
 Alpha  occ. eigenvalues --  -10.19901 -10.19514 -10.19173 -10.18949 -10.18810
 Alpha  occ. eigenvalues --  -10.18803 -10.18799 -10.18687 -10.18643 -10.18439
 Alpha  occ. eigenvalues --  -10.18403 -10.18353 -10.18229 -10.17644  -0.94913
 Alpha  occ. eigenvalues --   -0.87111  -0.85425  -0.84326  -0.79736  -0.76022
 Alpha  occ. eigenvalues --   -0.75429  -0.75037  -0.72252  -0.69860  -0.66388
 Alpha  occ. eigenvalues --   -0.64525  -0.60962  -0.60073  -0.58298  -0.57327
 Alpha  occ. eigenvalues --   -0.56024  -0.51550  -0.50596  -0.49001  -0.47453
 Alpha  occ. eigenvalues --   -0.47012  -0.46643  -0.45373  -0.45046  -0.43660
 Alpha  occ. eigenvalues --   -0.43271  -0.42570  -0.41521  -0.40774  -0.39853
 Alpha  occ. eigenvalues --   -0.39256  -0.38529  -0.37766  -0.37276  -0.35891
 Alpha  occ. eigenvalues --   -0.35510  -0.34916  -0.33934  -0.33842  -0.33401
 Alpha  occ. eigenvalues --   -0.32830  -0.32624  -0.28840  -0.24859  -0.24357
 Alpha  occ. eigenvalues --   -0.23766  -0.23292  -0.19740
 Alpha virt. eigenvalues --   -0.00747  -0.00039   0.00309   0.00773   0.08135
 Alpha virt. eigenvalues --    0.09571   0.10507   0.10931   0.12184   0.12831
 Alpha virt. eigenvalues --    0.13567   0.13874   0.14757   0.15143   0.16158

 Mulliken charges:
               1
     1  N   -0.770396
     2  H    0.326087
     3  H    0.323582
     4  C   -0.150302
     5  H    0.156322
     6  H    0.139933
     7  C   -0.283142
     8  H    0.144036
     9  H    0.141784
    10  C   -0.153078
    11  H    0.149199
    12  H    0.156870
    13  N   -0.572149
    14  C    0.228796
    15  C   -0.195640
    16  H    0.152529
    17  C   -0.169829
    18  H    0.145324
    19  C   -0.150826
    20  H    0.141890
    21  C   -0.219600
    22  H    0.139320
    23  C    0.146811
    24  C   -0.343684
    25  H    0.161171
    26  H    0.160253
    27  C   -0.356988
    28  H    0.150665
    29  H    0.167854
    30  C    0.153138
    31  C   -0.233011
    32  H    0.143867
    33  C   -0.144057
    34  H    0.145310
    35  C   -0.169869
    36  H    0.148315
    37  C   -0.169574
    38  H    0.150669
    39  C    0.208416
 Sum of Mulliken charges =   0.00000

 Dipole moment (field-independent basis, Debye):
    X=              0.2473    Y=              0.3013    Z=             -1.7107  Tot=              1.7545
 Quadrupole moment (field-independent basis, Debye-Ang):
   XX=           -107.9502   YY=           -109.0088   ZZ=           -111.6975
   XY=             -2.5533   XZ=             -1.7134   YZ=            -14.4568

 Normal termination of Gaussian 09 at Sun Jan 24 22:14:05 2021.
