 Gaussian 09, Revision D.01,

 -----------------
 #p b3lyp/6-31G(d)
 -----------------

 ----------------------------------------------
 SET_328_BBB321_conf1.geo_180_150_120.n.pdb.xyz
 ----------------------------------------------
 Symbolic Z-matrix:
 Charge =  0 Multiplicity = 1

 SCF Done:  E(RB3LYP) =  -1212.31165718     A.U. after   16 cycles
 Normal termination of Gaussian 09 at Thu Jan 28 04:43:35 2021.
 Gaussian 09:  AM64L-G09RevD.01 24-Apr-2013

 ----------------------------------------------------------------------
 #p b3lyp/6-31G(d) scrf=(iefpcm,read,solvent=Water) geom=allcheck guess
 =read
 ----------------------------------------------------------------------

 Structure from the checkpoint file:  "SET_328_BBB321_conf1.geo_180_150_120.n.pdb.xyz.mst.n.w.chk"
 ----------------------------------------------
 SET_328_BBB321_conf1.geo_180_150_120.n.pdb.xyz
 ----------------------------------------------
 Charge =  0 Multiplicity = 1

                         Standard orientation:
 ---------------------------------------------------------------------
 Center     Atomic      Atomic             Coordinates (Angstroms)
 Number     Number       Type             X           Y           Z
 ---------------------------------------------------------------------
      1          6           0       -6.413773    1.187269    0.259524
      2          1           0       -6.143369    2.088952   -0.296490
      3          1           0       -6.503410    1.457957    1.316880
      4          1           0       -7.380769    0.821864   -0.085895
      5          6           0       -5.386408    0.080639    0.100535
      6          8           0       -5.712888   -1.105481    0.034650
      7          7           0       -4.089933    0.521207    0.066665
      8          1           0       -3.961699    1.524750    0.136338
      9          6           0       -2.899344   -0.226999   -0.026479
     10          6           0       -2.876280   -1.625946   -0.143761
     11          6           0       -1.647458   -2.277550   -0.231682
     12          6           0       -0.447065   -1.571889   -0.209445
     13          1           0        0.502087   -2.087111   -0.284773
     14          1           0       -1.630824   -3.359487   -0.322351
     15          1           0       -3.806021   -2.172866   -0.160939
     16          6           0       -1.692640    0.482714   -0.001118
     17          1           0       -1.718602    1.562532    0.103782
     18          6           0       -0.460314   -0.173127   -0.095104
     19          6           0        0.806025    0.582734   -0.081052
     20          7           0        2.003677   -0.113092   -0.012788
     21          6           0        0.925008    1.944969   -0.141335
     22          1           0        0.143062    2.685605   -0.217914
     23         16           0        2.597895    2.412215   -0.108466
     24          6           0        3.052393    0.688561   -0.014476
     25          7           0        4.373983    0.414577    0.044715
     26          6           0        4.808313   -0.841185    0.133100
     27          7           0        6.151456   -1.021229    0.269878
     28          1           0        6.730367   -0.223794    0.038307
     29          1           0        6.543111   -1.928179    0.043580
     30          7           0        4.032286   -1.939658    0.121910
     31          1           0        4.426953   -2.853103    0.313479
     32          1           0        3.024877   -1.802488    0.149352
 ---------------------------------------------------------------------

 SCF Done:  E(RB3LYP) =  -1212.34582088     A.U. after   11 cycles

 The electronic state is 1-A.
 Alpha  occ. eigenvalues --  -88.90276 -19.12434 -14.37511 -14.35176 -14.34975
 Alpha  occ. eigenvalues --  -14.32510 -14.31221 -10.30794 -10.29949 -10.27801
 Alpha  occ. eigenvalues --  -10.23967 -10.22538 -10.20798 -10.20520 -10.19308
 Alpha  occ. eigenvalues --  -10.19174 -10.18746 -10.18557 -10.18532  -7.96461
 Alpha  occ. eigenvalues --   -5.92851  -5.92517  -5.92141  -1.04036  -0.99855
 Alpha  occ. eigenvalues --   -0.95578  -0.94206  -0.87952  -0.87725  -0.85146
 Alpha  occ. eigenvalues --   -0.78956  -0.77469  -0.76033  -0.72280  -0.70949
 Alpha  occ. eigenvalues --   -0.64437  -0.62562  -0.62307  -0.58928  -0.57993
 Alpha  occ. eigenvalues --   -0.55613  -0.54019  -0.53479  -0.51300  -0.49402
 Alpha  occ. eigenvalues --   -0.48608  -0.47326  -0.47143  -0.45265  -0.44750
 Alpha  occ. eigenvalues --   -0.43823  -0.43598  -0.42619  -0.41024  -0.40574
 Alpha  occ. eigenvalues --   -0.40308  -0.39907  -0.39156  -0.37482  -0.36384
 Alpha  occ. eigenvalues --   -0.36048  -0.34207  -0.31775  -0.29693  -0.28317
 Alpha  occ. eigenvalues --   -0.28264  -0.27507  -0.26976  -0.25858  -0.24886
 Alpha  occ. eigenvalues --   -0.22314  -0.19549
 Alpha virt. eigenvalues --   -0.03436  -0.01673  -0.00517   0.02340   0.03504
 Alpha virt. eigenvalues --    0.07244   0.08750   0.09167   0.10002   0.10247
 Alpha virt. eigenvalues --    0.11487   0.13046   0.13694   0.14075   0.14672

 Mulliken charges:
               1
     1  C   -0.543434
     2  H    0.182033
     3  H    0.197399
     4  H    0.182668
     5  C    0.594557
     6  O   -0.556027
     7  N   -0.705625
     8  H    0.389478
     9  C    0.344710
    10  C   -0.180382
    11  C   -0.166453
    12  C   -0.196320
    13  H    0.154841
    14  H    0.150444
    15  H    0.168335
    16  C   -0.277659
    17  H    0.157945
    18  C    0.106453
    19  C    0.277114
    20  N   -0.585184
    21  C   -0.431963
    22  H    0.198863
    23  S    0.182492
    24  C    0.305209
    25  N   -0.617253
    26  C    0.664084
    27  N   -0.772844
    28  H    0.382548
    29  H    0.386932
    30  N   -0.784180
    31  H    0.391035
    32  H    0.400184
 Sum of Mulliken charges =   0.00000

 Dipole moment (field-independent basis, Debye):
    X=              4.6049    Y=             -0.3601    Z=              0.1979  Tot=              4.6232
 Quadrupole moment (field-independent basis, Debye-Ang):
   XX=            -83.4172   YY=            -98.9679   ZZ=           -121.6868
   XY=            -53.3774   XZ=             -4.3703   YZ=              0.0736

 Normal termination of Gaussian 09 at Thu Jan 28 04:46:27 2021.
