 Gaussian 09, Revision D.01,

 -----------------
 #p b3lyp/6-31G(d)
 -----------------

 ----------------------------------------------
 SET_328_BBB321_conf1.geo_195_330_315.n.pdb.xyz
 ----------------------------------------------
 Symbolic Z-matrix:
 Charge =  0 Multiplicity = 1

 SCF Done:  E(RB3LYP) =  -1212.31336183     A.U. after   15 cycles
 Normal termination of Gaussian 09 at Thu Jan 28 04:51:31 2021.
 Gaussian 09:  AM64L-G09RevD.01 24-Apr-2013

 ----------------------------------------------------------------------
 #p b3lyp/6-31G(d) scrf=(iefpcm,read,solvent=Water) geom=allcheck guess
 =read
 ----------------------------------------------------------------------

 Structure from the checkpoint file:  "SET_328_BBB321_conf1.geo_195_330_315.n.pdb.xyz.mst.n.w.chk"
 ----------------------------------------------
 SET_328_BBB321_conf1.geo_195_330_315.n.pdb.xyz
 ----------------------------------------------
 Charge =  0 Multiplicity = 1

                         Standard orientation:
 ---------------------------------------------------------------------
 Center     Atomic      Atomic             Coordinates (Angstroms)
 Number     Number       Type             X           Y           Z
 ---------------------------------------------------------------------
      1          6           0       -4.586121    2.876481   -0.084809
      2          1           0       -4.426379    3.628154   -0.859793
      3          1           0       -4.626446    3.397664    0.875919
      4          1           0       -5.545464    2.383075   -0.255478
      5          6           0       -3.399533    1.931808   -0.075359
      6          8           0       -2.244659    2.361523   -0.080795
      7          7           0       -3.719670    0.601074   -0.043009
      8          1           0       -4.711163    0.379789   -0.035443
      9          6           0       -2.865660   -0.519188    0.008123
     10          6           0       -3.470399   -1.781947    0.093867
     11          6           0       -2.677511   -2.926504    0.146622
     12          6           0       -1.288419   -2.834125    0.116694
     13          1           0       -0.685729   -3.733464    0.168453
     14          1           0       -3.152860   -3.899587    0.216819
     15          1           0       -4.551637   -1.863962    0.122470
     16          6           0       -1.468010   -0.420925   -0.026720
     17          1           0       -1.004314    0.549816   -0.098849
     18          6           0       -0.672980   -1.575251    0.027024
     19          6           0        0.796365   -1.445021   -0.015218
     20          7           0        1.368847   -0.182173    0.016342
     21          6           0        1.683060   -2.485229   -0.090516
     22          1           0        1.471855   -3.541746   -0.139649
     23         16           0        3.316290   -1.895486   -0.123800
     24          6           0        2.687218   -0.225388   -0.030877
     25          7           0        3.605909    0.765304   -0.018950
     26          6           0        3.234900    2.040901    0.070182
     27          7           0        4.228594    2.968825    0.155072
     28          1           0        5.150990    2.650810   -0.113833
     29          1           0        4.011915    3.931878   -0.073269
     30          7           0        1.964926    2.487324    0.108540
     31          1           0        1.223365    1.793768    0.168652
     32          1           0        1.764796    3.463244    0.291108
 ---------------------------------------------------------------------

 SCF Done:  E(RB3LYP) =  -1212.34582157     A.U. after   12 cycles

 The electronic state is 1-A.
 Alpha  occ. eigenvalues --  -88.90235 -19.12182 -14.37583 -14.35159 -14.34956
 Alpha  occ. eigenvalues --  -14.32459 -14.31216 -10.30792 -10.29852 -10.27778
 Alpha  occ. eigenvalues --  -10.23870 -10.22449 -10.20730 -10.20409 -10.19392
 Alpha  occ. eigenvalues --  -10.19209 -10.18815 -10.18748 -10.18391  -7.96419
 Alpha  occ. eigenvalues --   -5.92808  -5.92475  -5.92099  -1.03897  -0.99800
 Alpha  occ. eigenvalues --   -0.95514  -0.94121  -0.87915  -0.87685  -0.85097
 Alpha  occ. eigenvalues --   -0.78903  -0.77540  -0.75760  -0.72380  -0.70943
 Alpha  occ. eigenvalues --   -0.64448  -0.63060  -0.61651  -0.58533  -0.58065
 Alpha  occ. eigenvalues --   -0.56224  -0.54399  -0.52672  -0.51036  -0.49410
 Alpha  occ. eigenvalues --   -0.48410  -0.47770  -0.47089  -0.45204  -0.45015
 Alpha  occ. eigenvalues --   -0.43749  -0.43444  -0.42162  -0.41098  -0.40647
 Alpha  occ. eigenvalues --   -0.40320  -0.39806  -0.39140  -0.37636  -0.35917
 Alpha  occ. eigenvalues --   -0.35611  -0.34749  -0.31787  -0.29475  -0.28359
 Alpha  occ. eigenvalues --   -0.28278  -0.27488  -0.26957  -0.25685  -0.24620
 Alpha  occ. eigenvalues --   -0.22589  -0.19424
 Alpha virt. eigenvalues --   -0.03463  -0.01310  -0.00939   0.02356   0.03803
 Alpha virt. eigenvalues --    0.07333   0.08653   0.09225   0.09864   0.10221
 Alpha virt. eigenvalues --    0.11738   0.13004   0.13598   0.14172   0.14393

 Mulliken charges:
               1
     1  C   -0.541985
     2  H    0.188600
     3  H    0.194855
     4  H    0.175309
     5  C    0.601994
     6  O   -0.558021
     7  N   -0.713977
     8  H    0.387867
     9  C    0.345403
    10  C   -0.206744
    11  C   -0.160079
    12  C   -0.205024
    13  H    0.148540
    14  H    0.153274
    15  H    0.157168
    16  C   -0.249529
    17  H    0.187844
    18  C    0.098046
    19  C    0.278573
    20  N   -0.583677
    21  C   -0.432143
    22  H    0.198477
    23  S    0.180981
    24  C    0.303891
    25  N   -0.616860
    26  C    0.663688
    27  N   -0.772579
    28  H    0.382363
    29  H    0.387021
    30  N   -0.787742
    31  H    0.403385
    32  H    0.391080
 Sum of Mulliken charges =   0.00000

 Dipole moment (field-independent basis, Debye):
    X=             -4.8905    Y=              4.3294    Z=             -0.1465  Tot=              6.5331
 Quadrupole moment (field-independent basis, Debye-Ang):
   XX=            -77.3964   YY=            -84.5264   ZZ=           -121.6910
   XY=             19.0582   XZ=             -3.1707   YZ=             -0.9812

 Normal termination of Gaussian 09 at Thu Jan 28 04:54:46 2021.
