 Gaussian 09, Revision D.01,

 -----------------
 #p b3lyp/6-31G(d)
 -----------------

 ---------------------------------------------
 SET_328_BBB30_conf1.geo_285_180_285.n.pdb.xyz
 ---------------------------------------------
 Symbolic Z-matrix:
 Charge =  0 Multiplicity = 1

 SCF Done:  E(RB3LYP) =  -444.843463817     A.U. after   14 cycles
 Normal termination of Gaussian 09 at Sun Jan 24 23:15:48 2021.
 Gaussian 09:  AM64L-G09RevD.01 24-Apr-2013

 ----------------------------------------------------------------------
 #p b3lyp/6-31G(d) scrf=(iefpcm,read,solvent=Water) geom=allcheck guess
 =read
 ----------------------------------------------------------------------

 Structure from the checkpoint file:  "SET_328_BBB30_conf1.geo_285_180_285.n.pdb.xyz.mst.n.w.chk"
 ---------------------------------------------
 SET_328_BBB30_conf1.geo_285_180_285.n.pdb.xyz
 ---------------------------------------------
 Charge =  0 Multiplicity = 1

                         Standard orientation:
 ---------------------------------------------------------------------
 Center     Atomic      Atomic             Coordinates (Angstroms)
 Number     Number       Type             X           Y           Z
 ---------------------------------------------------------------------
      1          6           0        3.533842   -1.206825   -0.266575
      2          1           0        3.011963   -1.663899   -1.123777
      3          1           0        3.381331   -1.860296    0.598839
      4          1           0        4.603402   -1.198339   -0.495181
      5          7           0        3.109226    0.147869    0.070878
      6          1           0        3.328145    0.772088   -0.707891
      7          6           0        1.684657    0.291933    0.401344
      8          6           0        1.458633    1.685166    0.991717
      9          1           0        2.094602    1.838445    1.868321
     10          1           0        0.416513    1.827302    1.288391
     11          1           0        1.703853    2.460395    0.255024
     12          1           0        1.469867   -0.458479    1.174971
     13          6           0        0.735970    0.019729   -0.803482
     14          1           0        1.049010   -0.916422   -1.282045
     15          1           0        0.879591    0.818887   -1.541561
     16          6           0       -0.725957   -0.079794   -0.437116
     17          6           0       -1.221472   -1.218693    0.216936
     18          1           0       -0.546422   -2.039987    0.439423
     19          6           0       -2.565160   -1.314281    0.576217
     20          1           0       -2.927147   -2.206104    1.078593
     21          6           0       -3.446855   -0.269294    0.284980
     22          1           0       -4.493716   -0.344919    0.560683
     23          6           0       -2.970170    0.867828   -0.368581
     24          1           0       -3.645492    1.683170   -0.604688
     25          6           0       -1.622161    0.958728   -0.723698
     26          1           0       -1.258040    1.846100   -1.235698
 ---------------------------------------------------------------------

 SCF Done:  E(RB3LYP) =  -444.849975047     A.U. after   10 cycles

 The electronic state is 1-A.
 Alpha  occ. eigenvalues --  -14.31199 -10.21067 -10.19540 -10.19485 -10.18888
 Alpha  occ. eigenvalues --  -10.18858 -10.18709 -10.18611 -10.18602 -10.17977
 Alpha  occ. eigenvalues --  -10.16805  -0.89671  -0.85310  -0.77962  -0.74188
 Alpha  occ. eigenvalues --   -0.73682  -0.67733  -0.65244  -0.60414  -0.59144
 Alpha  occ. eigenvalues --   -0.56878  -0.50922  -0.47088  -0.46240  -0.45595
 Alpha  occ. eigenvalues --   -0.44635  -0.42573  -0.42153  -0.41527  -0.39771
 Alpha  occ. eigenvalues --   -0.37888  -0.37341  -0.36599  -0.35108  -0.34196
 Alpha  occ. eigenvalues --   -0.33901  -0.33202  -0.32543  -0.25078  -0.24845
 Alpha  occ. eigenvalues --   -0.21318
 Alpha virt. eigenvalues --   -0.00242   0.00021   0.09193   0.10185   0.11170
 Alpha virt. eigenvalues --    0.12748   0.13758   0.15168   0.15557   0.15988
 Alpha virt. eigenvalues --    0.16909   0.17344   0.17747   0.18545   0.18637

 Mulliken charges:
               1
     1  C   -0.311015
     2  H    0.132837
     3  H    0.152056
     4  H    0.153403
     5  N   -0.578520
     6  H    0.324118
     7  C    0.044003
     8  C   -0.454194
     9  H    0.146845
    10  H    0.150637
    11  H    0.143170
    12  H    0.133535
    13  C   -0.366545
    14  H    0.154667
    15  H    0.143454
    16  C    0.169412
    17  C   -0.201027
    18  H    0.141350
    19  C   -0.150426
    20  H    0.146956
    21  C   -0.154933
    22  H    0.146129
    23  C   -0.150056
    24  H    0.146879
    25  C   -0.203464
    26  H    0.140729
 Sum of Mulliken charges =   0.00000

 Dipole moment (field-independent basis, Debye):
    X=             -0.0177    Y=             -0.1929    Z=             -1.2346  Tot=              1.2497
 Quadrupole moment (field-independent basis, Debye-Ang):
   XX=            -66.1669   YY=            -63.6230   ZZ=            -68.8313
   XY=             -1.7007   XZ=             -6.2031   YZ=             -3.9431

 Normal termination of Gaussian 09 at Sun Jan 24 23:16:50 2021.
