 Gaussian 09, Revision D.01,

 -----------------
 #p b3lyp/6-31G(d)
 -----------------

 ----------------------------------------------
 SET_328_BBB321_conf1.geo_180_030_240.n.pdb.xyz
 ----------------------------------------------
 Symbolic Z-matrix:
 Charge =  0 Multiplicity = 1

 SCF Done:  E(RB3LYP) =  -1212.31172345     A.U. after   16 cycles
 Normal termination of Gaussian 09 at Thu Jan 28 04:43:55 2021.
 Gaussian 09:  AM64L-G09RevD.01 24-Apr-2013

 ----------------------------------------------------------------------
 #p b3lyp/6-31G(d) scrf=(iefpcm,read,solvent=Water) geom=allcheck guess
 =read
 ----------------------------------------------------------------------

 Structure from the checkpoint file:  "SET_328_BBB321_conf1.geo_180_030_240.n.pdb.xyz.mst.n.w.chk"
 ----------------------------------------------
 SET_328_BBB321_conf1.geo_180_030_240.n.pdb.xyz
 ----------------------------------------------
 Charge =  0 Multiplicity = 1

                         Standard orientation:
 ---------------------------------------------------------------------
 Center     Atomic      Atomic             Coordinates (Angstroms)
 Number     Number       Type             X           Y           Z
 ---------------------------------------------------------------------
      1          6           0        4.963929    2.760437    0.170116
      2          1           0        4.110735    3.407315    0.376793
      3          1           0        5.422962    3.073765   -0.772760
      4          1           0        5.710418    2.886862    0.956426
      5          6           0        4.603241    1.291017    0.074247
      6          8           0        5.473495    0.422905   -0.013023
      7          7           0        3.260269    1.030612    0.081909
      8          1           0        2.648996    1.837492    0.158284
      9          6           0        2.597137   -0.209015   -0.008356
     10          6           0        3.262476   -1.436281   -0.133950
     11          6           0        2.507640   -2.609136   -0.212308
     12          6           0        1.119087   -2.583367   -0.168907
     13          1           0        0.557490   -3.508465   -0.243256
     14          1           0        3.022188   -3.558493   -0.314189
     15          1           0        4.340475   -1.457937   -0.169018
     16          6           0        1.195349   -0.181302    0.035246
     17          1           0        0.676161    0.763956    0.134968
     18          6           0        0.444349   -1.358076   -0.041133
     19          6           0       -1.026679   -1.295242    0.018793
     20          7           0       -1.657675   -0.060463   -0.014955
     21          6           0       -1.862195   -2.374890    0.118784
     22          1           0       -1.599695   -3.420248    0.179425
     23         16           0       -3.519721   -1.861380    0.169706
     24          6           0       -2.970924   -0.165177    0.050478
     25          7           0       -3.935462    0.780727    0.037509
     26          6           0       -3.629033    2.071128   -0.080215
     27          7           0       -2.382653    2.577294   -0.134384
     28          1           0       -1.612221    1.917188   -0.205296
     29          1           0       -2.234605    3.551860   -0.366598
     30          7           0       -4.666714    2.947767   -0.174520
     31          1           0       -5.570729    2.589938    0.107630
     32          1           0       -4.495221    3.923473    0.040797
 ---------------------------------------------------------------------

 SCF Done:  E(RB3LYP) =  -1212.34624856     A.U. after   12 cycles

 The electronic state is 1-A.
 Alpha  occ. eigenvalues --  -88.90293 -19.12237 -14.37610 -14.35191 -14.35010
 Alpha  occ. eigenvalues --  -14.32561 -14.31259 -10.30824 -10.29877 -10.27843
 Alpha  occ. eigenvalues --  -10.23890 -10.22538 -10.20811 -10.20532 -10.19234
 Alpha  occ. eigenvalues --  -10.19083 -10.18809 -10.18747 -10.18577  -7.96478
 Alpha  occ. eigenvalues --   -5.92867  -5.92534  -5.92158  -1.03952  -0.99876
 Alpha  occ. eigenvalues --   -0.95625  -0.94204  -0.87984  -0.87750  -0.85170
 Alpha  occ. eigenvalues --   -0.78995  -0.77520  -0.75939  -0.72486  -0.70861
 Alpha  occ. eigenvalues --   -0.64408  -0.63379  -0.61188  -0.59354  -0.58114
 Alpha  occ. eigenvalues --   -0.55709  -0.54501  -0.52810  -0.51024  -0.49527
 Alpha  occ. eigenvalues --   -0.48545  -0.47805  -0.47105  -0.45228  -0.44772
 Alpha  occ. eigenvalues --   -0.43842  -0.43606  -0.42455  -0.41097  -0.40701
 Alpha  occ. eigenvalues --   -0.40397  -0.39880  -0.39178  -0.37621  -0.35966
 Alpha  occ. eigenvalues --   -0.35495  -0.34891  -0.31723  -0.29612  -0.28449
 Alpha  occ. eigenvalues --   -0.28311  -0.27566  -0.27029  -0.25824  -0.24654
 Alpha  occ. eigenvalues --   -0.22583  -0.19517
 Alpha virt. eigenvalues --   -0.03482  -0.01269  -0.01025   0.02310   0.03548
 Alpha virt. eigenvalues --    0.07441   0.08431   0.09396   0.09731   0.10210
 Alpha virt. eigenvalues --    0.11642   0.13014   0.13568   0.13958   0.14483

 Mulliken charges:
               1
     1  C   -0.542918
     2  H    0.175303
     3  H    0.194228
     4  H    0.189652
     5  C    0.604276
     6  O   -0.561953
     7  N   -0.710923
     8  H    0.389076
     9  C    0.349678
    10  C   -0.180379
    11  C   -0.169180
    12  C   -0.201489
    13  H    0.148577
    14  H    0.151528
    15  H    0.168134
    16  C   -0.274388
    17  H    0.165479
    18  C    0.105376
    19  C    0.276812
    20  N   -0.583893
    21  C   -0.430334
    22  H    0.199172
    23  S    0.183322
    24  C    0.304811
    25  N   -0.616548
    26  C    0.662079
    27  N   -0.783518
    28  H    0.399786
    29  H    0.390445
    30  N   -0.771887
    31  H    0.382484
    32  H    0.387192
 Sum of Mulliken charges =   0.00000

 Dipole moment (field-independent basis, Debye):
    X=             -3.5632    Y=              9.4402    Z=              0.3550  Tot=             10.0965
 Quadrupole moment (field-independent basis, Debye-Ang):
   XX=           -135.4449   YY=            -71.6653   ZZ=           -121.4948
   XY=            -12.3988   XZ=             -1.6084   YZ=              1.2777

 Normal termination of Gaussian 09 at Thu Jan 28 04:47:02 2021.
