 Gaussian 09, Revision D.01,

 -----------------
 #p b3lyp/6-31G(d)
 -----------------

 ----------------------------------------------
 SET_328_BBB292_conf1.geo_270_300_120.n.pdb.xyz
 ----------------------------------------------
 Symbolic Z-matrix:
 Charge =  0 Multiplicity = 1

 SCF Done:  E(RB3LYP) =  -705.225168999     A.U. after   15 cycles
 Normal termination of Gaussian 09 at Mon Mar 29 22:45:42 2021.
 Gaussian 09:  AM64L-G09RevD.01 24-Apr-2013

 ----------------------------------------------------------------------
 #p b3lyp/6-31G(d) scrf=(iefpcm,read,solvent=Water) geom=allcheck guess
 =read
 ----------------------------------------------------------------------

 Structure from the checkpoint file:  "SET_328_BBB292_conf1.geo_270_300_120.n.pdb.xyz.mst.n.w.chk"
 ----------------------------------------------
 SET_328_BBB292_conf1.geo_270_300_120.n.pdb.xyz
 ----------------------------------------------
 Charge =  0 Multiplicity = 1

                         Standard orientation:
 ---------------------------------------------------------------------
 Center     Atomic      Atomic             Coordinates (Angstroms)
 Number     Number       Type             X           Y           Z
 ---------------------------------------------------------------------
      1          7           0       -2.022461    1.669137    0.846726
      2          1           0       -2.261451    2.641046    0.660281
      3          1           0       -1.022539    1.633826    1.044358
      4          6           0       -2.358381    0.813107   -0.298400
      5          6           0       -2.852837   -0.542409    0.241514
      6          8           0       -3.086979   -0.540064    1.553555
      7          1           0       -2.825072    0.387161    1.839585
      8          8           0       -3.053014   -1.521290   -0.454500
      9          1           0       -3.234150    1.250165   -0.790167
     10          6           0       -1.263069    0.633871   -1.377469
     11          1           0       -1.136621    1.595484   -1.883019
     12          1           0       -1.651282   -0.074467   -2.113995
     13          6           0        0.073836    0.159196   -0.848536
     14          6           0        1.076915    1.090211   -0.532668
     15          1           0        0.916627    2.151594   -0.692036
     16          6           0        2.306247    0.675287   -0.027337
     17          8           0        3.269459    1.597248    0.269278
     18          1           0        4.050568    1.113279    0.591694
     19          6           0        2.555534   -0.694104    0.171531
     20          8           0        3.795955   -0.992785    0.669824
     21          1           0        3.892040   -1.956177    0.769219
     22          6           0        1.570114   -1.625643   -0.142637
     23          1           0        1.768443   -2.682909    0.004010
     24          6           0        0.337864   -1.201211   -0.648268
     25          1           0       -0.420041   -1.937664   -0.888657
 ---------------------------------------------------------------------

 SCF Done:  E(RB3LYP) =  -705.255038855     A.U. after   11 cycles

 The electronic state is 1-A.
 Alpha  occ. eigenvalues --  -19.18169 -19.18079 -19.17412 -19.13288 -14.33419
 Alpha  occ. eigenvalues --  -10.31362 -10.24834 -10.24703 -10.23312 -10.19496
 Alpha  occ. eigenvalues --  -10.19186 -10.19096 -10.18698 -10.18421  -1.09465
 Alpha  occ. eigenvalues --   -1.07106  -1.04270  -1.01106  -0.90064  -0.85127
 Alpha  occ. eigenvalues --   -0.77468  -0.74371  -0.71992  -0.65881  -0.62458
 Alpha  occ. eigenvalues --   -0.60282  -0.58496  -0.54591  -0.53839  -0.51757
 Alpha  occ. eigenvalues --   -0.49306  -0.47962  -0.46790  -0.45251  -0.43863
 Alpha  occ. eigenvalues --   -0.43733  -0.42936  -0.42540  -0.41041  -0.39867
 Alpha  occ. eigenvalues --   -0.38312  -0.37939  -0.36514  -0.35611  -0.34719
 Alpha  occ. eigenvalues --   -0.33845  -0.32198  -0.30935  -0.29066  -0.25481
 Alpha  occ. eigenvalues --   -0.24022  -0.20813
 Alpha virt. eigenvalues --   -0.00052   0.00775   0.01629   0.07630   0.08978
 Alpha virt. eigenvalues --    0.11198   0.12766   0.13764   0.14110   0.15527
 Alpha virt. eigenvalues --    0.16546   0.17674   0.18343   0.18908   0.19559

 Mulliken charges:
               1
     1  N   -0.806124
     2  H    0.368346
     3  H    0.354269
     4  C   -0.074047
     5  C    0.622185
     6  O   -0.605495
     7  H    0.452736
     8  O   -0.542602
     9  H    0.198913
    10  C   -0.356400
    11  H    0.162757
    12  H    0.168133
    13  C    0.137535
    14  C   -0.262192
    15  H    0.145711
    16  C    0.316046
    17  O   -0.683081
    18  H    0.455536
    19  C    0.296995
    20  O   -0.695086
    21  H    0.468078
    22  C   -0.209394
    23  H    0.157500
    24  C   -0.216981
    25  H    0.146662
 Sum of Mulliken charges =   0.00000

 Dipole moment (field-independent basis, Debye):
    X=              3.6693    Y=              3.1748    Z=              0.6811  Tot=              4.8997
 Quadrupole moment (field-independent basis, Debye-Ang):
   XX=            -80.5103   YY=            -72.9379   ZZ=            -82.4195
   XY=            -28.3858   XZ=              5.8330   YZ=             -1.4747

 Normal termination of Gaussian 09 at Mon Mar 29 22:47:23 2021.
