 Gaussian 09, Revision D.01,

 -----------------
 #p b3lyp/6-31G(d)
 -----------------

 ----------------------------------------------
 SET_328_BBB301_conf1.geo_090_105_255.n.pdb.xyz
 ----------------------------------------------
 Symbolic Z-matrix:
 Charge =  0 Multiplicity = 1

 SCF Done:  E(RB3LYP) =  -788.423114247     A.U. after   14 cycles
 Normal termination of Gaussian 09 at Mon Mar 29 22:48:29 2021.
 Gaussian 09:  AM64L-G09RevD.01 24-Apr-2013

 ----------------------------------------------------------------------
 #p b3lyp/6-31G(d) scrf=(iefpcm,read,solvent=Water) geom=allcheck guess
 =read
 ----------------------------------------------------------------------

 Structure from the checkpoint file:  "SET_328_BBB301_conf1.geo_090_105_255.n.pdb.xyz.mst.n.w.chk"
 ----------------------------------------------
 SET_328_BBB301_conf1.geo_090_105_255.n.pdb.xyz
 ----------------------------------------------
 Charge =  0 Multiplicity = 1

                         Standard orientation:
 ---------------------------------------------------------------------
 Center     Atomic      Atomic             Coordinates (Angstroms)
 Number     Number       Type             X           Y           Z
 ---------------------------------------------------------------------
      1          6           0        3.935964   -0.040774    1.905152
      2          1           0        4.054208   -1.127605    1.858393
      3          1           0        3.156658    0.186731    2.639304
      4          1           0        4.872543    0.394118    2.263463
      5          6           0        3.570415    0.522795    0.526280
      6          6           0        3.402380    2.050188    0.619169
      7          1           0        4.337079    2.531923    0.926486
      8          1           0        2.630401    2.310730    1.352355
      9          1           0        3.107099    2.472766   -0.344950
     10          6           0        4.680696    0.173484   -0.475629
     11          1           0        5.634167    0.587366   -0.137300
     12          1           0        4.478103    0.581593   -1.469596
     13          1           0        4.787310   -0.912516   -0.565575
     14          7           0        2.308210   -0.145962    0.121581
     15          1           0        1.636066   -0.032763    0.881545
     16          6           0        1.677594    0.307839   -1.120223
     17          1           0        2.441750    0.345434   -1.900003
     18          1           0        1.221123    1.304466   -1.054000
     19          6           0        0.621264   -0.744433   -1.535620
     20          8           0        1.231657   -2.027307   -1.481527
     21          1           0        1.876143   -1.936017   -0.744104
     22          1           0        0.348193   -0.556802   -2.581399
     23          6           0       -0.643917   -0.675601   -0.681434
     24          6           0       -1.512889    0.420275   -0.773066
     25          1           0       -1.289970    1.228115   -1.466832
     26          6           0       -2.671360    0.522994   -0.002329
     27          6           0       -3.601023    1.702333   -0.156407
     28          8           0       -4.802470    1.384174   -0.868687
     29          1           0       -4.532329    1.073020   -1.748741
     30          1           0       -3.061548    2.521309   -0.651274
     31          1           0       -3.933707    2.056593    0.822734
     32          6           0       -2.972946   -0.519848    0.896307
     33          8           0       -4.105915   -0.393126    1.645147
     34          1           0       -4.179367   -1.151431    2.252633
     35          6           0       -2.121851   -1.621410    0.999475
     36          1           0       -2.360567   -2.425287    1.692385
     37          6           0       -0.972010   -1.694694    0.212363
     38          1           0       -0.320908   -2.558827    0.279714
 ---------------------------------------------------------------------

 SCF Done:  E(RB3LYP) =  -788.446452078     A.U. after   10 cycles

 The electronic state is 1-A.
 Alpha  occ. eigenvalues --  -19.17393 -19.13795 -19.13283 -14.32173 -10.24782
 Alpha  occ. eigenvalues --  -10.23450 -10.22857 -10.22065 -10.20496 -10.18949
 Alpha  occ. eigenvalues --  -10.18891 -10.18683 -10.18614 -10.18501 -10.16966
 Alpha  occ. eigenvalues --  -10.16896 -10.16830  -1.05431  -1.01235  -1.00680
 Alpha  occ. eigenvalues --   -0.90594  -0.85175  -0.78566  -0.76410  -0.75105
 Alpha  occ. eigenvalues --   -0.69932  -0.68344  -0.68216  -0.67052  -0.63038
 Alpha  occ. eigenvalues --   -0.60686  -0.57059  -0.54983  -0.53830  -0.50423
 Alpha  occ. eigenvalues --   -0.49370  -0.47561  -0.47088  -0.46945  -0.45816
 Alpha  occ. eigenvalues --   -0.43868  -0.43345  -0.43206  -0.42175  -0.41926
 Alpha  occ. eigenvalues --   -0.41334  -0.39741  -0.39561  -0.38926  -0.37845
 Alpha  occ. eigenvalues --   -0.37438  -0.36275  -0.35901  -0.34767  -0.34626
 Alpha  occ. eigenvalues --   -0.33963  -0.33258  -0.32252  -0.32133  -0.31203
 Alpha  occ. eigenvalues --   -0.26952  -0.26558  -0.24942  -0.23186  -0.21537
 Alpha virt. eigenvalues --   -0.00623   0.00920   0.07639   0.09352   0.10574
 Alpha virt. eigenvalues --    0.11031   0.11738   0.12274   0.12499   0.13726
 Alpha virt. eigenvalues --    0.14070   0.14504   0.14920   0.15777   0.16250

 Mulliken charges:
               1
     1  C   -0.458333
     2  H    0.148819
     3  H    0.145535
     4  H    0.150172
     5  C    0.217240
     6  C   -0.456623
     7  H    0.146732
     8  H    0.143425
     9  H    0.151515
    10  C   -0.451546
    11  H    0.148931
    12  H    0.150781
    13  H    0.148226
    14  N   -0.609692
    15  H    0.326959
    16  C   -0.153802
    17  H    0.159280
    18  H    0.143292
    19  C    0.063990
    20  O   -0.685543
    21  H    0.414989
    22  H    0.146294
    23  C    0.128081
    24  C   -0.266848
    25  H    0.141172
    26  C    0.088357
    27  C   -0.097434
    28  O   -0.658696
    29  H    0.426078
    30  H    0.137715
    31  H    0.153346
    32  C    0.298558
    33  O   -0.672350
    34  H    0.457741
    35  C   -0.209252
    36  H    0.150544
    37  C   -0.210243
    38  H    0.142587
 Sum of Mulliken charges =   0.00000

 Dipole moment (field-independent basis, Debye):
    X=              2.8968    Y=              1.2003    Z=              2.0077  Tot=              3.7233
 Quadrupole moment (field-independent basis, Debye-Ang):
   XX=           -113.8901   YY=           -104.5424   ZZ=            -94.8890
   XY=             13.4609   XZ=             -0.3459   YZ=            -11.5901

 Normal termination of Gaussian 09 at Mon Mar 29 22:51:34 2021.
