 Gaussian 09, Revision D.01,

 -----------------
 #p b3lyp/6-31G(d)
 -----------------

 ----------------------------------------------
 SET_328_BBB227_conf1.geo_075_180_060.n.pdb.xyz
 ----------------------------------------------
 Symbolic Z-matrix:
 Charge =  0 Multiplicity = 1

 SCF Done:  E(RB3LYP) =  -1203.26772222     A.U. after   15 cycles
 Normal termination of Gaussian 09 at Mon Mar 29 22:48:35 2021.
 Gaussian 09:  AM64L-G09RevD.01 24-Apr-2013

 ----------------------------------------------------------------------
 #p b3lyp/6-31G(d) scrf=(iefpcm,read,solvent=Water) geom=allcheck guess
 =read
 ----------------------------------------------------------------------

 Structure from the checkpoint file:  "SET_328_BBB227_conf1.geo_075_180_060.n.pdb.xyz.mst.n.w.chk"
 ----------------------------------------------
 SET_328_BBB227_conf1.geo_075_180_060.n.pdb.xyz
 ----------------------------------------------
 Charge =  0 Multiplicity = 1

                         Standard orientation:
 ---------------------------------------------------------------------
 Center     Atomic      Atomic             Coordinates (Angstroms)
 Number     Number       Type             X           Y           Z
 ---------------------------------------------------------------------
      1         16           0        1.499519    2.192366   -1.387753
      2          6           0        0.947651    1.146524   -0.127807
      3          7           0        1.674763    0.073666    0.254243
      4          6           0        3.042232   -0.256857   -0.158091
      5          6           0        4.073439    0.249200    0.865011
      6          6           0        5.501191   -0.139079    0.457491
      7          6           0        5.631053   -1.652427    0.241979
      8          6           0        4.597666   -2.159853   -0.772735
      9          6           0        3.167934   -1.771979   -0.370206
     10          1           0        2.900785   -2.289858    0.561599
     11          1           0        2.451731   -2.096499   -1.132942
     12          1           0        4.669287   -3.247817   -0.878678
     13          1           0        4.822252   -1.733577   -1.759751
     14          1           0        5.480049   -2.168071    1.199446
     15          1           0        6.643294   -1.901955   -0.094494
     16          1           0        6.210419    0.201197    1.219912
     17          1           0        5.766550    0.382364   -0.472291
     18          1           0        3.839505   -0.182838    1.846988
     19          1           0        3.981818    1.336737    0.963899
     20          1           0        3.207916    0.254583   -1.108018
     21          1           0        1.267701   -0.570299    0.920629
     22          7           0       -0.221670    1.373531    0.528459
     23          6           0       -0.711334    0.600364    1.678471
     24          6           0       -1.855070   -0.331790    1.268743
     25          1           0       -1.485199   -1.078756    0.558180
     26          1           0       -2.219194   -0.868910    2.150631
     27          1           0        0.101394    0.067488    2.170622
     28          1           0       -1.080254    1.333929    2.405571
     29          6           0       -1.278768    2.236192   -0.009520
     30          1           0       -0.860794    2.825735   -0.820465
     31          1           0       -1.593987    2.914095    0.791952
     32          6           0       -2.462485    1.386848   -0.483838
     33          1           0       -2.144364    0.775402   -1.336536
     34          1           0       -3.259038    2.049327   -0.839067
     35          6           0       -3.006367    0.469814    0.629449
     36          1           0       -3.431838    1.113828    1.408899
     37          6           0       -4.108430   -0.421097    0.134524
     38          6           0       -5.426737   -0.442642    0.524492
     39          1           0       -5.978908    0.140578    1.246554
     40          7           0       -6.024501   -1.430969   -0.225515
     41          1           0       -7.000093   -1.705530   -0.190788
     42          6           0       -5.068239   -1.962819   -1.027531
     43          1           0       -5.276428   -2.764539   -1.721070
     44          7           0       -3.895354   -1.382924   -0.841374
 ---------------------------------------------------------------------

 SCF Done:  E(RB3LYP) =  -1203.29441803     A.U. after   11 cycles

 The electronic state is 1-A.
 Alpha  occ. eigenvalues --  -88.81842 -14.38388 -14.37516 -14.36930 -14.31377
 Alpha  occ. eigenvalues --  -10.30356 -10.23688 -10.22714 -10.22015 -10.21447
 Alpha  occ. eigenvalues --  -10.20776 -10.19959 -10.19392 -10.18625 -10.18242
 Alpha  occ. eigenvalues --  -10.18132 -10.17797 -10.17754 -10.17673 -10.17506
 Alpha  occ. eigenvalues --   -7.88058  -5.84657  -5.83935  -5.83710  -1.00866
 Alpha  occ. eigenvalues --   -0.99432  -0.92676  -0.86737  -0.82799  -0.80914
 Alpha  occ. eigenvalues --   -0.76768  -0.75643  -0.73980  -0.73214  -0.71294
 Alpha  occ. eigenvalues --   -0.67067  -0.63607  -0.61935  -0.61055  -0.60470
 Alpha  occ. eigenvalues --   -0.59535  -0.57530  -0.56585  -0.55127  -0.54471
 Alpha  occ. eigenvalues --   -0.52459  -0.49392  -0.46986  -0.46225  -0.45841
 Alpha  occ. eigenvalues --   -0.44492  -0.43908  -0.43726  -0.43445  -0.43159
 Alpha  occ. eigenvalues --   -0.42700  -0.41737  -0.41112  -0.40019  -0.39646
 Alpha  occ. eigenvalues --   -0.39094  -0.37671  -0.36609  -0.36239  -0.35593
 Alpha  occ. eigenvalues --   -0.34770  -0.34271  -0.33690  -0.33061  -0.32614
 Alpha  occ. eigenvalues --   -0.31959  -0.31039  -0.30195  -0.27568  -0.27537
 Alpha  occ. eigenvalues --   -0.23990  -0.22285  -0.21608  -0.20865
 Alpha virt. eigenvalues --    0.00384   0.03318   0.06277   0.07083   0.08637
 Alpha virt. eigenvalues --    0.09061   0.10306   0.10943   0.11324   0.12603
 Alpha virt. eigenvalues --    0.13371   0.13852   0.14300   0.15030   0.15444

 Mulliken charges:
               1
     1  S   -0.488919
     2  C    0.381978
     3  N   -0.599858
     4  C    0.048440
     5  C   -0.256969
     6  C   -0.267533
     7  C   -0.260869
     8  C   -0.266523
     9  C   -0.280028
    10  H    0.139760
    11  H    0.147310
    12  H    0.140325
    13  H    0.138502
    14  H    0.134410
    15  H    0.136126
    16  H    0.138901
    17  H    0.136986
    18  H    0.134123
    19  H    0.143889
    20  H    0.170997
    21  H    0.366184
    22  N   -0.390522
    23  C   -0.190169
    24  C   -0.259026
    25  H    0.154064
    26  H    0.154095
    27  H    0.173761
    28  H    0.176071
    29  C   -0.159501
    30  H    0.187977
    31  H    0.158976
    32  C   -0.264756
    33  H    0.151513
    34  H    0.149593
    35  C   -0.168042
    36  H    0.140527
    37  C    0.230223
    38  C   -0.036494
    39  H    0.174741
    40  N   -0.544196
    41  H    0.400188
    42  C    0.200348
    43  H    0.179274
    44  N   -0.555879
 Sum of Mulliken charges =   0.00000

 Dipole moment (field-independent basis, Debye):
    X=             -7.6090    Y=             -5.6651    Z=              6.9233  Tot=             11.7441
 Quadrupole moment (field-independent basis, Debye-Ang):
   XX=            -70.3646   YY=           -134.9447   ZZ=           -130.2913
   XY=             -3.9919   XZ=              1.4973   YZ=              9.0052

 Normal termination of Gaussian 09 at Mon Mar 29 22:54:18 2021.
