 Gaussian 09, Revision D.01,

 -----------------
 #p b3lyp/6-31G(d)
 -----------------

 ---------------------------------------------
 SET_328_BBB29_conf1.geo_105_180_075.n.pdb.xyz
 ---------------------------------------------
 Symbolic Z-matrix:
 Charge =  0 Multiplicity = 1

 SCF Done:  E(RB3LYP) =  -1548.50851315     A.U. after   16 cycles
 Normal termination of Gaussian 09 at Sun Jan 24 23:15:17 2021.
 Gaussian 09:  AM64L-G09RevD.01 24-Apr-2013

 ----------------------------------------------------------------------
 #p b3lyp/6-31G(d) scrf=(iefpcm,read,solvent=Water) geom=allcheck guess
 =read
 ----------------------------------------------------------------------

 Structure from the checkpoint file:  "SET_328_BBB29_conf1.geo_105_180_075.n.pdb.xyz.mst.n.w.chk"
 ---------------------------------------------
 SET_328_BBB29_conf1.geo_105_180_075.n.pdb.xyz
 ---------------------------------------------
 Charge =  0 Multiplicity = 1

                         Standard orientation:
 ---------------------------------------------------------------------
 Center     Atomic      Atomic             Coordinates (Angstroms)
 Number     Number       Type             X           Y           Z
 ---------------------------------------------------------------------
      1          7           0       -2.702771    3.834087   -0.018648
      2          1           0       -3.389659    3.081688    0.034792
      3          1           0       -2.233415    3.716162   -0.914891
      4          6           0       -1.735972    3.680379    1.076223
      5          1           0       -2.259140    3.891245    2.016469
      6          1           0       -0.975160    4.463522    0.963553
      7          6           0       -1.048826    2.309792    1.210096
      8          1           0       -1.817919    1.533695    1.282371
      9          1           0       -0.475824    2.277947    2.143955
     10          6           0       -0.096914    2.003463    0.048752
     11          1           0        0.718909    2.724323    0.076113
     12          1           0       -0.600059    2.127916   -0.919714
     13          7           0        0.507739    0.668401    0.156743
     14          6           0       -0.338289   -0.458184    0.100474
     15          6           0       -1.645198   -0.374879   -0.401119
     16          1           0       -2.033818    0.562007   -0.774186
     17          6           0       -2.451884   -1.508256   -0.411978
     18         17           0       -4.096102   -1.359698   -1.026948
     19          6           0       -2.001655   -2.745719    0.031538
     20          1           0       -2.648583   -3.614041    0.010693
     21          6           0       -0.692430   -2.835450    0.503562
     22          1           0       -0.308769   -3.789283    0.849587
     23          6           0        0.125256   -1.708455    0.559078
     24         16           0        1.747612   -1.798746    1.287542
     25          6           0        2.567941   -0.638616    0.212095
     26          6           0        1.862790    0.497268   -0.226808
     27          6           0        2.536959    1.419447   -1.040274
     28          1           0        2.013706    2.282669   -1.429756
     29          6           0        3.882409    1.236269   -1.361153
     30          1           0        4.382550    1.973668   -1.979642
     31          6           0        4.572903    0.110995   -0.911974
     32          1           0        5.616307   -0.036135   -1.167316
     33          6           0        3.901795   -0.836320   -0.139712
     34          1           0        4.414716   -1.728400    0.205958
 ---------------------------------------------------------------------

 SCF Done:  E(RB3LYP) =  -1548.51986618     A.U. after   11 cycles

 The electronic state is 1-A.
 Alpha  occ. eigenvalues -- -101.55538 -88.89833 -14.37476 -14.30967 -10.25830
 Alpha  occ. eigenvalues --  -10.25010 -10.24308 -10.23039 -10.22624 -10.22294
 Alpha  occ. eigenvalues --  -10.20828 -10.20667 -10.20559 -10.20308 -10.19988
 Alpha  occ. eigenvalues --  -10.19593 -10.19522 -10.19173 -10.18169  -9.47167
 Alpha  occ. eigenvalues --   -7.95880  -7.23550  -7.22602  -7.22570  -5.92378
 Alpha  occ. eigenvalues --   -5.92029  -5.91385  -0.97458  -0.89515  -0.87658
 Alpha  occ. eigenvalues --   -0.86344  -0.85003  -0.80174  -0.77111  -0.77060
 Alpha  occ. eigenvalues --   -0.74729  -0.73423  -0.69039  -0.67259  -0.63451
 Alpha  occ. eigenvalues --   -0.61460  -0.61092  -0.58416  -0.56733  -0.54236
 Alpha  occ. eigenvalues --   -0.51976  -0.49156  -0.48832  -0.48361  -0.47363
 Alpha  occ. eigenvalues --   -0.46536  -0.45975  -0.44590  -0.43665  -0.43012
 Alpha  occ. eigenvalues --   -0.42469  -0.41486  -0.40168  -0.39729  -0.39062
 Alpha  occ. eigenvalues --   -0.38148  -0.37823  -0.36684  -0.35867  -0.35392
 Alpha  occ. eigenvalues --   -0.34853  -0.33820  -0.33078  -0.32057  -0.30953
 Alpha  occ. eigenvalues --   -0.29545  -0.26422  -0.25553  -0.23900  -0.23168
 Alpha  occ. eigenvalues --   -0.19623
 Alpha virt. eigenvalues --   -0.02361  -0.01837  -0.00990   0.00285   0.02020
 Alpha virt. eigenvalues --    0.03517   0.07002   0.08134   0.11387   0.11674
 Alpha virt. eigenvalues --    0.12200   0.13342   0.13932   0.14343   0.14974

 Mulliken charges:
               1
     1  N   -0.769695
     2  H    0.324905
     3  H    0.329487
     4  C   -0.148816
     5  H    0.148727
     6  H    0.145978
     7  C   -0.280861
     8  H    0.152322
     9  H    0.149854
    10  C   -0.158198
    11  H    0.177601
    12  H    0.159541
    13  N   -0.581798
    14  C    0.315898
    15  C   -0.169313
    16  H    0.172354
    17  C   -0.093905
    18  Cl  -0.043785
    19  C   -0.133177
    20  H    0.172347
    21  C   -0.188043
    22  H    0.173186
    23  C   -0.124271
    24  S    0.134748
    25  C   -0.131546
    26  C    0.306441
    27  C   -0.185493
    28  H    0.166027
    29  C   -0.164225
    30  H    0.156087
    31  C   -0.138982
    32  H    0.153268
    33  C   -0.189329
    34  H    0.162667
 Sum of Mulliken charges =   0.00000

 Dipole moment (field-independent basis, Debye):
    X=              1.9306    Y=              0.9100    Z=             -1.0747  Tot=              2.3896
 Quadrupole moment (field-independent basis, Debye-Ang):
   XX=           -126.9116   YY=           -124.9895   ZZ=           -127.0443
   XY=              7.6584   XZ=             -5.6333   YZ=             -4.8707

 Normal termination of Gaussian 09 at Sun Jan 24 23:19:10 2021.
