 Gaussian 09, Revision D.01,

 -----------------
 #p b3lyp/6-31G(d)
 -----------------

 ----------------------------------------------
 SET_328_BBB268_conf1.geo_060_225_255.n.pdb.xyz
 ----------------------------------------------
 Symbolic Z-matrix:
 Charge =  0 Multiplicity = 1

 SCF Done:  E(RB3LYP) =  -976.173566220     A.U. after   16 cycles
 Normal termination of Gaussian 09 at Mon Mar 29 22:50:07 2021.
 Gaussian 09:  AM64L-G09RevD.01 24-Apr-2013

 ----------------------------------------------------------------------
 #p b3lyp/6-31G(d) scrf=(iefpcm,read,solvent=Water) geom=allcheck guess
 =read
 ----------------------------------------------------------------------

 Structure from the checkpoint file:  "SET_328_BBB268_conf1.geo_060_225_255.n.pdb.xyz.mst.n.w.chk"
 ----------------------------------------------
 SET_328_BBB268_conf1.geo_060_225_255.n.pdb.xyz
 ----------------------------------------------
 Charge =  0 Multiplicity = 1

                         Standard orientation:
 ---------------------------------------------------------------------
 Center     Atomic      Atomic             Coordinates (Angstroms)
 Number     Number       Type             X           Y           Z
 ---------------------------------------------------------------------
      1          6           0       -0.605580    3.835795    1.443113
      2          1           0       -0.036023    4.768048    1.518687
      3          1           0       -0.817005    3.475171    2.454795
      4          1           0       -1.537727    4.020666    0.914717
      5          7           0        0.154758    2.826661    0.712754
      6          6           0        1.350426    2.348359    1.393072
      7          1           0        1.089978    1.699474    2.236694
      8          1           0        1.908049    3.207225    1.778384
      9          1           0        2.001871    1.800148    0.717746
     10          6           0       -0.266300    2.436366   -0.516710
     11          8           0       -1.242858    2.956601   -1.075383
     12          6           0        0.496724    1.322534   -1.260973
     13          1           0        1.476505    1.716876   -1.546716
     14          1           0       -0.053885    1.199754   -2.196541
     15          6           0        0.668794    0.001425   -0.573816
     16          6           0       -0.227828   -0.950656   -0.077748
     17          6           0       -1.701008   -0.956435   -0.084226
     18          6           0       -2.475206   -0.027879   -0.798436
     19          6           0       -3.868803   -0.098455   -0.784569
     20          6           0       -4.546419   -1.088659   -0.066492
     21          6           0       -6.054922   -1.155373   -0.056719
     22          1           0       -6.451719   -1.050027    0.959730
     23          1           0       -6.415829   -2.116629   -0.441577
     24          1           0       -6.485151   -0.360944   -0.670263
     25          6           0       -3.773106   -2.017877    0.645774
     26          6           0       -2.383999   -1.956104    0.638492
     27          1           0       -1.803078   -2.684653    1.192431
     28          1           0       -4.267246   -2.800097    1.215717
     29          1           0       -4.441096    0.633851   -1.346284
     30          1           0       -2.006741    0.767972   -1.360831
     31          7           0        0.442827   -2.018985    0.469356
     32          6           0        1.736791   -1.762003    0.308700
     33          6           0        2.875040   -2.513853    0.675738
     34          1           0        2.725322   -3.462103    1.177492
     35          6           0        4.126880   -2.030743    0.391358
     36          1           0        5.004620   -2.602763    0.670041
     37          6           0        4.297482   -0.780090   -0.277961
     38          6           0        5.670872   -0.256940   -0.601944
     39          1           0        5.611901    0.702166   -1.118959
     40          1           0        6.218386   -0.955767   -1.241956
     41          1           0        6.265872   -0.117449    0.306198
     42          6           0        3.186096   -0.062237   -0.627630
     43          1           0        3.247313    0.880481   -1.153088
     44          7           0        1.927121   -0.535857   -0.336037
 ---------------------------------------------------------------------

 SCF Done:  E(RB3LYP) =  -976.186941635     A.U. after   12 cycles

 The electronic state is 1-A.
 Alpha  occ. eigenvalues --  -19.11574 -14.41781 -14.37145 -14.31607 -10.29323
 Alpha  occ. eigenvalues --  -10.25248 -10.23661 -10.22936 -10.22141 -10.21817
 Alpha  occ. eigenvalues --  -10.21083 -10.21030 -10.20980 -10.20354 -10.20142
 Alpha  occ. eigenvalues --  -10.19919 -10.19675 -10.18608 -10.18599 -10.18565
 Alpha  occ. eigenvalues --  -10.18522 -10.18509 -10.17930  -1.03681  -1.03319
 Alpha  occ. eigenvalues --   -0.93544  -0.91174  -0.85573  -0.84393  -0.79800
 Alpha  occ. eigenvalues --   -0.77479  -0.76797  -0.74183  -0.72767  -0.71729
 Alpha  occ. eigenvalues --   -0.70813  -0.68989  -0.67591  -0.62914  -0.62175
 Alpha  occ. eigenvalues --   -0.60862  -0.59407  -0.56690  -0.54865  -0.52879
 Alpha  occ. eigenvalues --   -0.50347  -0.49680  -0.49331  -0.48013  -0.47888
 Alpha  occ. eigenvalues --   -0.46548  -0.46357  -0.45849  -0.45352  -0.44709
 Alpha  occ. eigenvalues --   -0.42786  -0.42142  -0.41889  -0.41598  -0.40874
 Alpha  occ. eigenvalues --   -0.40640  -0.40343  -0.40144  -0.39735  -0.39265
 Alpha  occ. eigenvalues --   -0.38324  -0.38122  -0.37583  -0.37092  -0.36496
 Alpha  occ. eigenvalues --   -0.35570  -0.34275  -0.33361  -0.33189  -0.31833
 Alpha  occ. eigenvalues --   -0.28191  -0.26830  -0.25881  -0.25082  -0.24349
 Alpha  occ. eigenvalues --   -0.21988  -0.20485
 Alpha virt. eigenvalues --   -0.04144  -0.01630  -0.00082   0.01097   0.02107
 Alpha virt. eigenvalues --    0.07233   0.08964   0.10592   0.10819   0.11792
 Alpha virt. eigenvalues --    0.12191   0.12823   0.13041   0.13552   0.14362

 Mulliken charges:
               1
     1  C   -0.325047
     2  H    0.171633
     3  H    0.171586
     4  H    0.188022
     5  N   -0.397084
     6  C   -0.322606
     7  H    0.177694
     8  H    0.178368
     9  H    0.175888
    10  C    0.629536
    11  O   -0.589804
    12  C   -0.483683
    13  H    0.204167
    14  H    0.203019
    15  C    0.296379
    16  C    0.113504
    17  C    0.085533
    18  C   -0.205470
    19  C   -0.226109
    20  C    0.171920
    21  C   -0.534932
    22  H    0.169620
    23  H    0.169380
    24  H    0.164528
    25  C   -0.200573
    26  C   -0.190310
    27  H    0.148490
    28  H    0.140249
    29  H    0.140448
    30  H    0.159949
    31  N   -0.638186
    32  C    0.544359
    33  C   -0.198746
    34  H    0.168458
    35  C   -0.164594
    36  H    0.160670
    37  C    0.112651
    38  C   -0.532719
    39  H    0.171157
    40  H    0.175979
    41  H    0.176060
    42  C   -0.008838
    43  H    0.197581
    44  N   -0.548123
 Sum of Mulliken charges =   0.00000

 Dipole moment (field-independent basis, Debye):
    X=              7.0212    Y=              2.1161    Z=              1.6145  Tot=              7.5088
 Quadrupole moment (field-independent basis, Debye-Ang):
   XX=           -103.2209   YY=           -136.2839   ZZ=           -132.4803
   XY=              7.2204   XZ=             -4.5834   YZ=              6.4996

 Normal termination of Gaussian 09 at Mon Mar 29 22:57:09 2021.
