 Gaussian 09, Revision D.01,

 -----------------
 #p b3lyp/6-31G(d)
 -----------------

 ---------------------------------------------
 SET_328_BBB29_conf1.geo_285_180_180.n.pdb.xyz
 ---------------------------------------------
 Symbolic Z-matrix:
 Charge =  0 Multiplicity = 1

 SCF Done:  E(RB3LYP) =  -1548.50728248     A.U. after   16 cycles
 Normal termination of Gaussian 09 at Sun Jan 24 23:16:42 2021.
 Gaussian 09:  AM64L-G09RevD.01 24-Apr-2013

 ----------------------------------------------------------------------
 #p b3lyp/6-31G(d) scrf=(iefpcm,read,solvent=Water) geom=allcheck guess
 =read
 ----------------------------------------------------------------------

 Structure from the checkpoint file:  "SET_328_BBB29_conf1.geo_285_180_180.n.pdb.xyz.mst.n.w.chk"
 ---------------------------------------------
 SET_328_BBB29_conf1.geo_285_180_180.n.pdb.xyz
 ---------------------------------------------
 Charge =  0 Multiplicity = 1

                         Standard orientation:
 ---------------------------------------------------------------------
 Center     Atomic      Atomic             Coordinates (Angstroms)
 Number     Number       Type             X           Y           Z
 ---------------------------------------------------------------------
      1          7           0       -0.703474    5.033934   -0.599310
      2          1           0        0.134391    5.171184   -1.169807
      3          1           0       -0.893215    5.947039   -0.183615
      4          6           0       -0.385916    4.082566    0.473409
      5          1           0       -1.243828    4.045909    1.156089
      6          1           0        0.485382    4.377592    1.080316
      7          6           0       -0.140051    2.691158   -0.108771
      8          1           0        0.695027    2.738783   -0.815269
      9          1           0       -1.015021    2.392578   -0.691165
     10          6           0        0.162081    1.666211    0.993599
     11          1           0       -0.690292    1.590339    1.674156
     12          1           0        1.005611    2.011279    1.596178
     13          7           0        0.482135    0.301544    0.552833
     14          6           0       -0.577699   -0.572550    0.254801
     15          6           0       -1.892090   -0.095170    0.112200
     16          1           0       -2.111986    0.956998    0.209351
     17          6           0       -2.934476   -0.976793   -0.160935
     18         17           0       -4.564029   -0.324070   -0.308595
     19          6           0       -2.729487   -2.338824   -0.337356
     20          1           0       -3.551435   -3.006468   -0.562066
     21          6           0       -1.424975   -2.815362   -0.207820
     22          1           0       -1.227683   -3.875649   -0.327974
     23          6           0       -0.370199   -1.962509    0.109505
     24         16           0        1.217345   -2.671500    0.479854
     25          6           0        2.259477   -1.310589    0.001494
     26          6           0        1.808325    0.016380    0.153661
     27          6           0        2.736999    1.044625   -0.087317
     28          1           0        2.439104    2.078406    0.018329
     29          6           0        4.050125    0.760794   -0.465122
     30          1           0        4.737782    1.583159   -0.632824
     31          6           0        4.468898   -0.553603   -0.643814
     32          1           0        5.483442   -0.778714   -0.950297
     33          6           0        3.560650   -1.587302   -0.416029
     34          1           0        3.863091   -2.621773   -0.536637
 ---------------------------------------------------------------------

 SCF Done:  E(RB3LYP) =  -1548.51898020     A.U. after   11 cycles

 The electronic state is 1-A.
 Alpha  occ. eigenvalues -- -101.55491 -88.89899 -14.38069 -14.30541 -10.25735
 Alpha  occ. eigenvalues --  -10.25397 -10.24664 -10.23159 -10.22785 -10.22581
 Alpha  occ. eigenvalues --  -10.20738 -10.20536 -10.20474 -10.20175 -10.19941
 Alpha  occ. eigenvalues --  -10.19555 -10.19460 -10.19071 -10.18312  -9.47119
 Alpha  occ. eigenvalues --   -7.95971  -7.23502  -7.22555  -7.22522  -5.92472
 Alpha  occ. eigenvalues --   -5.92113  -5.91474  -0.97705  -0.89481  -0.87330
 Alpha  occ. eigenvalues --   -0.86448  -0.85098  -0.80195  -0.77536  -0.77127
 Alpha  occ. eigenvalues --   -0.74779  -0.73642  -0.69042  -0.66971  -0.63768
 Alpha  occ. eigenvalues --   -0.61377  -0.60567  -0.59526  -0.56556  -0.54709
 Alpha  occ. eigenvalues --   -0.51650  -0.49131  -0.48738  -0.48130  -0.47278
 Alpha  occ. eigenvalues --   -0.46690  -0.45467  -0.44931  -0.43784  -0.43082
 Alpha  occ. eigenvalues --   -0.42872  -0.41567  -0.40183  -0.39450  -0.39076
 Alpha  occ. eigenvalues --   -0.38370  -0.37775  -0.36813  -0.35680  -0.35349
 Alpha  occ. eigenvalues --   -0.35069  -0.33814  -0.32976  -0.32009  -0.31478
 Alpha  occ. eigenvalues --   -0.29933  -0.26526  -0.25743  -0.23572  -0.23223
 Alpha  occ. eigenvalues --   -0.18960
 Alpha virt. eigenvalues --   -0.02761  -0.01830  -0.01015   0.01184   0.02011
 Alpha virt. eigenvalues --    0.03488   0.07171   0.08859   0.10685   0.11679
 Alpha virt. eigenvalues --    0.12365   0.13166   0.13397   0.13998   0.15016

 Mulliken charges:
               1
     1  N   -0.776371
     2  H    0.325080
     3  H    0.329697
     4  C   -0.133006
     5  H    0.145674
     6  H    0.127932
     7  C   -0.279144
     8  H    0.154715
     9  H    0.156190
    10  C   -0.177328
    11  H    0.177147
    12  H    0.176694
    13  N   -0.601775
    14  C    0.339396
    15  C   -0.179101
    16  H    0.176643
    17  C   -0.092596
    18  Cl  -0.044537
    19  C   -0.135926
    20  H    0.171822
    21  C   -0.191261
    22  H    0.172227
    23  C   -0.127910
    24  S    0.144073
    25  C   -0.135677
    26  C    0.329165
    27  C   -0.187645
    28  H    0.162488
    29  C   -0.164867
    30  H    0.155584
    31  C   -0.139652
    32  H    0.152820
    33  C   -0.192820
    34  H    0.162269
 Sum of Mulliken charges =   0.00000

 Dipole moment (field-independent basis, Debye):
    X=              3.2707    Y=              3.4393    Z=              0.7466  Tot=              4.8046
 Quadrupole moment (field-independent basis, Debye-Ang):
   XX=           -126.7471   YY=           -103.6801   ZZ=           -129.6278
   XY=             10.0199   XZ=             -5.4857   YZ=              7.2443

 Normal termination of Gaussian 09 at Sun Jan 24 23:20:18 2021.
