 Gaussian 09, Revision D.01,

 -----------------
 #p b3lyp/6-31G(d)
 -----------------

 ---------------------------------------------
 SET_328_BBB20_conf1.geo_060_180_060.n.pdb.xyz
 ---------------------------------------------
 Symbolic Z-matrix:
 Charge =  0 Multiplicity = 1

 SCF Done:  E(RB3LYP) =  -769.344858194     A.U. after   15 cycles
 Normal termination of Gaussian 09 at Mon Mar 29 22:47:21 2021.
 Gaussian 09:  AM64L-G09RevD.01 24-Apr-2013

 ----------------------------------------------------------------------
 #p b3lyp/6-31G(d) scrf=(iefpcm,read,solvent=Water) geom=allcheck guess
 =read
 ----------------------------------------------------------------------

 Structure from the checkpoint file:  "SET_328_BBB20_conf1.geo_060_180_060.n.pdb.xyz.mst.n.w.chk"
 ---------------------------------------------
 SET_328_BBB20_conf1.geo_060_180_060.n.pdb.xyz
 ---------------------------------------------
 Charge =  0 Multiplicity = 1

                         Standard orientation:
 ---------------------------------------------------------------------
 Center     Atomic      Atomic             Coordinates (Angstroms)
 Number     Number       Type             X           Y           Z
 ---------------------------------------------------------------------
      1          7           0        4.099121   -2.490931   -0.212565
      2          1           0        4.484005   -1.607323   -0.549546
      3          1           0        3.436137   -2.789653   -0.931197
      4          6           0        3.386430   -2.250258    1.049002
      5          1           0        4.134454   -2.006091    1.812365
      6          1           0        2.926287   -3.197248    1.358110
      7          6           0        2.323611   -1.138611    1.045186
      8          1           0        2.789191   -0.202617    0.718456
      9          1           0        1.973115   -0.974659    2.071063
     10          6           0        1.115348   -1.464329    0.167115
     11          1           0        0.640868   -2.367626    0.555137
     12          1           0        1.440210   -1.696042   -0.858151
     13          7           0        0.099231   -0.403104    0.197028
     14          6           0        0.526379    0.903868   -0.200886
     15          6           0        1.445286    1.084090   -1.243987
     16          1           0        1.831168    0.220572   -1.772002
     17          6           0        1.865234    2.365886   -1.601910
     18          1           0        2.576525    2.490301   -2.412061
     19          6           0        1.363026    3.479750   -0.927333
     20          1           0        1.684468    4.478779   -1.202748
     21          6           0        0.450442    3.298123    0.112297
     22          1           0        0.063772    4.160338    0.650927
     23          6           0        0.032258    2.020036    0.497278
     24          6           0       -0.950432    1.798541    1.614611
     25          1           0       -1.097862    2.729779    2.170982
     26          1           0       -0.550687    1.057361    2.314694
     27          6           0       -2.311896    1.323174    1.089274
     28          1           0       -2.715269    2.107562    0.436244
     29          1           0       -3.012011    1.253525    1.929589
     30          6           0       -2.360804    0.000399    0.336675
     31          6           0       -3.646645   -0.477335    0.047364
     32          1           0       -4.491204    0.120723    0.379228
     33          6           0       -3.880082   -1.676501   -0.620933
     34          1           0       -4.893890   -2.010735   -0.813380
     35          6           0       -2.784419   -2.435341   -1.029285
     36          1           0       -2.924509   -3.371382   -1.562633
     37          6           0       -1.494468   -1.982914   -0.766894
     38          1           0       -0.655222   -2.568244   -1.119633
     39          6           0       -1.250602   -0.776756   -0.078688
 ---------------------------------------------------------------------

 SCF Done:  E(RB3LYP) =  -769.355666433     A.U. after   10 cycles

 The electronic state is 1-A.
 Alpha  occ. eigenvalues --  -14.34888 -14.30634 -10.22855 -10.22220 -10.21205
 Alpha  occ. eigenvalues --  -10.20224 -10.19511 -10.19172 -10.18922 -10.18784
 Alpha  occ. eigenvalues --  -10.18783 -10.18777 -10.18647 -10.18640 -10.18430
 Alpha  occ. eigenvalues --  -10.18401 -10.18354 -10.18220 -10.17570  -0.94840
 Alpha  occ. eigenvalues --   -0.87226  -0.85418  -0.84355  -0.79715  -0.76145
 Alpha  occ. eigenvalues --   -0.75431  -0.75021  -0.72263  -0.69949  -0.66182
 Alpha  occ. eigenvalues --   -0.64502  -0.60930  -0.59918  -0.58498  -0.57065
 Alpha  occ. eigenvalues --   -0.56447  -0.51432  -0.50924  -0.48737  -0.47553
 Alpha  occ. eigenvalues --   -0.47020  -0.46766  -0.45303  -0.45134  -0.43772
 Alpha  occ. eigenvalues --   -0.43292  -0.42372  -0.41339  -0.41110  -0.39667
 Alpha  occ. eigenvalues --   -0.38706  -0.38480  -0.37777  -0.37625  -0.36446
 Alpha  occ. eigenvalues --   -0.35450  -0.34639  -0.34098  -0.33778  -0.33361
 Alpha  occ. eigenvalues --   -0.33060  -0.32636  -0.28811  -0.24804  -0.24362
 Alpha  occ. eigenvalues --   -0.23737  -0.23512  -0.19675
 Alpha virt. eigenvalues --   -0.00731  -0.00002   0.00334   0.00790   0.07659
 Alpha virt. eigenvalues --    0.10208   0.10583   0.11030   0.12316   0.12371
 Alpha virt. eigenvalues --    0.13737   0.13824   0.14830   0.15202   0.16112

 Mulliken charges:
               1
     1  N   -0.771119
     2  H    0.324026
     3  H    0.328355
     4  C   -0.148886
     5  H    0.143866
     6  H    0.142246
     7  C   -0.275568
     8  H    0.146104
     9  H    0.141574
    10  C   -0.146510
    11  H    0.163766
    12  H    0.143764
    13  N   -0.576837
    14  C    0.208071
    15  C   -0.170497
    16  H    0.150306
    17  C   -0.169879
    18  H    0.147800
    19  C   -0.143533
    20  H    0.145184
    21  C   -0.233100
    22  H    0.143402
    23  C    0.150529
    24  C   -0.346289
    25  H    0.150206
    26  H    0.159058
    27  C   -0.343874
    28  H    0.161066
    29  H    0.160353
    30  C    0.147685
    31  C   -0.219843
    32  H    0.139133
    33  C   -0.150538
    34  H    0.141983
    35  C   -0.170326
    36  H    0.145143
    37  C   -0.196649
    38  H    0.152320
    39  C    0.227510
 Sum of Mulliken charges =   0.00000

 Dipole moment (field-independent basis, Debye):
    X=             -0.3282    Y=              1.0902    Z=             -0.2192  Tot=              1.1595
 Quadrupole moment (field-independent basis, Debye-Ang):
   XX=           -116.8544   YY=           -109.8773   ZZ=           -110.2904
   XY=              6.2396   XZ=             -5.7239   YZ=              4.4256

 Normal termination of Gaussian 09 at Mon Mar 29 22:51:24 2021.
