 Gaussian 09, Revision D.01,

 -----------------
 #p b3lyp/6-31G(d)
 -----------------

 ---------------------------------------------
 SET_328_BBB20_conf1.geo_060_180_300.n.pdb.xyz
 ---------------------------------------------
 Symbolic Z-matrix:
 Charge =  0 Multiplicity = 1

 SCF Done:  E(RB3LYP) =  -769.345292548     A.U. after   15 cycles
 Normal termination of Gaussian 09 at Mon Mar 29 22:47:37 2021.
 Gaussian 09:  AM64L-G09RevD.01 24-Apr-2013

 ----------------------------------------------------------------------
 #p b3lyp/6-31G(d) scrf=(iefpcm,read,solvent=Water) geom=allcheck guess
 =read
 ----------------------------------------------------------------------

 Structure from the checkpoint file:  "SET_328_BBB20_conf1.geo_060_180_300.n.pdb.xyz.mst.n.w.chk"
 ---------------------------------------------
 SET_328_BBB20_conf1.geo_060_180_300.n.pdb.xyz
 ---------------------------------------------
 Charge =  0 Multiplicity = 1

                         Standard orientation:
 ---------------------------------------------------------------------
 Center     Atomic      Atomic             Coordinates (Angstroms)
 Number     Number       Type             X           Y           Z
 ---------------------------------------------------------------------
      1          7           0        3.450202   -3.301199    0.800298
      2          1           0        2.674121   -3.703490    0.276457
      3          1           0        3.141867   -3.273565    1.769848
      4          6           0        3.701779   -1.930362    0.338825
      5          1           0        3.955122   -1.979037   -0.726339
      6          1           0        4.598015   -1.563577    0.853101
      7          6           0        2.573729   -0.909064    0.549481
      8          1           0        2.933818    0.080421    0.246014
      9          1           0        2.332257   -0.846087    1.617733
     10          6           0        1.305633   -1.264616   -0.225255
     11          1           0        0.956606   -2.243048    0.110792
     12          1           0        1.538977   -1.367325   -1.297157
     13          7           0        0.209851   -0.319522    0.020311
     14          6           0        0.476900    1.056729   -0.261144
     15          6           0        1.262033    1.440628   -1.356254
     16          1           0        1.661388    0.683057   -2.022052
     17          6           0        1.529519    2.789088   -1.596171
     18          1           0        2.137782    3.072066   -2.448744
     19          6           0        1.006674    3.767024   -0.747310
     20          1           0        1.209730    4.817154   -0.929731
     21          6           0        0.225570    3.382355    0.343656
     22          1           0       -0.176045    4.135522    1.017485
     23          6           0       -0.035828    2.034938    0.607148
     24          6           0       -0.869904    1.593869    1.776300
     25          1           0       -1.037623    2.439413    2.448924
     26          1           0       -0.332672    0.825090    2.344801
     27          6           0       -2.233493    1.046483    1.337431
     28          1           0       -2.773966    1.855705    0.830158
     29          1           0       -2.823753    0.813928    2.231180
     30          6           0       -2.248095   -0.181094    0.436553
     31          6           0       -3.510201   -0.748221    0.209029
     32          1           0       -4.367596   -0.278103    0.683601
     33          6           0       -3.702324   -1.882596   -0.571917
     34          1           0       -4.697275   -2.291638   -0.710813
     35          6           0       -2.592582   -2.480513   -1.164958
     36          1           0       -2.704871   -3.361365   -1.788057
     37          6           0       -1.327958   -1.934894   -0.970556
     38          1           0       -0.479766   -2.391865   -1.462548
     39          6           0       -1.122535   -0.792789   -0.169677
 ---------------------------------------------------------------------

 SCF Done:  E(RB3LYP) =  -769.355977525     A.U. after   10 cycles

 The electronic state is 1-A.
 Alpha  occ. eigenvalues --  -14.34873 -14.30570 -10.22832 -10.22172 -10.21193
 Alpha  occ. eigenvalues --  -10.20201 -10.19513 -10.19111 -10.18919 -10.18783
 Alpha  occ. eigenvalues --  -10.18776 -10.18765 -10.18655 -10.18607 -10.18422
 Alpha  occ. eigenvalues --  -10.18357 -10.18342 -10.18195 -10.17568  -0.94905
 Alpha  occ. eigenvalues --   -0.87316  -0.85438  -0.84378  -0.79737  -0.76167
 Alpha  occ. eigenvalues --   -0.75441  -0.75030  -0.72293  -0.69988  -0.66211
 Alpha  occ. eigenvalues --   -0.64513  -0.60976  -0.59934  -0.58401  -0.57124
 Alpha  occ. eigenvalues --   -0.56451  -0.51481  -0.50995  -0.48646  -0.47677
 Alpha  occ. eigenvalues --   -0.47028  -0.46575  -0.45472  -0.45235  -0.43688
 Alpha  occ. eigenvalues --   -0.43286  -0.42619  -0.41402  -0.40565  -0.40027
 Alpha  occ. eigenvalues --   -0.38709  -0.38493  -0.37991  -0.37636  -0.36559
 Alpha  occ. eigenvalues --   -0.35577  -0.34326  -0.33980  -0.33672  -0.33317
 Alpha  occ. eigenvalues --   -0.33207  -0.32624  -0.28830  -0.24886  -0.24372
 Alpha  occ. eigenvalues --   -0.23794  -0.23301  -0.19780
 Alpha virt. eigenvalues --   -0.00721   0.00006   0.00340   0.00796   0.08219
 Alpha virt. eigenvalues --    0.10063   0.10616   0.10807   0.12105   0.12439
 Alpha virt. eigenvalues --    0.13321   0.13774   0.14926   0.15221   0.16198

 Mulliken charges:
               1
     1  N   -0.770357
     2  H    0.328648
     3  H    0.325564
     4  C   -0.150035
     5  H    0.143029
     6  H    0.143843
     7  C   -0.276703
     8  H    0.145337
     9  H    0.142308
    10  C   -0.143853
    11  H    0.156436
    12  H    0.145542
    13  N   -0.577619
    14  C    0.210734
    15  C   -0.171180
    16  H    0.150740
    17  C   -0.169858
    18  H    0.147916
    19  C   -0.144311
    20  H    0.145073
    21  C   -0.232758
    22  H    0.143496
    23  C    0.151375
    24  C   -0.347194
    25  H    0.149946
    26  H    0.158483
    27  C   -0.343451
    28  H    0.160863
    29  H    0.160465
    30  C    0.147132
    31  C   -0.219637
    32  H    0.139151
    33  C   -0.149829
    34  H    0.141854
    35  C   -0.170241
    36  H    0.145062
    37  C   -0.195606
    38  H    0.152350
    39  C    0.227287
 Sum of Mulliken charges =   0.00000

 Dipole moment (field-independent basis, Debye):
    X=             -0.6788    Y=              0.6818    Z=              0.4492  Tot=              1.0618
 Quadrupole moment (field-independent basis, Debye-Ang):
   XX=           -118.2940   YY=           -110.4749   ZZ=           -107.8688
   XY=              6.6110   XZ=             -5.2144   YZ=              3.6524

 Normal termination of Gaussian 09 at Mon Mar 29 22:52:23 2021.
