 Gaussian 09, Revision D.01,

 -----------------
 #p b3lyp/6-31G(d)
 -----------------

 ----------------------------------------------
 SET_328_BBB301_conf1.geo_165_120_105.n.pdb.xyz
 ----------------------------------------------
 Symbolic Z-matrix:
 Charge =  0 Multiplicity = 1

 SCF Done:  E(RB3LYP) =  -788.425584181     A.U. after   14 cycles
 Normal termination of Gaussian 09 at Mon Mar 29 22:50:45 2021.
 Gaussian 09:  AM64L-G09RevD.01 24-Apr-2013

 ----------------------------------------------------------------------
 #p b3lyp/6-31G(d) scrf=(iefpcm,read,solvent=Water) geom=allcheck guess
 =read
 ----------------------------------------------------------------------

 Structure from the checkpoint file:  "SET_328_BBB301_conf1.geo_165_120_105.n.pdb.xyz.mst.n.w.chk"
 ----------------------------------------------
 SET_328_BBB301_conf1.geo_165_120_105.n.pdb.xyz
 ----------------------------------------------
 Charge =  0 Multiplicity = 1

                         Standard orientation:
 ---------------------------------------------------------------------
 Center     Atomic      Atomic             Coordinates (Angstroms)
 Number     Number       Type             X           Y           Z
 ---------------------------------------------------------------------
      1          6           0       -3.996186    1.648537   -1.187820
      2          1           0       -4.728986    2.408040   -0.896875
      3          1           0       -4.283663    1.259579   -2.170851
      4          1           0       -3.026034    2.145669   -1.289455
      5          6           0       -3.942566    0.510506   -0.149614
      6          6           0       -3.572056    1.074363    1.230361
      7          1           0       -4.323883    1.801279    1.550253
      8          1           0       -2.603735    1.583290    1.215071
      9          1           0       -3.528595    0.274523    1.976307
     10          6           0       -5.315739   -0.171154   -0.070459
     11          1           0       -5.304237   -0.979159    0.666948
     12          1           0       -5.599402   -0.597896   -1.039249
     13          1           0       -6.088718    0.548647    0.217122
     14          7           0       -2.974689   -0.548283   -0.540755
     15          1           0       -3.288353   -0.946320   -1.422471
     16          6           0       -1.553631   -0.196047   -0.656195
     17          1           0       -1.379992    0.878464   -0.791973
     18          1           0       -1.148148   -0.703316   -1.536511
     19          6           0       -0.768551   -0.704064    0.583673
     20          8           0       -1.213227   -2.021227    0.881825
     21          1           0       -2.163157   -1.993484    0.618446
     22          1           0       -0.984492   -0.034882    1.430063
     23          6           0        0.723019   -0.693355    0.335988
     24          6           0        1.481920    0.448616    0.622220
     25          1           0        0.997607    1.314556    1.069327
     26          6           0        2.850244    0.512136    0.359749
     27          6           0        3.678870    1.735719    0.673420
     28          8           0        4.349294    2.267813   -0.468461
     29          1           0        4.949091    1.563269   -0.773104
     30          1           0        4.405116    1.500866    1.465326
     31          1           0        3.031164    2.531132    1.051878
     32          6           0        3.474984   -0.611724   -0.206377
     33          8           0        4.821523   -0.501692   -0.436229
     34          1           0        5.158180   -1.313299   -0.853413
     35          6           0        2.741034   -1.763565   -0.498445
     36          1           0        3.237368   -2.628707   -0.930292
     37          6           0        1.371664   -1.797019   -0.227549
     38          1           0        0.796930   -2.691119   -0.442069
 ---------------------------------------------------------------------

 SCF Done:  E(RB3LYP) =  -788.447551147     A.U. after   10 cycles

 The electronic state is 1-A.
 Alpha  occ. eigenvalues --  -19.18219 -19.13615 -19.12956 -14.32170 -10.24987
 Alpha  occ. eigenvalues --  -10.23035 -10.22935 -10.22128 -10.20511 -10.19097
 Alpha  occ. eigenvalues --  -10.19032 -10.18960 -10.18848 -10.18741 -10.17036
 Alpha  occ. eigenvalues --  -10.16968 -10.16870  -1.06107  -1.00804  -1.00751
 Alpha  occ. eigenvalues --   -0.90337  -0.85419  -0.78410  -0.76741  -0.75537
 Alpha  occ. eigenvalues --   -0.69913  -0.68346  -0.68022  -0.67139  -0.63134
 Alpha  occ. eigenvalues --   -0.61214  -0.56588  -0.54420  -0.54225  -0.50886
 Alpha  occ. eigenvalues --   -0.49745  -0.47837  -0.47321  -0.46946  -0.45536
 Alpha  occ. eigenvalues --   -0.44600  -0.43843  -0.42905  -0.42388  -0.41871
 Alpha  occ. eigenvalues --   -0.40731  -0.40611  -0.39126  -0.38673  -0.38322
 Alpha  occ. eigenvalues --   -0.37471  -0.36372  -0.36142  -0.35559  -0.34146
 Alpha  occ. eigenvalues --   -0.33564  -0.33291  -0.32509  -0.32370  -0.31550
 Alpha  occ. eigenvalues --   -0.26597  -0.26362  -0.25022  -0.23433  -0.21483
 Alpha virt. eigenvalues --   -0.00572   0.00687   0.07251   0.08554   0.09654
 Alpha virt. eigenvalues --    0.11376   0.12318   0.12639   0.13052   0.13503
 Alpha virt. eigenvalues --    0.13901   0.14204   0.15799   0.16091   0.16382

 Mulliken charges:
               1
     1  C   -0.453949
     2  H    0.147248
     3  H    0.143288
     4  H    0.150675
     5  C    0.207649
     6  C   -0.453685
     7  H    0.150378
     8  H    0.150387
     9  H    0.151073
    10  C   -0.453952
    11  H    0.148491
    12  H    0.144692
    13  H    0.148603
    14  N   -0.606108
    15  H    0.340144
    16  C   -0.161023
    17  H    0.145138
    18  H    0.150032
    19  C    0.089263
    20  O   -0.696539
    21  H    0.412063
    22  H    0.123231
    23  C    0.136970
    24  C   -0.275053
    25  H    0.141413
    26  C    0.110122
    27  C   -0.116389
    28  O   -0.674018
    29  H    0.431641
    30  H    0.143878
    31  H    0.156495
    32  C    0.292553
    33  O   -0.685429
    34  H    0.465213
    35  C   -0.201936
    36  H    0.154540
    37  C   -0.204230
    38  H    0.147135
 Sum of Mulliken charges =   0.00000

 Dipole moment (field-independent basis, Debye):
    X=             -1.6489    Y=             -1.4233    Z=             -2.4939  Tot=              3.3112
 Quadrupole moment (field-independent basis, Debye-Ang):
   XX=            -82.4616   YY=           -108.5904   ZZ=           -101.7803
   XY=            -19.7411   XZ=              0.3145   YZ=             11.3060

 Normal termination of Gaussian 09 at Mon Mar 29 22:53:58 2021.
