 Gaussian 09, Revision D.01,

 -----------------
 #p b3lyp/6-31G(d)
 -----------------

 ----------------------------------------------
 SET_328_BBB256_conf1.geo_180_075_075.n.pdb.xyz
 ----------------------------------------------
 Symbolic Z-matrix:
 Charge =  0 Multiplicity = 1

 SCF Done:  E(RB3LYP) =  -421.569119263     A.U. after   14 cycles
 Normal termination of Gaussian 09 at Mon Mar 29 22:42:33 2021.
 Gaussian 09:  AM64L-G09RevD.01 24-Apr-2013

 ----------------------------------------------------------------------
 #p b3lyp/6-31G(d) scrf=(iefpcm,read,solvent=Water) geom=allcheck guess
 =read
 ----------------------------------------------------------------------

 Structure from the checkpoint file:  "SET_328_BBB256_conf1.geo_180_075_075.n.pdb.xyz.mst.n.w.chk"
 ----------------------------------------------
 SET_328_BBB256_conf1.geo_180_075_075.n.pdb.xyz
 ----------------------------------------------
 Charge =  0 Multiplicity = 1

                         Standard orientation:
 ---------------------------------------------------------------------
 Center     Atomic      Atomic             Coordinates (Angstroms)
 Number     Number       Type             X           Y           Z
 ---------------------------------------------------------------------
      1          6           0        3.446168    0.776772   -0.901528
      2          1           0        3.316274    0.265865   -1.870670
      3          1           0        4.342871    0.362334   -0.428475
      4          1           0        3.628546    1.837183   -1.096828
      5          7           0        2.307531    0.633021    0.001659
      6          1           0        1.506137    1.105567   -0.419189
      7          6           0        1.957565   -0.766984    0.220445
      8          1           0        2.820076   -1.260536    0.685704
      9          1           0        1.756103   -1.307139   -0.721370
     10          6           0        0.744191   -0.915891    1.147147
     11          1           0        0.938832   -0.378362    2.079341
     12          1           0        0.629196   -1.977276    1.389941
     13          6           0       -0.543320   -0.414078    0.534618
     14          7           0       -1.058312   -1.141051   -0.476819
     15          6           0       -2.193820   -0.713149   -1.044824
     16          1           0       -2.582215   -1.325752   -1.855456
     17          6           0       -2.873151    0.438568   -0.651440
     18          1           0       -3.790218    0.731020   -1.148469
     19          6           0       -2.339901    1.188758    0.394241
     20          1           0       -2.832775    2.092884    0.737805
     21          6           0       -1.158518    0.756225    0.994804
     22          1           0       -0.712641    1.309100    1.813006
 ---------------------------------------------------------------------

 SCF Done:  E(RB3LYP) =  -421.577080691     A.U. after   10 cycles

 The electronic state is 1-A.
 Alpha  occ. eigenvalues --  -14.33193 -14.31298 -10.22869 -10.22358 -10.20666
 Alpha  occ. eigenvalues --  -10.20329 -10.19577 -10.19536 -10.19529 -10.18368
 Alpha  occ. eigenvalues --   -0.94240  -0.89562  -0.80152  -0.78681  -0.72869
 Alpha  occ. eigenvalues --   -0.66108  -0.63064  -0.62318  -0.58343  -0.51293
 Alpha  occ. eigenvalues --   -0.49071  -0.47694  -0.46292  -0.44813  -0.43310
 Alpha  occ. eigenvalues --   -0.41599  -0.40797  -0.39567  -0.38133  -0.37178
 Alpha  occ. eigenvalues --   -0.35399  -0.34692  -0.34014  -0.28612  -0.26072
 Alpha  occ. eigenvalues --   -0.25569  -0.22162
 Alpha virt. eigenvalues --   -0.02675  -0.00887   0.09851   0.10490   0.12371
 Alpha virt. eigenvalues --    0.13686   0.14458   0.14495   0.16432   0.17323
 Alpha virt. eigenvalues --    0.17646   0.17874   0.18465   0.19550   0.20073

 Mulliken charges:
               1
     1  C   -0.305657
     2  H    0.127302
     3  H    0.151816
     4  H    0.152485
     5  N   -0.585666
     6  H    0.327850
     7  C   -0.117699
     8  H    0.144412
     9  H    0.123451
    10  C   -0.326681
    11  H    0.151578
    12  H    0.158829
    13  C    0.293993
    14  N   -0.516552
    15  C    0.025740
    16  H    0.156067
    17  C   -0.153825
    18  H    0.160244
    19  C   -0.110578
    20  H    0.167417
    21  C   -0.181414
    22  H    0.156889
 Sum of Mulliken charges =   0.00000

 Dipole moment (field-independent basis, Debye):
    X=             -1.4926    Y=              1.8800    Z=             -0.1920  Tot=              2.4081
 Quadrupole moment (field-independent basis, Debye-Ang):
   XX=            -54.2038   YY=            -60.5538   ZZ=            -58.5287
   XY=             -5.1959   XZ=             -0.1778   YZ=             -1.2451

 Normal termination of Gaussian 09 at Mon Mar 29 22:43:19 2021.
