 Gaussian 09, Revision D.01,

 -----------------
 #p b3lyp/6-31G(d)
 -----------------

 ---------------------------------------------
 SET_328_BBB29_conf1.geo_135_285_285.n.pdb.xyz
 ---------------------------------------------
 Symbolic Z-matrix:
 Charge =  0 Multiplicity = 1

 SCF Done:  E(RB3LYP) =  -1548.51076592     A.U. after   16 cycles
 Normal termination of Gaussian 09 at Mon Mar 29 22:49:13 2021.
 Gaussian 09:  AM64L-G09RevD.01 24-Apr-2013

 ----------------------------------------------------------------------
 #p b3lyp/6-31G(d) scrf=(iefpcm,read,solvent=Water) geom=allcheck guess
 =read
 ----------------------------------------------------------------------

 Structure from the checkpoint file:  "SET_328_BBB29_conf1.geo_135_285_285.n.pdb.xyz.mst.n.w.chk"
 ---------------------------------------------
 SET_328_BBB29_conf1.geo_135_285_285.n.pdb.xyz
 ---------------------------------------------
 Charge =  0 Multiplicity = 1

                         Standard orientation:
 ---------------------------------------------------------------------
 Center     Atomic      Atomic             Coordinates (Angstroms)
 Number     Number       Type             X           Y           Z
 ---------------------------------------------------------------------
      1          7           0       -0.149696    3.809721    1.472096
      2          1           0       -0.110318    4.753833    1.091660
      3          1           0       -0.319280    3.927350    2.470275
      4          6           0        1.158530    3.169216    1.282477
      5          1           0        1.160275    2.234145    1.851806
      6          1           0        1.998175    3.770690    1.663566
      7          6           0        1.413105    2.865631   -0.196076
      8          1           0        2.422454    2.460591   -0.316206
      9          1           0        1.379557    3.799908   -0.768030
     10          6           0        0.373177    1.919721   -0.808249
     11          1           0        0.442306    1.916140   -1.903050
     12          1           0       -0.606643    2.309345   -0.537651
     13          7           0        0.456407    0.553882   -0.267691
     14          6           0       -0.736168   -0.167925   -0.043619
     15          6           0       -1.951861    0.197407   -0.643639
     16          1           0       -2.002403    1.029739   -1.331969
     17          6           0       -3.107597   -0.523571   -0.353786
     18         17           0       -4.623402   -0.020410   -1.104144
     19          6           0       -3.102846   -1.632505    0.484956
     20          1           0       -4.014013   -2.179280    0.691593
     21          6           0       -1.886745   -2.022381    1.045563
     22          1           0       -1.846617   -2.890827    1.694620
     23          6           0       -0.722572   -1.295840    0.803026
     24         16           0        0.798456   -1.732781    1.622062
     25          6           0        1.919735   -1.319802    0.300669
     26          6           0        1.643491   -0.190310   -0.490408
     27          6           0        2.564998    0.162231   -1.487142
     28          1           0        2.370622    1.017664   -2.120966
     29          6           0        3.735471   -0.576621   -1.667180
     30          1           0        4.437352   -0.274827   -2.436481
     31          6           0        3.995630   -1.696129   -0.880051
     32          1           0        4.901404   -2.274063   -1.023288
     33          6           0        3.072388   -2.076351    0.095034
     34          1           0        3.250264   -2.950791    0.711294
 ---------------------------------------------------------------------

 SCF Done:  E(RB3LYP) =  -1548.52088997     A.U. after   11 cycles

 The electronic state is 1-A.
 Alpha  occ. eigenvalues -- -101.55465 -88.89760 -14.37202 -14.30331 -10.25768
 Alpha  occ. eigenvalues --  -10.24963 -10.24099 -10.22951 -10.22543 -10.21608
 Alpha  occ. eigenvalues --  -10.20759 -10.20564 -10.20233 -10.19936 -10.19911
 Alpha  occ. eigenvalues --  -10.19507 -10.19451 -10.19124 -10.17994  -9.47090
 Alpha  occ. eigenvalues --   -7.95802  -7.23473  -7.22527  -7.22494  -5.92300
 Alpha  occ. eigenvalues --   -5.91952  -5.91308  -0.97139  -0.89364  -0.87161
 Alpha  occ. eigenvalues --   -0.86172  -0.84877  -0.80061  -0.77294  -0.76379
 Alpha  occ. eigenvalues --   -0.74642  -0.73358  -0.68816  -0.66990  -0.63257
 Alpha  occ. eigenvalues --   -0.61621  -0.60683  -0.57733  -0.56566  -0.54030
 Alpha  occ. eigenvalues --   -0.51173  -0.48885  -0.48656  -0.48033  -0.47300
 Alpha  occ. eigenvalues --   -0.46536  -0.45743  -0.44711  -0.44075  -0.42976
 Alpha  occ. eigenvalues --   -0.41732  -0.41009  -0.40290  -0.39608  -0.38983
 Alpha  occ. eigenvalues --   -0.38299  -0.36804  -0.36459  -0.35346  -0.35131
 Alpha  occ. eigenvalues --   -0.34564  -0.33720  -0.32812  -0.31993  -0.30727
 Alpha  occ. eigenvalues --   -0.29460  -0.26311  -0.25484  -0.23251  -0.23163
 Alpha  occ. eigenvalues --   -0.19548
 Alpha virt. eigenvalues --   -0.02265  -0.01754  -0.00904   0.00360   0.02038
 Alpha virt. eigenvalues --    0.03604   0.07581   0.09220   0.11212   0.12569
 Alpha virt. eigenvalues --    0.13306   0.13585   0.13915   0.14451   0.14647

 Mulliken charges:
               1
     1  N   -0.767798
     2  H    0.323923
     3  H    0.329759
     4  C   -0.132900
     5  H    0.148655
     6  H    0.124506
     7  C   -0.278415
     8  H    0.151736
     9  H    0.147059
    10  C   -0.157481
    11  H    0.160053
    12  H    0.179816
    13  N   -0.575190
    14  C    0.315904
    15  C   -0.176291
    16  H    0.180682
    17  C   -0.092114
    18  Cl  -0.046467
    19  C   -0.134390
    20  H    0.171777
    21  C   -0.187681
    22  H    0.172532
    23  C   -0.124732
    24  S    0.134896
    25  C   -0.132716
    26  C    0.305100
    27  C   -0.177789
    28  H    0.164058
    29  C   -0.166717
    30  H    0.155426
    31  C   -0.138901
    32  H    0.152546
    33  C   -0.190944
    34  H    0.162098
 Sum of Mulliken charges =   0.00000

 Dipole moment (field-independent basis, Debye):
    X=              3.1814    Y=              2.7877    Z=             -0.3794  Tot=              4.2469
 Quadrupole moment (field-independent basis, Debye-Ang):
   XX=           -126.2645   YY=           -106.4259   ZZ=           -121.2256
   XY=              4.5088   XZ=             -7.5223   YZ=             -0.9551

 Normal termination of Gaussian 09 at Mon Mar 29 22:53:00 2021.
