 Gaussian 09, Revision D.01,

 -----------------
 #p b3lyp/6-31G(d)
 -----------------

 ----------------------------------------------
 SET_328_BBB324_conf1.geo_180_105_180.n.pdb.xyz
 ----------------------------------------------
 Symbolic Z-matrix:
 Charge =  0 Multiplicity = 1

 SCF Done:  E(RB3LYP) =  -1692.24430517     A.U. after   16 cycles
 Normal termination of Gaussian 09 at Thu Jan 28 04:57:26 2021.
 Gaussian 09:  AM64L-G09RevD.01 24-Apr-2013

 ----------------------------------------------------------------------
 #p b3lyp/6-31G(d) scrf=(iefpcm,read,solvent=Water) geom=allcheck guess
 =read
 ----------------------------------------------------------------------

 Structure from the checkpoint file:  "SET_328_BBB324_conf1.geo_180_105_180.n.pdb.xyz.mst.n.w.chk"
 ----------------------------------------------
 SET_328_BBB324_conf1.geo_180_105_180.n.pdb.xyz
 ----------------------------------------------
 Charge =  0 Multiplicity = 1

                         Standard orientation:
 ---------------------------------------------------------------------
 Center     Atomic      Atomic             Coordinates (Angstroms)
 Number     Number       Type             X           Y           Z
 ---------------------------------------------------------------------
      1          6           0        0.454552   -2.288750   -1.325257
      2          1           0        1.109757   -2.878530   -1.962705
      3          1           0       -0.211480   -1.686245   -1.951857
      4          1           0       -0.149124   -2.950886   -0.700935
      5          7           0        1.282437   -1.439934   -0.474277
      6          6           0        0.598692   -0.606689    0.522388
      7          1           0        1.160211   -0.630525    1.460056
      8          1           0       -0.387664   -1.025790    0.704297
      9          6           0        0.470429    0.793137    0.026618
     10          6           0       -0.565219    1.609722   -0.383919
     11          6           0       -1.985986    1.309225   -0.391689
     12          7           0       -2.891992    2.163212   -0.819289
     13          8           0       -4.102211    1.456805   -0.645526
     14          6           0       -3.781143    0.257758   -0.135082
     15          7           0       -2.503693    0.103699    0.047301
     16          6           0       -4.892809   -0.710532    0.190483
     17          6           0       -5.717482   -1.033629   -1.059199
     18          1           0       -6.110168   -0.121574   -1.511679
     19          1           0       -6.553092   -1.673311   -0.767666
     20          1           0       -5.100007   -1.557410   -1.790878
     21          8           0       -4.340295   -1.939105    0.643351
     22          1           0       -3.753718   -1.751920    1.400885
     23          6           0       -5.781459   -0.110601    1.311763
     24          8           0       -6.794061   -1.018587    1.689044
     25          1           0       -6.341722   -1.847565    1.930886
     26          1           0       -6.272582    0.799305    0.961906
     27          1           0       -5.139757    0.153941    2.165110
     28          7           0       -0.074551    2.831689   -0.815731
     29          6           0        1.225505    2.757312   -0.672612
     30          1           0        1.938936    3.526802   -0.924709
     31          7           0        1.618290    1.539746   -0.170151
     32          6           0        2.926713    1.137706    0.208630
     33          6           0        3.761171    2.089592    0.799235
     34          1           0        3.397643    3.098497    0.942640
     35          6           0        5.033509    1.725822    1.223164
     36          1           0        5.681031    2.461859    1.685480
     37          6           0        5.463187    0.407125    1.093577
     38          1           0        6.436024    0.099532    1.457165
     39          6           0        4.625371   -0.527474    0.493077
     40         17           0        5.214227   -2.182313    0.399550
     41          6           0        3.347274   -0.195305    0.013675
     42          6           0        2.571040   -1.189562   -0.827562
     43          8           0        3.126611   -1.730972   -1.785503
 ---------------------------------------------------------------------

 SCF Done:  E(RB3LYP) =  -1692.27263174     A.U. after   11 cycles

 The electronic state is 1-A.
 Alpha  occ. eigenvalues -- -101.55890 -19.25749 -19.16325 -19.15090 -19.12881
 Alpha  occ. eigenvalues --  -14.42132 -14.39669 -14.38205 -14.35394 -14.34018
 Alpha  occ. eigenvalues --  -10.30739 -10.30349 -10.27496 -10.27283 -10.27240
 Alpha  occ. eigenvalues --  -10.26835 -10.26135 -10.24690 -10.24365 -10.23982
 Alpha  occ. eigenvalues --  -10.23552 -10.23482 -10.21660 -10.21585 -10.21486
 Alpha  occ. eigenvalues --  -10.21469 -10.18452  -9.47515  -7.23922  -7.22951
 Alpha  occ. eigenvalues --   -7.22890  -1.17315  -1.05353  -1.04786  -1.04451
 Alpha  occ. eigenvalues --   -1.01764  -0.95368  -0.95173  -0.92684  -0.89956
 Alpha  occ. eigenvalues --   -0.88308  -0.84680  -0.80093  -0.78815  -0.78379
 Alpha  occ. eigenvalues --   -0.75299  -0.73178  -0.71129  -0.69653  -0.67773
 Alpha  occ. eigenvalues --   -0.66535  -0.65317  -0.63437  -0.60738  -0.58990
 Alpha  occ. eigenvalues --   -0.57804  -0.57498  -0.54984  -0.53406  -0.53263
 Alpha  occ. eigenvalues --   -0.52194  -0.50853  -0.49840  -0.49309  -0.49054
 Alpha  occ. eigenvalues --   -0.48243  -0.47514  -0.47357  -0.45668  -0.45255
 Alpha  occ. eigenvalues --   -0.44675  -0.44381  -0.42843  -0.42802  -0.42140
 Alpha  occ. eigenvalues --   -0.41791  -0.40972  -0.40716  -0.39697  -0.39559
 Alpha  occ. eigenvalues --   -0.39233  -0.38609  -0.38205  -0.37863  -0.36498
 Alpha  occ. eigenvalues --   -0.36254  -0.35023  -0.34690  -0.34455  -0.32414
 Alpha  occ. eigenvalues --   -0.31861  -0.31335  -0.30394  -0.29948  -0.29613
 Alpha  occ. eigenvalues --   -0.28133  -0.27087  -0.26147  -0.26063  -0.25345
 Alpha  occ. eigenvalues --   -0.23829
 Alpha virt. eigenvalues --   -0.04967  -0.04530  -0.03441  -0.00224   0.01359
 Alpha virt. eigenvalues --    0.02049   0.02631   0.06817   0.07528   0.10408
 Alpha virt. eigenvalues --    0.10602   0.11368   0.11945   0.12272   0.13101

 Mulliken charges:
               1
     1  C   -0.326742
     2  H    0.192985
     3  H    0.179205
     4  H    0.181861
     5  N   -0.393157
     6  C   -0.263631
     7  H    0.208141
     8  H    0.222642
     9  C    0.333677
    10  C    0.121837
    11  C    0.437048
    12  N   -0.271622
    13  O   -0.385114
    14  C    0.610421
    15  N   -0.564005
    16  C    0.182870
    17  C   -0.457328
    18  H    0.171032
    19  H    0.174372
    20  H    0.170828
    21  O   -0.662757
    22  H    0.441702
    23  C   -0.036688
    24  O   -0.647768
    25  H    0.432467
    26  H    0.166572
    27  H    0.146165
    28  N   -0.560854
    29  C    0.228072
    30  H    0.209393
    31  N   -0.558946
    32  C    0.293456
    33  C   -0.154012
    34  H    0.187110
    35  C   -0.139981
    36  H    0.181951
    37  C   -0.126438
    38  H    0.184374
    39  C   -0.134134
    40  Cl  -0.008775
    41  C    0.052628
    42  C    0.543863
    43  O   -0.562720
 Sum of Mulliken charges =   0.00000

 Dipole moment (field-independent basis, Debye):
    X=              2.5258    Y=              0.0346    Z=              6.4848  Tot=              6.9594
 Quadrupole moment (field-independent basis, Debye-Ang):
   XX=           -169.0995   YY=           -168.3890   ZZ=           -160.4499
   XY=             35.5441   XZ=             12.1337   YZ=              1.7869

 Normal termination of Gaussian 09 at Thu Jan 28 05:04:42 2021.
