 Gaussian 09, Revision D.01,

 -----------------
 #p b3lyp/6-31G(d)
 -----------------

 ----------------------------------------------
 SET_328_BBB288_conf1.geo_210_090_060.n.pdb.xyz
 ----------------------------------------------
 Symbolic Z-matrix:
 Charge =  0 Multiplicity = 1

 SCF Done:  E(RB3LYP) =  -963.492905654     A.U. after   16 cycles
 Normal termination of Gaussian 09 at Mon Mar 29 22:46:47 2021.
 Gaussian 09:  AM64L-G09RevD.01 24-Apr-2013

 ----------------------------------------------------------------------
 #p b3lyp/6-31G(d) scrf=(iefpcm,read,solvent=Water) geom=allcheck guess
 =read
 ----------------------------------------------------------------------

 Structure from the checkpoint file:  "SET_328_BBB288_conf1.geo_210_090_060.n.pdb.xyz.mst.n.w.chk"
 ----------------------------------------------
 SET_328_BBB288_conf1.geo_210_090_060.n.pdb.xyz
 ----------------------------------------------
 Charge =  0 Multiplicity = 1

                         Standard orientation:
 ---------------------------------------------------------------------
 Center     Atomic      Atomic             Coordinates (Angstroms)
 Number     Number       Type             X           Y           Z
 ---------------------------------------------------------------------
      1          6           0       -3.864827    1.949799   -1.173330
      2          1           0       -3.156203    2.699223   -1.532497
      3          1           0       -4.553757    2.432290   -0.472198
      4          1           0       -4.463489    1.605205   -2.022261
      5          6           0       -3.143985    0.807424   -0.523716
      6          6           0       -3.925089   -0.294699    0.020150
      7          7           0       -3.165220   -1.301943    0.619690
      8          6           0       -1.793317   -1.375236    0.739076
      9          8           0       -1.225819   -2.321318    1.278729
     10          1           0       -3.678957   -2.089669    1.011430
     11          8           0       -5.153289   -0.381736   -0.014249
     12          6           0       -1.797910    0.751799   -0.407116
     13          1           0       -1.162778    1.552289   -0.763996
     14          7           0       -1.120693   -0.290755    0.190223
     15          6           0        0.347287   -0.273500    0.266287
     16          8           0        0.773446    1.022925    0.660505
     17          6           0        1.882247    1.468120   -0.150166
     18          6           0        2.906370    2.179105    0.734862
     19          8           0        3.356302    1.416232    1.838211
     20          1           0        3.771782    0.614697    1.467257
     21          1           0        2.436923    3.074612    1.150019
     22          1           0        3.734431    2.510564    0.091268
     23          1           0        1.514016    2.199525   -0.881697
     24          1           0        0.601315   -1.006240    1.031578
     25          6           0        1.050823   -0.568717   -1.065353
     26          1           0        0.465450   -0.174670   -1.902072
     27          1           0        1.209002   -1.635852   -1.227406
     28          6           0        2.351888    0.232797   -0.934631
     29          1           0        2.774818    0.515708   -1.901639
     30          7           0        3.379663   -0.504175   -0.143535
     31          7           0        4.015921   -1.362848   -0.756690
     32          7           0        4.664813   -2.175686   -1.222508
 ---------------------------------------------------------------------

 SCF Done:  E(RB3LYP) =  -963.519508847     A.U. after   12 cycles

 The electronic state is 1-A.
 Alpha  occ. eigenvalues --  -19.16956 -19.13918 -19.13359 -19.12879 -14.52599
 Alpha  occ. eigenvalues --  -14.42029 -14.40443 -14.39538 -14.38660 -10.34018
 Alpha  occ. eigenvalues --  -10.30485 -10.28969 -10.25529 -10.25236 -10.25219
 Alpha  occ. eigenvalues --  -10.23451 -10.20653 -10.20633 -10.18641  -1.15261
 Alpha  occ. eigenvalues --   -1.08153  -1.06249  -1.04090  -1.01365  -0.99368
 Alpha  occ. eigenvalues --   -0.97638  -0.92816  -0.81972  -0.81656  -0.77426
 Alpha  occ. eigenvalues --   -0.71318  -0.69712  -0.67621  -0.66543  -0.62870
 Alpha  occ. eigenvalues --   -0.59948  -0.57275  -0.56080  -0.54719  -0.52503
 Alpha  occ. eigenvalues --   -0.52104  -0.51391  -0.50709  -0.49061  -0.47867
 Alpha  occ. eigenvalues --   -0.47367  -0.46538  -0.45449  -0.44381  -0.43734
 Alpha  occ. eigenvalues --   -0.42906  -0.42605  -0.42212  -0.41606  -0.40241
 Alpha  occ. eigenvalues --   -0.39151  -0.38640  -0.38299  -0.37926  -0.35704
 Alpha  occ. eigenvalues --   -0.34435  -0.34384  -0.30576  -0.30059  -0.28674
 Alpha  occ. eigenvalues --   -0.28090  -0.26949  -0.26865  -0.26280  -0.23451
 Alpha virt. eigenvalues --   -0.04097  -0.03537  -0.00073   0.00972   0.07272
 Alpha virt. eigenvalues --    0.09603   0.10414   0.11401   0.11953   0.12183
 Alpha virt. eigenvalues --    0.12363   0.13609   0.13736   0.15520   0.15915

 Mulliken charges:
               1
     1  C   -0.521632
     2  H    0.168911
     3  H    0.172959
     4  H    0.172930
     5  C    0.035381
     6  C    0.601662
     7  N   -0.705284
     8  C    0.813842
     9  O   -0.572976
    10  H    0.396050
    11  O   -0.574298
    12  C    0.058687
    13  H    0.202785
    14  N   -0.506684
    15  C    0.282134
    16  O   -0.536034
    17  C    0.130434
    18  C   -0.055571
    19  O   -0.666599
    20  H    0.440943
    21  H    0.162749
    22  H    0.145389
    23  H    0.164800
    24  H    0.187051
    25  C   -0.314883
    26  H    0.188373
    27  H    0.193148
    28  C   -0.024294
    29  H    0.200733
    30  N   -0.444221
    31  N    0.478258
    32  N   -0.274744
 Sum of Mulliken charges =   0.00000

 Dipole moment (field-independent basis, Debye):
    X=              3.5346    Y=              3.2028    Z=             -6.1810  Tot=              7.8075
 Quadrupole moment (field-independent basis, Debye-Ang):
   XX=           -137.8786   YY=           -110.5561   ZZ=           -112.6939
   XY=              2.1181   XZ=             -8.4185   YZ=             -6.1657

 Normal termination of Gaussian 09 at Mon Mar 29 22:50:04 2021.
