 Gaussian 09, Revision D.01,

 -----------------
 #p b3lyp/6-31G(d)
 -----------------

 ----------------------------------------------
 SET_328_BBB227_conf1.geo_165_180_060.n.pdb.xyz
 ----------------------------------------------
 Symbolic Z-matrix:
 Charge =  0 Multiplicity = 1

 SCF Done:  E(RB3LYP) =  -1203.26566549     A.U. after   15 cycles
 Normal termination of Gaussian 09 at Mon Mar 29 22:47:53 2021.
 Gaussian 09:  AM64L-G09RevD.01 24-Apr-2013

 ----------------------------------------------------------------------
 #p b3lyp/6-31G(d) scrf=(iefpcm,read,solvent=Water) geom=allcheck guess
 =read
 ----------------------------------------------------------------------

 Structure from the checkpoint file:  "SET_328_BBB227_conf1.geo_165_180_060.n.pdb.xyz.mst.n.w.chk"
 ----------------------------------------------
 SET_328_BBB227_conf1.geo_165_180_060.n.pdb.xyz
 ----------------------------------------------
 Charge =  0 Multiplicity = 1

                         Standard orientation:
 ---------------------------------------------------------------------
 Center     Atomic      Atomic             Coordinates (Angstroms)
 Number     Number       Type             X           Y           Z
 ---------------------------------------------------------------------
      1         16           0       -1.567976    2.698699    0.754003
      2          6           0       -1.240612    1.226269   -0.083004
      3          7           0       -2.233800    0.354093   -0.363073
      4          6           0       -3.627071    0.441196    0.100494
      5          6           0       -4.570014   -0.109744   -0.983828
      6          6           0       -4.505279   -1.638461   -1.129230
      7          6           0       -4.721554   -2.340869    0.218296
      8          6           0       -3.739031   -1.827557    1.279756
      9          6           0       -3.828321   -0.303949    1.434535
     10          1           0       -3.097997    0.059442    2.164584
     11          1           0       -4.821847   -0.035450    1.818193
     12          1           0       -2.716199   -2.108402    0.995546
     13          1           0       -3.935672   -2.308852    2.244118
     14          1           0       -4.620678   -3.425392    0.099774
     15          1           0       -5.748613   -2.154828    0.559325
     16          1           0       -3.534973   -1.942667   -1.544838
     17          1           0       -5.257936   -1.966001   -1.854289
     18          1           0       -4.359438    0.381391   -1.939078
     19          1           0       -5.589718    0.174916   -0.697984
     20          1           0       -3.827959    1.502519    0.251713
     21          1           0       -2.030713   -0.406150   -0.997537
     22          7           0        0.019817    0.879636   -0.474062
     23          6           0        0.364101   -0.440033   -1.026020
     24          6           0        1.715298   -0.933584   -0.494635
     25          1           0        1.620141   -1.149847    0.574889
     26          1           0        1.953014   -1.877422   -0.996311
     27          1           0       -0.391575   -1.167136   -0.736806
     28          1           0        0.380569   -0.385894   -2.122800
     29          6           0        1.073215    1.887269   -0.666127
     30          1           0        0.741693    2.811547   -0.198080
     31          1           0        1.172790    2.069697   -1.745930
     32          6           0        2.417638    1.431322   -0.099357
     33          1           0        2.344740    1.337108    0.989700
     34          1           0        3.167021    2.201099   -0.314509
     35          6           0        2.849096    0.082557   -0.702620
     36          1           0        2.984707    0.223900   -1.783071
     37          6           0        4.153291   -0.407112   -0.145357
     38          6           0        5.329578   -0.650941   -0.817387
     39          1           0        5.601934   -0.560280   -1.857759
     40          7           0        6.225105   -1.081274    0.136284
     41          1           0        7.191343   -1.348543   -0.021595
     42          6           0        5.575755   -1.084179    1.328428
     43          1           0        6.056908   -1.383324    2.247898
     44          7           0        4.321667   -0.682985    1.203297
 ---------------------------------------------------------------------

 SCF Done:  E(RB3LYP) =  -1203.29166694     A.U. after   11 cycles

 The electronic state is 1-A.
 Alpha  occ. eigenvalues --  -88.81900 -14.38408 -14.37500 -14.36992 -14.31392
 Alpha  occ. eigenvalues --  -10.30307 -10.23697 -10.22738 -10.22129 -10.21467
 Alpha  occ. eigenvalues --  -10.20783 -10.19977 -10.19318 -10.18606 -10.18250
 Alpha  occ. eigenvalues --  -10.18218 -10.18045 -10.17741 -10.17667 -10.17605
 Alpha  occ. eigenvalues --   -7.88123  -5.84715  -5.84009  -5.83773  -1.00820
 Alpha  occ. eigenvalues --   -0.99319  -0.92528  -0.86726  -0.82781  -0.80872
 Alpha  occ. eigenvalues --   -0.76847  -0.75430  -0.74091  -0.73338  -0.71580
 Alpha  occ. eigenvalues --   -0.66963  -0.63751  -0.61702  -0.61071  -0.60457
 Alpha  occ. eigenvalues --   -0.59587  -0.57282  -0.56612  -0.55719  -0.54060
 Alpha  occ. eigenvalues --   -0.52542  -0.48086  -0.47370  -0.46636  -0.45786
 Alpha  occ. eigenvalues --   -0.45200  -0.44413  -0.43998  -0.43585  -0.43202
 Alpha  occ. eigenvalues --   -0.42589  -0.41903  -0.41001  -0.39490  -0.39046
 Alpha  occ. eigenvalues --   -0.38011  -0.37689  -0.37324  -0.36343  -0.36152
 Alpha  occ. eigenvalues --   -0.35552  -0.34572  -0.33467  -0.33092  -0.32687
 Alpha  occ. eigenvalues --   -0.31914  -0.30252  -0.30141  -0.27560  -0.27528
 Alpha  occ. eigenvalues --   -0.24197  -0.22263  -0.21694  -0.20899
 Alpha virt. eigenvalues --   -0.00004   0.03287   0.05844   0.06581   0.08441
 Alpha virt. eigenvalues --    0.09426   0.10787   0.10942   0.11616   0.12507
 Alpha virt. eigenvalues --    0.13195   0.13800   0.14163   0.14870   0.14932

 Mulliken charges:
               1
     1  S   -0.482235
     2  C    0.382217
     3  N   -0.597966
     4  C    0.044871
     5  C   -0.289287
     6  C   -0.278717
     7  C   -0.257594
     8  C   -0.271549
     9  C   -0.258346
    10  H    0.146426
    11  H    0.140841
    12  H    0.133308
    13  H    0.140532
    14  H    0.137091
    15  H    0.135551
    16  H    0.135947
    17  H    0.145679
    18  H    0.149178
    19  H    0.152233
    20  H    0.170204
    21  H    0.368324
    22  N   -0.406454
    23  C   -0.169653
    24  C   -0.265161
    25  H    0.155325
    26  H    0.153890
    27  H    0.167153
    28  H    0.170815
    29  C   -0.145455
    30  H    0.187460
    31  H    0.154910
    32  C   -0.264940
    33  H    0.150841
    34  H    0.149098
    35  C   -0.172118
    36  H    0.138736
    37  C    0.233547
    38  C   -0.037132
    39  H    0.174711
    40  N   -0.544573
    41  H    0.400418
    42  C    0.200202
    43  H    0.179473
    44  N   -0.557798
 Sum of Mulliken charges =   0.00000

 Dipole moment (field-independent basis, Debye):
    X=              5.7646    Y=             -8.0050    Z=             -6.2488  Tot=             11.6773
 Quadrupole moment (field-independent basis, Debye-Ang):
   XX=            -67.3407   YY=           -143.8397   ZZ=           -127.4269
   XY=              2.8852   XZ=             -3.9189   YZ=             -4.9205

 Normal termination of Gaussian 09 at Mon Mar 29 22:52:30 2021.
