 Gaussian 09, Revision D.01,

 -----------------
 #p b3lyp/6-31G(d)
 -----------------

 ----------------------------------------------
 SET_328_BBB321_conf1.geo_180_150_045.n.pdb.xyz
 ----------------------------------------------
 Symbolic Z-matrix:
 Charge =  0 Multiplicity = 1

 SCF Done:  E(RB3LYP) =  -1212.31204791     A.U. after   16 cycles
 Normal termination of Gaussian 09 at Thu Jan 28 04:43:57 2021.
 Gaussian 09:  AM64L-G09RevD.01 24-Apr-2013

 ----------------------------------------------------------------------
 #p b3lyp/6-31G(d) scrf=(iefpcm,read,solvent=Water) geom=allcheck guess
 =read
 ----------------------------------------------------------------------

 Structure from the checkpoint file:  "SET_328_BBB321_conf1.geo_180_150_045.n.pdb.xyz.mst.n.w.chk"
 ----------------------------------------------
 SET_328_BBB321_conf1.geo_180_150_045.n.pdb.xyz
 ----------------------------------------------
 Charge =  0 Multiplicity = 1

                         Standard orientation:
 ---------------------------------------------------------------------
 Center     Atomic      Atomic             Coordinates (Angstroms)
 Number     Number       Type             X           Y           Z
 ---------------------------------------------------------------------
      1          6           0        6.278351   -0.879785    0.362399
      2          1           0        6.811184   -0.003373   -0.008696
      3          1           0        6.621189   -1.766382   -0.174711
      4          1           0        6.526171   -1.015359    1.420257
      5          6           0        4.773560   -0.778030    0.218213
      6          8           0        4.055664   -1.779161    0.269085
      7          7           0        4.298692    0.494010    0.060450
      8          1           0        4.994962    1.229270    0.034758
      9          6           0        2.966503    0.935891   -0.058263
     10          6           0        2.757224    2.319295   -0.195367
     11          6           0        1.462105    2.815034   -0.308967
     12          6           0        0.364687    1.953633   -0.293344
     13          1           0       -0.642288    2.338875   -0.389479
     14          1           0        1.307068    3.883659   -0.412767
     15          1           0        3.604974    2.996711   -0.206616
     16          6           0        1.868427    0.069688   -0.040293
     17          1           0        2.044191   -0.987317    0.082437
     18          6           0        0.563487    0.572596   -0.163282
     19          6           0       -0.590779   -0.345463   -0.164898
     20          7           0       -1.870122    0.174825   -0.031713
     21          6           0       -0.524555   -1.705155   -0.305252
     22          1           0        0.349624   -2.322510   -0.450651
     23         16           0       -2.116259   -2.398655   -0.270872
     24          6           0       -2.798308   -0.762949   -0.062693
     25          7           0       -4.143081   -0.679692    0.039562
     26          6           0       -4.743070    0.490517    0.242523
     27          7           0       -4.126804    1.684660    0.316881
     28          1           0       -3.110138    1.686952    0.314709
     29          1           0       -4.636501    2.512103    0.601428
     30          7           0       -6.093977    0.468643    0.414282
     31          1           0       -6.562084   -0.378032    0.115815
     32          1           0       -6.612280    1.328414    0.273892
 ---------------------------------------------------------------------

 SCF Done:  E(RB3LYP) =  -1212.34604941     A.U. after   12 cycles

 The electronic state is 1-A.
 Alpha  occ. eigenvalues --  -88.90219 -19.12275 -14.37605 -14.35124 -14.34944
 Alpha  occ. eigenvalues --  -14.32471 -14.31187 -10.30749 -10.29884 -10.27749
 Alpha  occ. eigenvalues --  -10.23945 -10.22420 -10.20718 -10.20372 -10.19360
 Alpha  occ. eigenvalues --  -10.19268 -10.18741 -10.18612 -10.18563  -7.96408
 Alpha  occ. eigenvalues --   -5.92797  -5.92463  -5.92088  -1.03978  -0.99819
 Alpha  occ. eigenvalues --   -0.95525  -0.94258  -0.87914  -0.87684  -0.85118
 Alpha  occ. eigenvalues --   -0.78911  -0.77538  -0.75927  -0.72239  -0.71029
 Alpha  occ. eigenvalues --   -0.64275  -0.63666  -0.61219  -0.58426  -0.57954
 Alpha  occ. eigenvalues --   -0.56557  -0.54516  -0.52601  -0.51169  -0.49310
 Alpha  occ. eigenvalues --   -0.48290  -0.48025  -0.47057  -0.45266  -0.44713
 Alpha  occ. eigenvalues --   -0.43878  -0.43467  -0.42528  -0.40866  -0.40589
 Alpha  occ. eigenvalues --   -0.40312  -0.39866  -0.39171  -0.37481  -0.36398
 Alpha  occ. eigenvalues --   -0.35921  -0.34269  -0.31762  -0.29561  -0.28275
 Alpha  occ. eigenvalues --   -0.28186  -0.27473  -0.26956  -0.25791  -0.24913
 Alpha  occ. eigenvalues --   -0.22373  -0.19511
 Alpha virt. eigenvalues --   -0.03365  -0.01717  -0.00595   0.02414   0.03861
 Alpha virt. eigenvalues --    0.07073   0.08799   0.09294   0.09923   0.10345
 Alpha virt. eigenvalues --    0.11499   0.13024   0.13711   0.14165   0.14696

 Mulliken charges:
               1
     1  C   -0.542272
     2  H    0.176926
     3  H    0.186171
     4  H    0.197078
     5  C    0.601339
     6  O   -0.558444
     7  N   -0.709271
     8  H    0.388298
     9  C    0.338772
    10  C   -0.206411
    11  C   -0.156293
    12  C   -0.198415
    13  H    0.153488
    14  H    0.152647
    15  H    0.157648
    16  C   -0.248613
    17  H    0.174459
    18  C    0.098554
    19  C    0.273832
    20  N   -0.582474
    21  C   -0.428176
    22  H    0.197370
    23  S    0.181211
    24  C    0.304213
    25  N   -0.616870
    26  C    0.662870
    27  N   -0.782096
    28  H    0.397841
    29  H    0.390488
    30  N   -0.772471
    31  H    0.382122
    32  H    0.386479
 Sum of Mulliken charges =   0.00000

 Dipole moment (field-independent basis, Debye):
    X=             -1.0261    Y=              8.6464    Z=              0.2286  Tot=              8.7100
 Quadrupole moment (field-independent basis, Debye-Ang):
   XX=            -38.1195   YY=           -108.3355   ZZ=           -121.4130
   XY=             -8.4393   XZ=             -0.3899   YZ=              2.6946

 Normal termination of Gaussian 09 at Thu Jan 28 04:47:27 2021.
