 Gaussian 09, Revision D.01,

 -----------------
 #p b3lyp/6-31G(d)
 -----------------

 ----------------------------------------------
 SET_328_BBB321_conf1.geo_030_015_045.n.pdb.xyz
 ----------------------------------------------
 Symbolic Z-matrix:
 Charge =  0 Multiplicity = 1

 SCF Done:  E(RB3LYP) =  -1212.29420862     A.U. after   16 cycles
 Normal termination of Gaussian 09 at Thu Jan 28 04:43:42 2021.
 Gaussian 09:  AM64L-G09RevD.01 24-Apr-2013

 ----------------------------------------------------------------------
 #p b3lyp/6-31G(d) scrf=(iefpcm,read,solvent=Water) geom=allcheck guess
 =read
 ----------------------------------------------------------------------

 Structure from the checkpoint file:  "SET_328_BBB321_conf1.geo_030_015_045.n.pdb.xyz.mst.n.w.chk"
 ----------------------------------------------
 SET_328_BBB321_conf1.geo_030_015_045.n.pdb.xyz
 ----------------------------------------------
 Charge =  0 Multiplicity = 1

                         Standard orientation:
 ---------------------------------------------------------------------
 Center     Atomic      Atomic             Coordinates (Angstroms)
 Number     Number       Type             X           Y           Z
 ---------------------------------------------------------------------
      1          6           0        5.066421    2.905666    0.015095
      2          1           0        5.932999    2.445608    0.495752
      3          1           0        4.834388    3.848481    0.510819
      4          1           0        5.327670    3.124073   -1.025821
      5          6           0        3.831753    2.024481    0.044976
      6          8           0        2.697274    2.503295    0.021608
      7          7           0        4.094348    0.680830    0.065942
      8          1           0        5.075596    0.418806    0.087423
      9          6           0        3.196652   -0.405133    0.040970
     10          6           0        3.751501   -1.694225    0.054936
     11          6           0        2.916093   -2.808693    0.032156
     12          6           0        1.531432   -2.661974   -0.004589
     13          1           0        0.898216   -3.541161   -0.020170
     14          1           0        3.353281   -3.801401    0.042981
     15          1           0        4.828880   -1.819786    0.081976
     16          6           0        1.803502   -0.252986    0.003545
     17          1           0        1.373330    0.736148   -0.007224
     18          6           0        0.964064   -1.376505   -0.020595
     19          6           0       -0.500164   -1.184893   -0.062973
     20          7           0       -1.011621    0.100072   -0.044224
     21          6           0       -1.430627   -2.186084   -0.125585
     22          1           0       -1.274865   -3.254440   -0.149510
     23         16           0       -3.036417   -1.531800   -0.152482
     24          6           0       -2.325054    0.132782   -0.084791
     25          7           0       -3.008227    1.297622   -0.166665
     26          6           0       -4.298950    1.430402    0.066914
     27          7           0       -4.898948    2.575391   -0.345518
     28          1           0       -5.765752    2.869167    0.089996
     29          1           0       -4.289795    3.309723   -0.685885
     30          7           0       -5.114810    0.487594    0.623336
     31          1           0       -4.698376   -0.156834    1.285365
     32          1           0       -6.056013    0.776475    0.870675
 ---------------------------------------------------------------------

 SCF Done:  E(RB3LYP) =  -1212.33973229     A.U. after   12 cycles

 The electronic state is 1-A.
 Alpha  occ. eigenvalues --  -88.90275 -19.12276 -14.37473 -14.35871 -14.35395
 Alpha  occ. eigenvalues --  -14.31917 -14.31597 -10.31247 -10.29840 -10.27822
 Alpha  occ. eigenvalues --  -10.23820 -10.22214 -10.20651 -10.20315 -10.19329
 Alpha  occ. eigenvalues --  -10.19152 -10.18753 -10.18700 -10.18275  -7.96432
 Alpha  occ. eigenvalues --   -5.92822  -5.92482  -5.92120  -1.03937  -0.99937
 Alpha  occ. eigenvalues --   -0.95634  -0.94088  -0.88332  -0.87927  -0.85044
 Alpha  occ. eigenvalues --   -0.78779  -0.77486  -0.75743  -0.72266  -0.70863
 Alpha  occ. eigenvalues --   -0.64698  -0.62835  -0.61856  -0.59352  -0.57192
 Alpha  occ. eigenvalues --   -0.56065  -0.54044  -0.52343  -0.51511  -0.49282
 Alpha  occ. eigenvalues --   -0.48592  -0.47802  -0.47406  -0.45188  -0.44726
 Alpha  occ. eigenvalues --   -0.43471  -0.43384  -0.42461  -0.41616  -0.40865
 Alpha  occ. eigenvalues --   -0.40315  -0.39804  -0.39207  -0.37533  -0.35974
 Alpha  occ. eigenvalues --   -0.35582  -0.34563  -0.31972  -0.30010  -0.28264
 Alpha  occ. eigenvalues --   -0.28137  -0.27577  -0.26382  -0.25652  -0.24416
 Alpha  occ. eigenvalues --   -0.22506  -0.19553
 Alpha virt. eigenvalues --   -0.03565  -0.01317  -0.01082   0.02510   0.03787
 Alpha virt. eigenvalues --    0.06787   0.08113   0.09008   0.09590   0.10489
 Alpha virt. eigenvalues --    0.12155   0.13410   0.13616   0.13984   0.14569

 Mulliken charges:
               1
     1  C   -0.541739
     2  H    0.178298
     3  H    0.183623
     4  H    0.197451
     5  C    0.596957
     6  O   -0.556006
     7  N   -0.709213
     8  H    0.387850
     9  C    0.352894
    10  C   -0.209503
    11  C   -0.158497
    12  C   -0.208791
    13  H    0.147319
    14  H    0.152688
    15  H    0.156435
    16  C   -0.246784
    17  H    0.167759
    18  C    0.097972
    19  C    0.273327
    20  N   -0.552149
    21  C   -0.428549
    22  H    0.198148
    23  S    0.167516
    24  C    0.258982
    25  N   -0.588956
    26  C    0.658009
    27  N   -0.763817
    28  H    0.390884
    29  H    0.386975
    30  N   -0.773545
    31  H    0.390380
    32  H    0.394081
 Sum of Mulliken charges =   0.00000

 Dipole moment (field-independent basis, Debye):
    X=             -3.5172    Y=             -0.0984    Z=              2.6255  Tot=              4.3902
 Quadrupole moment (field-independent basis, Debye-Ang):
   XX=            -16.7940   YY=           -101.7398   ZZ=           -118.0626
   XY=            -20.3596   XZ=            -14.0053   YZ=              0.1421

 Normal termination of Gaussian 09 at Thu Jan 28 04:46:46 2021.
