 Gaussian 09, Revision D.01,

 -----------------
 #p b3lyp/6-31G(d)
 -----------------

 ----------------------------------------------
 SET_328_BBB272_conf1.geo_195_315_180.n.pdb.xyz
 ----------------------------------------------
 Symbolic Z-matrix:
 Charge =  0 Multiplicity = 1

 SCF Done:  E(RB3LYP) =  -648.687541820     A.U. after   15 cycles

 1\1\GINC-PIRINEUS35\SP\RB3LYP\6-31G(d)\C9H8O4\UBAFAR01\25-Jan-2021\0\\
 #p b3lyp/6-31G(d)\\SET_328_BBB272_conf1.geo_195_315_180.n.pdb.xyz\\0,1
 \C,0,-0.866,2.707,-1.946\H,0,-0.099,3.114,-2.608\H,0,-0.951,3.318,-1.0
 49\H,0,-1.815,2.724,-2.488\C,0,-0.527,1.281,-1.626\O,0,-0.267,0.396,-2
 .426\O,0,-0.554,1.063,-0.254\C,0,-0.31,-0.233,0.217\C,0,0.864,-0.493,0
 .938\C,0,1.944,0.502,1.238\O,0,1.711,1.802,0.999\H,0,0.809,1.939,0.638
 \O,0,3.017,0.166,1.709\C,0,1.05,-1.791,1.438\H,0,1.959,-1.989,1.991\C,
 0,0.1,-2.785,1.236\H,0,0.264,-3.78,1.635\C,0,-1.066,-2.495,0.523\H,0,-

 Normal termination of Gaussian 09 at Mon Jan 25 16:23:40 2021.
 Gaussian 09:  AM64L-G09RevD.01 24-Apr-2013

 ----------------------------------------------------------------------
 #p b3lyp/6-31G(d) scrf=(iefpcm,read,solvent=Water) geom=allcheck guess
 =read
 ----------------------------------------------------------------------

 Structure from the checkpoint file:  "SET_328_BBB272_conf1.geo_195_315_180.n.pdb.xyz.mst.n.w.chk"
 ----------------------------------------------
 SET_328_BBB272_conf1.geo_195_315_180.n.pdb.xyz
 ----------------------------------------------
 Charge =  0 Multiplicity = 1

                         Standard orientation:
 ---------------------------------------------------------------------
 Center     Atomic      Atomic             Coordinates (Angstroms)
 Number     Number       Type             X           Y           Z
 ---------------------------------------------------------------------
      1          6           0        3.571299    0.060209   -0.216140
      2          1           0        4.049354    0.648737    0.569531
      3          1           0        3.477945    0.652146   -1.125014
      4          1           0        4.205201   -0.808345   -0.412191
      5          6           0        2.240784   -0.424673    0.279254
      6          8           0        2.023518   -1.017015    1.324602
      7          8           0        1.235098   -0.122357   -0.630602
      8          6           0       -0.067443   -0.551162   -0.346865
      9          6           0       -1.055692    0.399099   -0.053464
     10          6           0       -0.846995    1.881157    0.026369
     11          8           0        0.310344    2.396651   -0.416624
     12          1           0        0.903881    1.692956   -0.756069
     13          8           0       -1.703921    2.629957    0.463453
     14          6           0       -2.360461   -0.064173    0.175354
     15          1           0       -3.119969    0.671817    0.405051
     16          6           0       -2.668417   -1.417487    0.104332
     17          1           0       -3.684812   -1.751640    0.281551
     18          6           0       -1.665890   -2.341537   -0.200781
     19          1           0       -1.896530   -3.400484   -0.265538
     20          6           0       -0.361280   -1.907249   -0.427372
     21          1           0        0.429177   -2.608164   -0.668064
 ---------------------------------------------------------------------

 SCF Done:  E(RB3LYP) =  -648.703426350     A.U. after   11 cycles

 The electronic state is 1-A.
 Alpha  occ. eigenvalues --  -19.23025 -19.19654 -19.16365 -19.14136 -10.34810
 Alpha  occ. eigenvalues --  -10.33343 -10.27668 -10.22327 -10.21160 -10.20958
 Alpha  occ. eigenvalues --  -10.20950 -10.20414 -10.20294  -1.13109  -1.10491
 Alpha  occ. eigenvalues --   -1.04213  -1.02025  -0.87718  -0.78966  -0.77815
 Alpha  occ. eigenvalues --   -0.74718  -0.66330  -0.64941  -0.62085  -0.59544
 Alpha  occ. eigenvalues --   -0.54674  -0.51169  -0.50769  -0.50150  -0.48241
 Alpha  occ. eigenvalues --   -0.46478  -0.45474  -0.45049  -0.44455  -0.42430
 Alpha  occ. eigenvalues --   -0.41478  -0.40582  -0.40172  -0.37825  -0.37268
 Alpha  occ. eigenvalues --   -0.36478  -0.33418  -0.32157  -0.30064  -0.28851
 Alpha  occ. eigenvalues --   -0.27103  -0.26470
 Alpha virt. eigenvalues --   -0.05689  -0.02388  -0.01193   0.04698   0.08383
 Alpha virt. eigenvalues --    0.09322   0.12839   0.14004   0.15245   0.15940
 Alpha virt. eigenvalues --    0.16537   0.17606   0.18153   0.19491   0.21422

 Mulliken charges:
               1
     1  C   -0.538867
     2  H    0.212623
     3  H    0.196993
     4  H    0.219058
     5  C    0.626054
     6  O   -0.481901
     7  O   -0.566388
     8  C    0.306254
     9  C    0.036716
    10  C    0.577164
    11  O   -0.611157
    12  H    0.459660
    13  O   -0.518120
    14  C   -0.187721
    15  H    0.173836
    16  C   -0.131827
    17  H    0.167727
    18  C   -0.142229
    19  H    0.173957
    20  C   -0.148169
    21  H    0.176337
 Sum of Mulliken charges =   0.00000

 Dipole moment (field-independent basis, Debye):
    X=              3.0465    Y=             -5.0223    Z=             -3.3170  Tot=              6.7459
 Quadrupole moment (field-independent basis, Debye-Ang):
   XX=            -58.0702   YY=            -82.3175   ZZ=            -77.6869
   XY=             12.4217   XZ=             -4.2891   YZ=              1.3035

 1\1\GINC-PIRINEUS35\SP\RB3LYP\6-31G(d)\C9H8O4\UBAFAR01\25-Jan-2021\0\\
 #p b3lyp/6-31G(d) scrf=(iefpcm,read,solvent=Water) geom=allcheck guess
 =read\\SET_328_BBB272_conf1.geo_195_315_180.n.pdb.xyz\\0,1\C,0,-0.866,
 2.707,-1.946\H,0,-0.099,3.114,-2.608\H,0,-0.951,3.318,-1.049\H,0,-1.81
 5,2.724,-2.488\C,0,-0.527,1.281,-1.626\O,0,-0.267,0.396,-2.426\O,0,-0.
 554,1.063,-0.254\C,0,-0.31,-0.233,0.217\C,0,0.864,-0.493,0.938\C,0,1.9
 44,0.502,1.238\O,0,1.711,1.802,0.999\H,0,0.809,1.939,0.638\O,0,3.017,0
 .166,1.709\C,0,1.05,-1.791,1.438\H,0,1.959,-1.989,1.991\C,0,0.1,-2.785

 Normal termination of Gaussian 09 at Mon Jan 25 16:24:46 2021.
