 Gaussian 09, Revision D.01,

 -----------------
 #p b3lyp/6-31G(d)
 -----------------

 ---------------------------------------------
 SET_328_BBB20_conf1.geo_135_300_300.n.pdb.xyz
 ---------------------------------------------
 Symbolic Z-matrix:
 Charge =  0 Multiplicity = 1

 SCF Done:  E(RB3LYP) =  -769.345317768     A.U. after   15 cycles
 Normal termination of Gaussian 09 at Sun Jan 24 22:40:50 2021.
 Gaussian 09:  AM64L-G09RevD.01 24-Apr-2013

 ----------------------------------------------------------------------
 #p b3lyp/6-31G(d) scrf=(iefpcm,read,solvent=Water) geom=allcheck guess
 =read
 ----------------------------------------------------------------------

 Structure from the checkpoint file:  "SET_328_BBB20_conf1.geo_135_300_300.n.pdb.xyz.mst.n.w.chk"
 ---------------------------------------------
 SET_328_BBB20_conf1.geo_135_300_300.n.pdb.xyz
 ---------------------------------------------
 Charge =  0 Multiplicity = 1

                         Standard orientation:
 ---------------------------------------------------------------------
 Center     Atomic      Atomic             Coordinates (Angstroms)
 Number     Number       Type             X           Y           Z
 ---------------------------------------------------------------------
      1          7           0       -1.014970    3.544275    1.376895
      2          1           0       -1.685338    2.861381    1.016641
      3          1           0       -1.134936    4.375362    0.797064
      4          6           0        0.348588    3.032064    1.207801
      5          1           0        0.419929    2.088734    1.759030
      6          1           0        1.034463    3.732788    1.697896
      7          6           0        0.833072    2.817284   -0.233907
      8          1           0        1.885254    2.514868   -0.216065
      9          1           0        0.791134    3.772305   -0.776605
     10          6           0        0.012243    1.800821   -1.033779
     11          1           0        0.344319    1.794582   -2.082520
     12          1           0       -1.029171    2.125426   -1.049986
     13          7           0        0.012708    0.456609   -0.436381
     14          6           0       -1.230311   -0.244049   -0.480773
     15          6           0       -2.053710   -0.168566   -1.613786
     16          1           0       -1.716726    0.387949   -2.482774
     17          6           0       -3.292936   -0.808673   -1.636423
     18          1           0       -3.915964   -0.742159   -2.523452
     19          6           0       -3.719654   -1.540083   -0.526503
     20          1           0       -4.681203   -2.042549   -0.535870
     21          6           0       -2.902417   -1.614035    0.601853
     22          1           0       -3.231952   -2.169582    1.476550
     23          6           0       -1.665073   -0.963229    0.647029
     24          6           0       -0.773697   -1.030243    1.856503
     25          1           0       -1.318956   -1.480811    2.690593
     26          1           0       -0.483524   -0.017429    2.162564
     27          6           0        0.485585   -1.864980    1.582585
     28          1           0        0.166419   -2.869152    1.274349
     29          1           0        1.034657   -2.005558    2.522066
     30          6           0        1.470745   -1.321434    0.555241
     31          6           0        2.728272   -1.943320    0.545331
     32          1           0        2.894011   -2.750902    1.252041
     33          6           0        3.762048   -1.560253   -0.303854
     34          1           0        4.720412   -2.065727   -0.267070
     35          6           0        3.536901   -0.505012   -1.187661
     36          1           0        4.317745   -0.171801   -1.865704
     37          6           0        2.297539    0.126082   -1.209489
     38          1           0        2.140196    0.932204   -1.912542
     39          6           0        1.240316   -0.258393   -0.356802
 ---------------------------------------------------------------------

 SCF Done:  E(RB3LYP) =  -769.355297165     A.U. after   10 cycles

 The electronic state is 1-A.
 Alpha  occ. eigenvalues --  -14.35084 -14.30596 -10.23004 -10.22375 -10.21292
 Alpha  occ. eigenvalues --  -10.19905 -10.19515 -10.19229 -10.18929 -10.18820
 Alpha  occ. eigenvalues --  -10.18802 -10.18788 -10.18654 -10.18641 -10.18488
 Alpha  occ. eigenvalues --  -10.18415 -10.18328 -10.18160 -10.17602  -0.94949
 Alpha  occ. eigenvalues --   -0.87193  -0.85460  -0.84346  -0.79740  -0.76090
 Alpha  occ. eigenvalues --   -0.75428  -0.75113  -0.72293  -0.69842  -0.66485
 Alpha  occ. eigenvalues --   -0.64534  -0.60834  -0.60080  -0.58517  -0.57637
 Alpha  occ. eigenvalues --   -0.55877  -0.51583  -0.50548  -0.49032  -0.47665
 Alpha  occ. eigenvalues --   -0.46850  -0.46734  -0.45547  -0.45242  -0.43599
 Alpha  occ. eigenvalues --   -0.43096  -0.42459  -0.41349  -0.40844  -0.39845
 Alpha  occ. eigenvalues --   -0.39559  -0.38593  -0.37972  -0.37028  -0.35793
 Alpha  occ. eigenvalues --   -0.35646  -0.34711  -0.34341  -0.33894  -0.33497
 Alpha  occ. eigenvalues --   -0.32785  -0.32646  -0.29012  -0.24885  -0.24419
 Alpha  occ. eigenvalues --   -0.23880  -0.23287  -0.19514
 Alpha virt. eigenvalues --   -0.00740  -0.00029   0.00253   0.00920   0.08002
 Alpha virt. eigenvalues --    0.09431   0.10204   0.10955   0.12035   0.12786
 Alpha virt. eigenvalues --    0.13661   0.14056   0.14514   0.15085   0.16273

 Mulliken charges:
               1
     1  N   -0.769402
     2  H    0.323001
     3  H    0.324659
     4  C   -0.150408
     5  H    0.154745
     6  H    0.140429
     7  C   -0.278016
     8  H    0.144676
     9  H    0.141048
    10  C   -0.161317
    11  H    0.153916
    12  H    0.157813
    13  N   -0.572887
    14  C    0.205333
    15  C   -0.174256
    16  H    0.153690
    17  C   -0.167733
    18  H    0.148183
    19  C   -0.145237
    20  H    0.145199
    21  C   -0.231008
    22  H    0.143906
    23  C    0.151277
    24  C   -0.360378
    25  H    0.152078
    26  H    0.168026
    27  C   -0.341814
    28  H    0.161178
    29  H    0.159695
    30  C    0.141940
    31  C   -0.221630
    32  H    0.139089
    33  C   -0.151252
    34  H    0.141704
    35  C   -0.171514
    36  H    0.145110
    37  C   -0.189694
    38  H    0.149572
    39  C    0.240278
 Sum of Mulliken charges =   0.00000

 Dipole moment (field-independent basis, Debye):
    X=             -0.4111    Y=              0.4753    Z=             -1.7163  Tot=              1.8277
 Quadrupole moment (field-independent basis, Debye-Ang):
   XX=           -107.5883   YY=           -108.9359   ZZ=           -111.9788
   XY=              2.4053   XZ=              2.4401   YZ=            -14.4996

 Normal termination of Gaussian 09 at Sun Jan 24 22:45:08 2021.
