 Gaussian 09, Revision D.01,

 -----------------
 #p b3lyp/6-31G(d)
 -----------------

 ---------------------------------------------
 SET_328_BBB20_conf1.geo_120_180_180.n.pdb.xyz
 ---------------------------------------------
 Symbolic Z-matrix:
 Charge =  0 Multiplicity = 1

 SCF Done:  E(RB3LYP) =  -769.344162547     A.U. after   15 cycles
 Normal termination of Gaussian 09 at Sun Jan 24 22:20:34 2021.
 Gaussian 09:  AM64L-G09RevD.01 24-Apr-2013

 ----------------------------------------------------------------------
 #p b3lyp/6-31G(d) scrf=(iefpcm,read,solvent=Water) geom=allcheck guess
 =read
 ----------------------------------------------------------------------

 Structure from the checkpoint file:  "SET_328_BBB20_conf1.geo_120_180_180.n.pdb.xyz.mst.n.w.chk"
 ---------------------------------------------
 SET_328_BBB20_conf1.geo_120_180_180.n.pdb.xyz
 ---------------------------------------------
 Charge =  0 Multiplicity = 1

                         Standard orientation:
 ---------------------------------------------------------------------
 Center     Atomic      Atomic             Coordinates (Angstroms)
 Number     Number       Type             X           Y           Z
 ---------------------------------------------------------------------
      1          7           0       -4.556314   -2.251734    1.042270
      2          1           0       -4.266747   -2.497215    1.992003
      3          1           0       -5.235029   -2.966122    0.781979
      4          6           0       -3.389501   -2.364514    0.156125
      5          1           0       -3.737416   -2.225790   -0.874579
      6          1           0       -2.905731   -3.354903    0.191820
      7          6           0       -2.357947   -1.289926    0.491190
      8          1           0       -2.028649   -1.406694    1.531556
      9          1           0       -2.833599   -0.307342    0.415907
     10          6           0       -1.133786   -1.367342   -0.420909
     11          1           0       -1.441714   -1.319903   -1.476695
     12          1           0       -0.659813   -2.340861   -0.288321
     13          7           0       -0.108754   -0.363877   -0.093596
     14          6           0        1.242831   -0.800229   -0.239323
     15          6           0        1.608879   -1.673642   -1.274282
     16          1           0        0.860339   -1.987233   -1.993225
     17          6           0        2.919752   -2.138056   -1.380867
     18          1           0        3.186387   -2.811861   -2.189820
     19          6           0        3.883817   -1.726830   -0.459193
     20          1           0        4.905254   -2.082155   -0.536757
     21          6           0        3.517255   -0.861950    0.572948
     22          1           0        4.253908   -0.548484    1.307565
     23          6           0        2.204569   -0.401522    0.704349
     24          6           0        1.795895    0.519652    1.816079
     25          1           0        2.604141    0.593558    2.548269
     26          1           0        0.918221    0.115149    2.333588
     27          6           0        1.480286    1.920442    1.291901
     28          1           0        2.376266    2.302468    0.786948
     29          1           0        1.314536    2.589703    2.143076
     30          6           0        0.290790    2.064657    0.357718
     31          6           0       -0.118333    3.385181    0.120152
     32          1           0        0.438889    4.177560    0.612459
     33          6           0       -1.203161    3.712916   -0.688250
     34          1           0       -1.488574    4.747217   -0.834091
     35          6           0       -1.914319    2.677171   -1.292190
     36          1           0       -2.766092    2.887267   -1.929550
     37          6           0       -1.526034    1.358027   -1.084454
     38          1           0       -2.085446    0.573525   -1.577147
     39          6           0       -0.426603    1.014531   -0.268612
 ---------------------------------------------------------------------

 SCF Done:  E(RB3LYP) =  -769.354786664     A.U. after   10 cycles

 The electronic state is 1-A.
 Alpha  occ. eigenvalues --  -14.35144 -14.30348 -10.22981 -10.22303 -10.21331
 Alpha  occ. eigenvalues --  -10.20094 -10.19448 -10.19105 -10.18888 -10.18743
 Alpha  occ. eigenvalues --  -10.18723 -10.18673 -10.18597 -10.18596 -10.18395
 Alpha  occ. eigenvalues --  -10.18337 -10.18316 -10.18136 -10.17582  -0.94956
 Alpha  occ. eigenvalues --   -0.87041  -0.85450  -0.84420  -0.79828  -0.76531
 Alpha  occ. eigenvalues --   -0.75447  -0.75105  -0.72313  -0.69920  -0.65829
 Alpha  occ. eigenvalues --   -0.64459  -0.60480  -0.59891  -0.58745  -0.57504
 Alpha  occ. eigenvalues --   -0.56354  -0.51520  -0.50735  -0.48172  -0.47574
 Alpha  occ. eigenvalues --   -0.47027  -0.46790  -0.45941  -0.45388  -0.43676
 Alpha  occ. eigenvalues --   -0.43300  -0.42859  -0.41370  -0.40910  -0.40145
 Alpha  occ. eigenvalues --   -0.38604  -0.38255  -0.37792  -0.36911  -0.36098
 Alpha  occ. eigenvalues --   -0.35317  -0.34806  -0.34225  -0.33572  -0.33489
 Alpha  occ. eigenvalues --   -0.33020  -0.32605  -0.29050  -0.24851  -0.24353
 Alpha  occ. eigenvalues --   -0.23810  -0.23324  -0.19554
 Alpha virt. eigenvalues --   -0.00694   0.00054   0.00305   0.00958   0.08764
 Alpha virt. eigenvalues --    0.09598   0.10549   0.11043   0.11569   0.13143
 Alpha virt. eigenvalues --    0.13513   0.13823   0.14359   0.14864   0.16496

 Mulliken charges:
               1
     1  N   -0.777043
     2  H    0.322646
     3  H    0.327620
     4  C   -0.133191
     5  H    0.140675
     6  H    0.122758
     7  C   -0.264147
     8  H    0.142865
     9  H    0.148572
    10  C   -0.156602
    11  H    0.150895
    12  H    0.165318
    13  N   -0.575256
    14  C    0.207482
    15  C   -0.175780
    16  H    0.153677
    17  C   -0.169175
    18  H    0.147556
    19  C   -0.145379
    20  H    0.144797
    21  C   -0.232224
    22  H    0.143093
    23  C    0.150533
    24  C   -0.348807
    25  H    0.150852
    26  H    0.158915
    27  C   -0.343388
    28  H    0.160776
    29  H    0.159633
    30  C    0.143527
    31  C   -0.220570
    32  H    0.139020
    33  C   -0.151451
    34  H    0.141604
    35  C   -0.171219
    36  H    0.145112
    37  C   -0.191981
    38  H    0.149856
    39  C    0.238430
 Sum of Mulliken charges =   0.00000

 Dipole moment (field-independent basis, Debye):
    X=              0.1910    Y=             -2.5817    Z=              0.4408  Tot=              2.6260
 Quadrupole moment (field-independent basis, Debye-Ang):
   XX=           -109.3215   YY=           -100.5966   ZZ=           -107.9226
   XY=              9.3035   XZ=              4.7521   YZ=              2.2049

 Normal termination of Gaussian 09 at Sun Jan 24 22:24:29 2021.
