 Gaussian 09, Revision D.01,

 -----------------
 #p b3lyp/6-31G(d)
 -----------------

 ----------------------------------------------
 SET_328_BBB301_conf1.geo_090_105_105.n.pdb.xyz
 ----------------------------------------------
 Symbolic Z-matrix:
 Charge =  0 Multiplicity = 1

 SCF Done:  E(RB3LYP) =  -788.426796911     A.U. after   14 cycles
 Normal termination of Gaussian 09 at Mon Jan 25 16:27:28 2021.
 Gaussian 09:  AM64L-G09RevD.01 24-Apr-2013

 ----------------------------------------------------------------------
 #p b3lyp/6-31G(d) scrf=(iefpcm,read,solvent=Water) geom=allcheck guess
 =read
 ----------------------------------------------------------------------

 Structure from the checkpoint file:  "SET_328_BBB301_conf1.geo_090_105_105.n.pdb.xyz.mst.n.w.chk"
 ----------------------------------------------
 SET_328_BBB301_conf1.geo_090_105_105.n.pdb.xyz
 ----------------------------------------------
 Charge =  0 Multiplicity = 1

                         Standard orientation:
 ---------------------------------------------------------------------
 Center     Atomic      Atomic             Coordinates (Angstroms)
 Number     Number       Type             X           Y           Z
 ---------------------------------------------------------------------
      1          6           0        3.723733    0.771666    1.921912
      2          1           0        4.624763    1.350673    2.144114
      3          1           0        3.864568   -0.245542    2.298967
      4          1           0        2.888135    1.226487    2.467051
      5          6           0        3.452133    0.754704    0.413027
      6          6           0        3.244445    2.191193   -0.095810
      7          1           0        2.415213    2.672291    0.434034
      8          1           0        3.010730    2.197397   -1.163383
      9          1           0        4.142957    2.798042    0.058176
     10          6           0        4.641150    0.106819   -0.307184
     11          1           0        5.557423    0.665650   -0.097415
     12          1           0        4.503804    0.093424   -1.390815
     13          1           0        4.778844   -0.923782    0.032740
     14          7           0        2.240138   -0.079439    0.211883
     15          1           0        1.506358    0.277585    0.824508
     16          6           0        1.702700   -0.155004   -1.148988
     17          1           0        2.529346   -0.366910   -1.832907
     18          1           0        1.214598    0.766072   -1.491827
     19          6           0        0.717908   -1.344595   -1.204418
     20          8           0        1.360250   -2.471759   -0.625675
     21          1           0        1.937131   -2.060743    0.056948
     22          1           0        0.528938   -1.580785   -2.259232
     23          6           0       -0.615885   -1.030959   -0.531085
     24          6           0       -1.479976   -0.068187   -1.073570
     25          1           0       -1.200820    0.452438   -1.987980
     26          6           0       -2.700768    0.246675   -0.481339
     27          6           0       -3.642392    1.275826   -1.063719
     28          8           0       -3.959491    2.326332   -0.149053
     29          1           0       -4.393097    1.891821    0.605815
     30          1           0       -4.562060    0.783448   -1.411464
     31          1           0       -3.179020    1.750621   -1.932803
     32          6           0       -3.065346   -0.425561    0.699443
     33          8           0       -4.276372   -0.077631    1.241863
     34          1           0       -4.422679   -0.556838    2.078601
     35          6           0       -2.226016   -1.388111    1.256654
     36          1           0       -2.518479   -1.907152    2.165370
     37          6           0       -1.009415   -1.684900    0.636391
     38          1           0       -0.356353   -2.441050    1.053370
 ---------------------------------------------------------------------

 SCF Done:  E(RB3LYP) =  -788.447391647     A.U. after   10 cycles

 The electronic state is 1-A.
 Alpha  occ. eigenvalues --  -19.18215 -19.13570 -19.13262 -14.32231 -10.24942
 Alpha  occ. eigenvalues --  -10.23442 -10.23053 -10.22056 -10.20518 -10.19150
 Alpha  occ. eigenvalues --  -10.19012 -10.18869 -10.18705 -10.18638 -10.16998
 Alpha  occ. eigenvalues --  -10.16878 -10.16818  -1.06006  -1.01318  -1.00707
 Alpha  occ. eigenvalues --   -0.90658  -0.85366  -0.78646  -0.76538  -0.75284
 Alpha  occ. eigenvalues --   -0.70018  -0.68387  -0.68250  -0.67096  -0.63343
 Alpha  occ. eigenvalues --   -0.60984  -0.57034  -0.54987  -0.54167  -0.50125
 Alpha  occ. eigenvalues --   -0.49355  -0.48588  -0.47501  -0.46754  -0.45837
 Alpha  occ. eigenvalues --   -0.44094  -0.43390  -0.42903  -0.42488  -0.42256
 Alpha  occ. eigenvalues --   -0.41311  -0.40542  -0.39442  -0.38985  -0.37953
 Alpha  occ. eigenvalues --   -0.37437  -0.36289  -0.36128  -0.35328  -0.34772
 Alpha  occ. eigenvalues --   -0.33844  -0.33277  -0.32391  -0.32255  -0.31334
 Alpha  occ. eigenvalues --   -0.27043  -0.26234  -0.25019  -0.23291  -0.21874
 Alpha virt. eigenvalues --   -0.00529   0.00766   0.07649   0.08488   0.10868
 Alpha virt. eigenvalues --    0.11290   0.12092   0.12221   0.13112   0.13714
 Alpha virt. eigenvalues --    0.13992   0.14430   0.15541   0.15776   0.15966

 Mulliken charges:
               1
     1  C   -0.458264
     2  H    0.150263
     3  H    0.149014
     4  H    0.145377
     5  C    0.216467
     6  C   -0.456251
     7  H    0.143874
     8  H    0.151892
     9  H    0.146948
    10  C   -0.451203
    11  H    0.149018
    12  H    0.150648
    13  H    0.148568
    14  N   -0.611054
    15  H    0.328901
    16  C   -0.155751
    17  H    0.159130
    18  H    0.145387
    19  C    0.064488
    20  O   -0.685320
    21  H    0.414509
    22  H    0.147135
    23  C    0.129218
    24  C   -0.271433
    25  H    0.142790
    26  C    0.109376
    27  C   -0.116278
    28  O   -0.675267
    29  H    0.432010
    30  H    0.144179
    31  H    0.156672
    32  C    0.293580
    33  O   -0.687763
    34  H    0.465469
    35  C   -0.200810
    36  H    0.153676
    37  C   -0.212797
    38  H    0.143606
 Sum of Mulliken charges =   0.00000

 Dipole moment (field-independent basis, Debye):
    X=              0.4696    Y=              0.4006    Z=              2.5973  Tot=              2.6697
 Quadrupole moment (field-independent basis, Debye-Ang):
   XX=            -93.9349   YY=           -118.7904   ZZ=            -90.8017
   XY=             16.3353   XZ=            -10.0269   YZ=             -5.6333

 Normal termination of Gaussian 09 at Mon Jan 25 16:30:35 2021.
