 Gaussian 09, Revision D.01,

 -----------------
 #p b3lyp/6-31G(d)
 -----------------

 ----------------------------------------------
 SET_328_BBB268_conf1.geo_060_225_255.n.pdb.xyz
 ----------------------------------------------
 Symbolic Z-matrix:
 Charge =  0 Multiplicity = 1

 SCF Done:  E(RB3LYP) =  -976.173640785     A.U. after   16 cycles
 Normal termination of Gaussian 09 at Sun Jan 24 23:13:13 2021.
 Gaussian 09:  AM64L-G09RevD.01 24-Apr-2013

 ----------------------------------------------------------------------
 #p b3lyp/6-31G(d) scrf=(iefpcm,read,solvent=Water) geom=allcheck guess
 =read
 ----------------------------------------------------------------------

 Structure from the checkpoint file:  "SET_328_BBB268_conf1.geo_060_225_255.n.pdb.xyz.mst.n.w.chk"
 ----------------------------------------------
 SET_328_BBB268_conf1.geo_060_225_255.n.pdb.xyz
 ----------------------------------------------
 Charge =  0 Multiplicity = 1

                         Standard orientation:
 ---------------------------------------------------------------------
 Center     Atomic      Atomic             Coordinates (Angstroms)
 Number     Number       Type             X           Y           Z
 ---------------------------------------------------------------------
      1          6           0       -0.649220    3.824905    1.442101
      2          1           0       -0.076225    4.751640    1.547633
      3          1           0       -0.891703    3.450125    2.441823
      4          1           0       -1.565094    4.025336    0.891222
      5          7           0        0.125331    2.824522    0.715973
      6          6           0        1.319923    2.355518    1.404423
      7          1           0        1.058933    1.702927    2.245039
      8          1           0        1.865698    3.219109    1.796228
      9          1           0        1.982779    1.814339    0.734303
     10          6           0       -0.282853    2.430417   -0.517265
     11          8           0       -1.260238    2.940348   -1.081908
     12          6           0        0.500330    1.327557   -1.257174
     13          1           0        1.480436    1.731639   -1.526209
     14          1           0       -0.036181    1.204431   -2.201296
     15          6           0        0.674198    0.005048   -0.573203
     16          6           0       -0.218995   -0.949700   -0.074997
     17          6           0       -1.692460   -0.958992   -0.083541
     18          6           0       -2.466880   -0.045016   -0.814756
     19          6           0       -3.860638   -0.119398   -0.801871
     20          6           0       -4.537338   -1.100555   -0.070335
     21          6           0       -6.044259   -1.173392   -0.064432
     22          1           0       -6.444521   -1.081913    0.951042
     23          1           0       -6.401063   -2.131019   -0.463936
     24          1           0       -6.477417   -0.373596   -0.671271
     25          6           0       -3.762045   -2.016021    0.658426
     26          6           0       -2.373229   -1.950010    0.653757
     27          1           0       -1.791279   -2.667710    1.220505
     28          1           0       -4.255309   -2.789432    1.239844
     29          1           0       -4.433412    0.603356   -1.376574
     30          1           0       -1.998797    0.744330   -1.386687
     31          7           0        0.453798   -2.016161    0.469278
     32          6           0        1.748365   -1.755508    0.310826
     33          6           0        2.889255   -2.503076    0.677275
     34          1           0        2.740780   -3.451621    1.179205
     35          6           0        4.138925   -2.017106    0.391296
     36          1           0        5.018259   -2.586247    0.670832
     37          6           0        4.305640   -0.766423   -0.277824
     38          6           0        5.677727   -0.239880   -0.604376
     39          1           0        5.614872    0.721047   -1.118942
     40          1           0        6.224625   -0.935677   -1.248383
     41          1           0        6.274898   -0.102881    0.302370
     42          6           0        3.192256   -0.051412   -0.626941
     43          1           0        3.250456    0.890317   -1.153608
     44          7           0        1.933577   -0.528794   -0.334708
 ---------------------------------------------------------------------

 SCF Done:  E(RB3LYP) =  -976.186996803     A.U. after   12 cycles

 The electronic state is 1-A.
 Alpha  occ. eigenvalues --  -19.11593 -14.41777 -14.37145 -14.31604 -10.29340
 Alpha  occ. eigenvalues --  -10.25239 -10.23651 -10.22927 -10.22130 -10.21822
 Alpha  occ. eigenvalues --  -10.21103 -10.21023 -10.20974 -10.20336 -10.20115
 Alpha  occ. eigenvalues --  -10.19911 -10.19678 -10.18612 -10.18605 -10.18571
 Alpha  occ. eigenvalues --  -10.18521 -10.18520 -10.17936  -1.03681  -1.03352
 Alpha  occ. eigenvalues --   -0.93561  -0.91156  -0.85570  -0.84391  -0.79799
 Alpha  occ. eigenvalues --   -0.77484  -0.76799  -0.74184  -0.72762  -0.71727
 Alpha  occ. eigenvalues --   -0.70805  -0.68985  -0.67590  -0.62903  -0.62157
 Alpha  occ. eigenvalues --   -0.60858  -0.59402  -0.56686  -0.54864  -0.52869
 Alpha  occ. eigenvalues --   -0.50357  -0.49677  -0.49326  -0.48017  -0.47895
 Alpha  occ. eigenvalues --   -0.46548  -0.46360  -0.45838  -0.45348  -0.44719
 Alpha  occ. eigenvalues --   -0.42799  -0.42139  -0.41884  -0.41614  -0.40875
 Alpha  occ. eigenvalues --   -0.40642  -0.40360  -0.40139  -0.39754  -0.39264
 Alpha  occ. eigenvalues --   -0.38300  -0.38115  -0.37578  -0.37111  -0.36486
 Alpha  occ. eigenvalues --   -0.35586  -0.34285  -0.33366  -0.33184  -0.31828
 Alpha  occ. eigenvalues --   -0.28182  -0.26813  -0.25896  -0.25085  -0.24349
 Alpha  occ. eigenvalues --   -0.21998  -0.20473
 Alpha virt. eigenvalues --   -0.04128  -0.01621  -0.00085   0.01097   0.02095
 Alpha virt. eigenvalues --    0.07228   0.08954   0.10573   0.10803   0.11795
 Alpha virt. eigenvalues --    0.12181   0.12832   0.13023   0.13577   0.14365

 Mulliken charges:
               1
     1  C   -0.325348
     2  H    0.171597
     3  H    0.171532
     4  H    0.188290
     5  N   -0.397186
     6  C   -0.322642
     7  H    0.177628
     8  H    0.178197
     9  H    0.176070
    10  C    0.628404
    11  O   -0.588884
    12  C   -0.483246
    13  H    0.203528
    14  H    0.202872
    15  C    0.296650
    16  C    0.113608
    17  C    0.085420
    18  C   -0.203932
    19  C   -0.226474
    20  C    0.172526
    21  C   -0.535265
    22  H    0.169673
    23  H    0.169538
    24  H    0.164278
    25  C   -0.200800
    26  C   -0.189763
    27  H    0.148430
    28  H    0.140192
    29  H    0.140393
    30  H    0.159173
    31  N   -0.637973
    32  C    0.543358
    33  C   -0.198064
    34  H    0.168300
    35  C   -0.164328
    36  H    0.160605
    37  C    0.112872
    38  C   -0.532576
    39  H    0.170992
    40  H    0.175999
    41  H    0.176052
    42  C   -0.008622
    43  H    0.197390
    44  N   -0.548465
 Sum of Mulliken charges =   0.00000

 Dipole moment (field-independent basis, Debye):
    X=              6.9974    Y=              2.1475    Z=              1.6390  Tot=              7.5008
 Quadrupole moment (field-independent basis, Debye-Ang):
   XX=           -103.2494   YY=           -136.1745   ZZ=           -132.4072
   XY=              7.1856   XZ=             -4.6460   YZ=              6.4451

 Normal termination of Gaussian 09 at Sun Jan 24 23:19:44 2021.
