 Gaussian 09, Revision D.01,

 -----------------
 #p b3lyp/6-31G(d)
 -----------------

 ----------------------------------------------
 SET_328_BBB321_conf1.geo_165_150_225.n.pdb.xyz
 ----------------------------------------------
 Symbolic Z-matrix:
 Charge =  0 Multiplicity = 1

 SCF Done:  E(RB3LYP) =  -1212.31155548     A.U. after   16 cycles
 Normal termination of Gaussian 09 at Thu Jan 28 04:44:10 2021.
 Gaussian 09:  AM64L-G09RevD.01 24-Apr-2013

 ----------------------------------------------------------------------
 #p b3lyp/6-31G(d) scrf=(iefpcm,read,solvent=Water) geom=allcheck guess
 =read
 ----------------------------------------------------------------------

 Structure from the checkpoint file:  "SET_328_BBB321_conf1.geo_165_150_225.n.pdb.xyz.mst.n.w.chk"
 ----------------------------------------------
 SET_328_BBB321_conf1.geo_165_150_225.n.pdb.xyz
 ----------------------------------------------
 Charge =  0 Multiplicity = 1

                         Standard orientation:
 ---------------------------------------------------------------------
 Center     Atomic      Atomic             Coordinates (Angstroms)
 Number     Number       Type             X           Y           Z
 ---------------------------------------------------------------------
      1          6           0       -6.406525    1.205918    0.186937
      2          1           0       -7.378938    0.775990    0.425737
      3          1           0       -6.475565    1.719678   -0.777220
      4          1           0       -6.138717    1.948236    0.943715
      5          6           0       -5.385306    0.086795    0.105416
      6          8           0       -5.717140   -1.096999    0.035547
      7          7           0       -4.086325    0.519392    0.098779
      8          1           0       -3.956108    1.523332    0.158833
      9          6           0       -2.900525   -0.232774   -0.005652
     10          6           0       -2.882765   -1.633973   -0.113326
     11          6           0       -1.655254   -2.289527   -0.204664
     12          6           0       -0.452415   -1.586693   -0.190679
     13          1           0        0.494215   -2.106634   -0.266066
     14          1           0       -1.642319   -3.372358   -0.287273
     15          1           0       -3.815345   -2.176180   -0.120597
     16          6           0       -1.692184    0.473827    0.009065
     17          1           0       -1.710290    1.554108    0.102663
     18          6           0       -0.460446   -0.188008   -0.085835
     19          6           0        0.805502    0.569731   -0.074649
     20          7           0        2.007741   -0.119937   -0.013716
     21          6           0        0.915712    1.932961   -0.126862
     22          1           0        0.126925    2.666338   -0.192691
     23         16           0        2.585276    2.410416   -0.096694
     24          6           0        3.050433    0.688873   -0.013377
     25          7           0        4.373397    0.424411    0.042270
     26          6           0        4.818136   -0.828557    0.113816
     27          7           0        6.161906   -0.999565    0.253430
     28          1           0        6.561162   -1.901082    0.014364
     29          1           0        6.735591   -0.194714    0.033362
     30          7           0        4.050547   -1.934293    0.081693
     31          1           0        4.452052   -2.845388    0.268143
     32          1           0        3.042994   -1.803469    0.121435
 ---------------------------------------------------------------------

 SCF Done:  E(RB3LYP) =  -1212.34574449     A.U. after   11 cycles

 The electronic state is 1-A.
 Alpha  occ. eigenvalues --  -88.90279 -19.12474 -14.37469 -14.35161 -14.34999
 Alpha  occ. eigenvalues --  -14.32529 -14.31226 -10.30801 -10.29929 -10.27802
 Alpha  occ. eigenvalues --  -10.23975 -10.22542 -10.20786 -10.20535 -10.19297
 Alpha  occ. eigenvalues --  -10.19198 -10.18719 -10.18576 -10.18542  -7.96465
 Alpha  occ. eigenvalues --   -5.92854  -5.92520  -5.92144  -1.04092  -0.99854
 Alpha  occ. eigenvalues --   -0.95579  -0.94235  -0.87949  -0.87729  -0.85123
 Alpha  occ. eigenvalues --   -0.78974  -0.77468  -0.76051  -0.72274  -0.70943
 Alpha  occ. eigenvalues --   -0.64443  -0.62566  -0.62285  -0.58912  -0.57981
 Alpha  occ. eigenvalues --   -0.55601  -0.54003  -0.53477  -0.51293  -0.49395
 Alpha  occ. eigenvalues --   -0.48623  -0.47341  -0.47130  -0.45304  -0.44754
 Alpha  occ. eigenvalues --   -0.43810  -0.43637  -0.42597  -0.41050  -0.40574
 Alpha  occ. eigenvalues --   -0.40295  -0.39911  -0.39143  -0.37484  -0.36350
 Alpha  occ. eigenvalues --   -0.36072  -0.34230  -0.31813  -0.29710  -0.28320
 Alpha  occ. eigenvalues --   -0.28265  -0.27528  -0.26986  -0.25871  -0.24873
 Alpha  occ. eigenvalues --   -0.22299  -0.19545
 Alpha virt. eigenvalues --   -0.03450  -0.01648  -0.00536   0.02341   0.03488
 Alpha virt. eigenvalues --    0.07213   0.08804   0.09137   0.09958   0.10281
 Alpha virt. eigenvalues --    0.11479   0.13034   0.13706   0.14127   0.14682

 Mulliken charges:
               1
     1  C   -0.544006
     2  H    0.181555
     3  H    0.196063
     4  H    0.185387
     5  C    0.592669
     6  O   -0.554983
     7  N   -0.704530
     8  H    0.389828
     9  C    0.345121
    10  C   -0.180526
    11  C   -0.166613
    12  C   -0.197169
    13  H    0.153943
    14  H    0.150558
    15  H    0.168420
    16  C   -0.277805
    17  H    0.157849
    18  C    0.107588
    19  C    0.275832
    20  N   -0.585172
    21  C   -0.431395
    22  H    0.199061
    23  S    0.182663
    24  C    0.305956
    25  N   -0.616718
    26  C    0.662852
    27  N   -0.772450
    28  H    0.387032
    29  H    0.382642
    30  N   -0.783600
    31  H    0.390792
    32  H    0.399156
 Sum of Mulliken charges =   0.00000

 Dipole moment (field-independent basis, Debye):
    X=              4.6565    Y=             -0.2797    Z=             -0.0405  Tot=              4.6651
 Quadrupole moment (field-independent basis, Debye-Ang):
   XX=            -83.0311   YY=            -99.0374   ZZ=           -121.8069
   XY=            -53.2761   XZ=             -3.4725   YZ=             -0.0056

 Normal termination of Gaussian 09 at Thu Jan 28 04:47:18 2021.
