 Gaussian 09, Revision D.01,

 -----------------
 #p b3lyp/6-31G(d)
 -----------------

 ----------------------------------------------
 SET_328_BBB321_conf1.geo_165_030_120.n.pdb.xyz
 ----------------------------------------------
 Symbolic Z-matrix:
 Charge =  0 Multiplicity = 1

 SCF Done:  E(RB3LYP) =  -1212.31133048     A.U. after   16 cycles
 Normal termination of Gaussian 09 at Thu Jan 28 04:44:08 2021.
 Gaussian 09:  AM64L-G09RevD.01 24-Apr-2013

 ----------------------------------------------------------------------
 #p b3lyp/6-31G(d) scrf=(iefpcm,read,solvent=Water) geom=allcheck guess
 =read
 ----------------------------------------------------------------------

 Structure from the checkpoint file:  "SET_328_BBB321_conf1.geo_165_030_120.n.pdb.xyz.mst.n.w.chk"
 ----------------------------------------------
 SET_328_BBB321_conf1.geo_165_030_120.n.pdb.xyz
 ----------------------------------------------
 Charge =  0 Multiplicity = 1

                         Standard orientation:
 ---------------------------------------------------------------------
 Center     Atomic      Atomic             Coordinates (Angstroms)
 Number     Number       Type             X           Y           Z
 ---------------------------------------------------------------------
      1          6           0        4.937723    2.774383    0.063293
      2          1           0        6.020758    2.886099    0.055949
      3          1           0        4.531948    3.242342    0.964359
      4          1           0        4.515525    3.295788   -0.800882
      5          6           0        4.598399    1.296379    0.020416
      6          8           0        5.467849    0.424478   -0.016821
      7          7           0        3.254746    1.033588    0.026937
      8          1           0        2.644029    1.845010    0.062276
      9          6           0        2.595359   -0.210193   -0.003565
     10          6           0        3.266185   -1.441622   -0.045191
     11          6           0        2.515249   -2.619583   -0.072304
     12          6           0        1.125657   -2.596509   -0.056677
     13          1           0        0.570141   -3.527404   -0.082069
     14          1           0        3.033793   -3.573362   -0.106919
     15          1           0        4.345097   -1.458565   -0.057607
     16          6           0        1.192578   -0.186931    0.012103
     17          1           0        0.668701    0.759976    0.045563
     18          6           0        0.445481   -1.367255   -0.012629
     19          6           0       -1.027591   -1.303009    0.007558
     20          7           0       -1.652449   -0.063906   -0.002642
     21          6           0       -1.870093   -2.381175    0.042338
     22          1           0       -1.617170   -3.429451    0.064787
     23         16           0       -3.526594   -1.860167    0.058492
     24          6           0       -2.968137   -0.165634    0.017761
     25          7           0       -3.928803    0.784590    0.011042
     26          6           0       -3.614739    2.077365   -0.027769
     27          7           0       -4.646224    2.961657   -0.123833
     28          1           0       -5.561016    2.593911    0.106107
     29          1           0       -4.481688    3.924647    0.147791
     30          7           0       -2.365163    2.579088   -0.003343
     31          1           0       -1.595061    1.918855   -0.068069
     32          1           0       -2.203515    3.566569   -0.161749
 ---------------------------------------------------------------------

 SCF Done:  E(RB3LYP) =  -1212.34599036     A.U. after   12 cycles

 The electronic state is 1-A.
 Alpha  occ. eigenvalues --  -88.90300 -19.12488 -14.37433 -14.35202 -14.35006
 Alpha  occ. eigenvalues --  -14.32564 -14.31248 -10.30820 -10.29911 -10.27838
 Alpha  occ. eigenvalues --  -10.23887 -10.22555 -10.20811 -10.20512 -10.19224
 Alpha  occ. eigenvalues --  -10.19006 -10.18768 -10.18698 -10.18528  -7.96487
 Alpha  occ. eigenvalues --   -5.92877  -5.92542  -5.92166  -1.04068  -0.99867
 Alpha  occ. eigenvalues --   -0.95605  -0.94153  -0.87983  -0.87738  -0.85121
 Alpha  occ. eigenvalues --   -0.79001  -0.77501  -0.75933  -0.72451  -0.70843
 Alpha  occ. eigenvalues --   -0.64368  -0.63332  -0.61131  -0.59329  -0.58101
 Alpha  occ. eigenvalues --   -0.55662  -0.54473  -0.52778  -0.51015  -0.49501
 Alpha  occ. eigenvalues --   -0.48546  -0.47776  -0.47127  -0.45294  -0.44743
 Alpha  occ. eigenvalues --   -0.43780  -0.43601  -0.42402  -0.41151  -0.40727
 Alpha  occ. eigenvalues --   -0.40337  -0.39911  -0.39121  -0.37596  -0.36100
 Alpha  occ. eigenvalues --   -0.35478  -0.34859  -0.31863  -0.29616  -0.28454
 Alpha  occ. eigenvalues --   -0.28301  -0.27575  -0.27019  -0.25860  -0.24624
 Alpha  occ. eigenvalues --   -0.22481  -0.19506
 Alpha virt. eigenvalues --   -0.03464  -0.01215  -0.00942   0.02311   0.03377
 Alpha virt. eigenvalues --    0.07363   0.08549   0.09445   0.09782   0.10216
 Alpha virt. eigenvalues --    0.11620   0.12947   0.13529   0.14107   0.14895

 Mulliken charges:
               1
     1  C   -0.544029
     2  H    0.180951
     3  H    0.191280
     4  H    0.191201
     5  C    0.591122
     6  O   -0.554544
     7  N   -0.704571
     8  H    0.389798
     9  C    0.350322
    10  C   -0.181114
    11  C   -0.169683
    12  C   -0.203165
    13  H    0.148137
    14  H    0.151110
    15  H    0.167621
    16  C   -0.274350
    17  H    0.165763
    18  C    0.104287
    19  C    0.278905
    20  N   -0.586279
    21  C   -0.431735
    22  H    0.199502
    23  S    0.184272
    24  C    0.305181
    25  N   -0.616692
    26  C    0.662122
    27  N   -0.771851
    28  H    0.382434
    29  H    0.386924
    30  N   -0.785978
    31  H    0.402199
    32  H    0.390860
 Sum of Mulliken charges =   0.00000

 Dipole moment (field-independent basis, Debye):
    X=             -3.5633    Y=              9.5418    Z=              0.5956  Tot=             10.2029
 Quadrupole moment (field-independent basis, Debye-Ang):
   XX=           -135.9037   YY=            -71.3631   ZZ=           -121.7520
   XY=            -12.0902   XZ=             -2.9768   YZ=              2.0149

 Normal termination of Gaussian 09 at Thu Jan 28 04:47:31 2021.
