 Gaussian 09, Revision D.01,

 -----------------
 #p b3lyp/6-31G(d)
 -----------------

 ----------------------------------------------
 SET_328_BBB272_conf1.geo_345_270_180.n.pdb.xyz
 ----------------------------------------------
 Symbolic Z-matrix:
 Charge =  0 Multiplicity = 1

 SCF Done:  E(RB3LYP) =  -648.694091195     A.U. after   15 cycles

 1\1\GINC-PIRINEUS26\SP\RB3LYP\6-31G(d)\C9H8O4\UBAFAR01\29-Mar-2021\0\\
 #p b3lyp/6-31G(d)\\SET_328_BBB272_conf1.geo_345_270_180.n.pdb.xyz\\0,1
 \C,0,-1.091,-2.057,-2.582\H,0,-0.558,-1.71,-3.47\H,0,-2.101,-2.369,-2.
 844\H,0,-0.54,-2.908,-2.173\C,0,-1.146,-0.978,-1.543\O,0,-2.121,-0.619
 ,-0.924\O,0,0.091,-0.411,-1.378\C,0,0.258,0.508,-0.347\C,0,0.436,0.093
 ,0.986\C,0,0.373,-1.341,1.372\O,0,0.729,-1.543,2.655\H,0,0.648,-2.501,
 2.836\O,0,0.042,-2.258,0.638\C,0,0.688,1.079,1.954\H,0,0.827,0.773,2.9
 83\C,0,0.757,2.426,1.612\H,0,0.95,3.169,2.377\C,0,0.582,2.812,0.281\H,

 Normal termination of Gaussian 09 at Mon Mar 29 22:43:23 2021.
 Gaussian 09:  AM64L-G09RevD.01 24-Apr-2013

 ----------------------------------------------------------------------
 #p b3lyp/6-31G(d) scrf=(iefpcm,read,solvent=Water) geom=allcheck guess
 =read
 ----------------------------------------------------------------------

 Structure from the checkpoint file:  "SET_328_BBB272_conf1.geo_345_270_180.n.pdb.xyz.mst.n.w.chk"
 ----------------------------------------------
 SET_328_BBB272_conf1.geo_345_270_180.n.pdb.xyz
 ----------------------------------------------
 Charge =  0 Multiplicity = 1

                         Standard orientation:
 ---------------------------------------------------------------------
 Center     Atomic      Atomic             Coordinates (Angstroms)
 Number     Number       Type             X           Y           Z
 ---------------------------------------------------------------------
      1          6           0        3.429700   -0.586725   -0.308053
      2          1           0        3.570889   -1.361338   -1.065076
      3          1           0        4.178833   -0.682639    0.476604
      4          1           0        3.537078    0.383936   -0.799346
      5          6           0        2.056689   -0.673024    0.287078
      6          8           0        1.775703   -0.654018    1.463239
      7          8           0        1.114948   -0.794580   -0.701471
      8          6           0       -0.226831   -0.738792   -0.338253
      9          6           0       -0.869253    0.487407   -0.084227
     10          6           0       -0.129402    1.776300   -0.110631
     11          8           0       -0.948371    2.840144   -0.005015
     12          1           0       -0.390437    3.643699   -0.014715
     13          8           0        1.080498    1.896245   -0.215326
     14          6           0       -2.246856    0.464341    0.188540
     15          1           0       -2.753013    1.400742    0.385411
     16          6           0       -2.958649   -0.731044    0.211764
     17          1           0       -4.020725   -0.723954    0.427324
     18          6           0       -2.299105   -1.934488   -0.048825
     19          1           0       -2.843434   -2.870752   -0.038028
     20          6           0       -0.932722   -1.936363   -0.325344
     21          1           0       -0.402838   -2.857686   -0.535878
 ---------------------------------------------------------------------

 SCF Done:  E(RB3LYP) =  -648.709213194     A.U. after   11 cycles

 The electronic state is 1-A.
 Alpha  occ. eigenvalues --  -19.20516 -19.19587 -19.14778 -19.14421 -10.33162
 Alpha  occ. eigenvalues --  -10.33115 -10.26972 -10.21900 -10.20881 -10.20865
 Alpha  occ. eigenvalues --  -10.20394 -10.20139 -10.19290  -1.11785  -1.10648
 Alpha  occ. eigenvalues --   -1.03114  -1.01615  -0.87288  -0.78234  -0.77814
 Alpha  occ. eigenvalues --   -0.73978  -0.67213  -0.63659  -0.61953  -0.56785
 Alpha  occ. eigenvalues --   -0.52874  -0.49968  -0.49294  -0.48893  -0.48781
 Alpha  occ. eigenvalues --   -0.46984  -0.45430  -0.44993  -0.44316  -0.41299
 Alpha  occ. eigenvalues --   -0.40845  -0.40057  -0.38916  -0.37672  -0.37072
 Alpha  occ. eigenvalues --   -0.36300  -0.32749  -0.31707  -0.28690  -0.28122
 Alpha  occ. eigenvalues --   -0.27016  -0.25945
 Alpha virt. eigenvalues --   -0.05540  -0.01482   0.00519   0.05045   0.08804
 Alpha virt. eigenvalues --    0.10878   0.12059   0.14312   0.15208   0.15927
 Alpha virt. eigenvalues --    0.17067   0.18025   0.18420   0.19773   0.23421

 Mulliken charges:
               1
     1  C   -0.532836
     2  H    0.195585
     3  H    0.186675
     4  H    0.205865
     5  C    0.633840
     6  O   -0.506572
     7  O   -0.522639
     8  C    0.301273
     9  C    0.069942
    10  C    0.571183
    11  O   -0.593500
    12  H    0.464846
    13  O   -0.521542
    14  C   -0.192256
    15  H    0.178122
    16  C   -0.135294
    17  H    0.164792
    18  C   -0.139984
    19  H    0.170608
    20  C   -0.167532
    21  H    0.169424
 Sum of Mulliken charges =   0.00000

 Dipole moment (field-independent basis, Debye):
    X=             -2.3083    Y=             -0.1065    Z=             -1.9298  Tot=              3.0106
 Quadrupole moment (field-independent basis, Debye-Ang):
   XX=            -61.1920   YY=            -57.4087   ZZ=            -79.5118
   XY=             -0.2288   XZ=             -5.1894   YZ=              2.6196

 1\1\GINC-PIRINEUS26\SP\RB3LYP\6-31G(d)\C9H8O4\UBAFAR01\29-Mar-2021\0\\
 #p b3lyp/6-31G(d) scrf=(iefpcm,read,solvent=Water) geom=allcheck guess
 =read\\SET_328_BBB272_conf1.geo_345_270_180.n.pdb.xyz\\0,1\C,0,-1.091,
 -2.057,-2.582\H,0,-0.558,-1.71,-3.47\H,0,-2.101,-2.369,-2.844\H,0,-0.5
 4,-2.908,-2.173\C,0,-1.146,-0.978,-1.543\O,0,-2.121,-0.619,-0.924\O,0,
 0.091,-0.411,-1.378\C,0,0.258,0.508,-0.347\C,0,0.436,0.093,0.986\C,0,0
 .373,-1.341,1.372\O,0,0.729,-1.543,2.655\H,0,0.648,-2.501,2.836\O,0,0.
 042,-2.258,0.638\C,0,0.688,1.079,1.954\H,0,0.827,0.773,2.983\C,0,0.757

 Normal termination of Gaussian 09 at Mon Mar 29 22:44:26 2021.
