 Gaussian 09, Revision D.01,

 -----------------
 #p b3lyp/6-31G(d)
 -----------------

 ----------------------------------------------
 SET_328_BBB292_conf1.geo_090_300_120.n.pdb.xyz
 ----------------------------------------------
 Symbolic Z-matrix:
 Charge =  0 Multiplicity = 1

 SCF Done:  E(RB3LYP) =  -705.226376706     A.U. after   15 cycles
 Normal termination of Gaussian 09 at Mon Mar 29 22:44:50 2021.
 Gaussian 09:  AM64L-G09RevD.01 24-Apr-2013

 ----------------------------------------------------------------------
 #p b3lyp/6-31G(d) scrf=(iefpcm,read,solvent=Water) geom=allcheck guess
 =read
 ----------------------------------------------------------------------

 Structure from the checkpoint file:  "SET_328_BBB292_conf1.geo_090_300_120.n.pdb.xyz.mst.n.w.chk"
 ----------------------------------------------
 SET_328_BBB292_conf1.geo_090_300_120.n.pdb.xyz
 ----------------------------------------------
 Charge =  0 Multiplicity = 1

                         Standard orientation:
 ---------------------------------------------------------------------
 Center     Atomic      Atomic             Coordinates (Angstroms)
 Number     Number       Type             X           Y           Z
 ---------------------------------------------------------------------
      1          7           0        2.314398   -1.420239    1.023050
      2          1           0        1.334943   -1.607203    1.235270
      3          1           0        2.789818   -2.319182    0.961537
      4          6           0        2.438732   -0.667058   -0.230866
      5          6           0        2.615438    0.821494    0.125837
      6          8           0        2.847097    1.026271    1.419513
      7          1           0        2.790894    0.098755    1.809851
      8          8           0        2.585567    1.727349   -0.688496
      9          1           0        3.385689   -0.954551   -0.700194
     10          6           0        1.319298   -0.884505   -1.274313
     11          1           0        1.409306   -1.910567   -1.642104
     12          1           0        1.526372   -0.217947   -2.116002
     13          6           0       -0.083720   -0.663655   -0.754531
     14          6           0       -0.619391    0.632989   -0.648306
     15          1           0       -0.025305    1.488249   -0.951454
     16          6           0       -1.904889    0.831140   -0.157995
     17          8           0       -2.510130    2.052049   -0.023397
     18          1           0       -1.911603    2.758451   -0.324921
     19          6           0       -2.691368   -0.267601    0.239602
     20          8           0       -3.955796   -0.074464    0.715184
     21          1           0       -4.137825    0.884567    0.704413
     22          6           0       -2.170629   -1.552935    0.137633
     23          1           0       -2.786382   -2.393380    0.440524
     24          6           0       -0.874792   -1.746627   -0.356446
     25          1           0       -0.482670   -2.754619   -0.444391
 ---------------------------------------------------------------------

 SCF Done:  E(RB3LYP) =  -705.255222160     A.U. after   11 cycles

 The electronic state is 1-A.
 Alpha  occ. eigenvalues --  -19.18165 -19.17990 -19.17384 -19.13237 -14.33512
 Alpha  occ. eigenvalues --  -10.31307 -10.24939 -10.24636 -10.23292 -10.19484
 Alpha  occ. eigenvalues --  -10.19208 -10.18796 -10.18782 -10.18608  -1.09486
 Alpha  occ. eigenvalues --   -1.07070  -1.04240  -1.01068  -0.90178  -0.85117
 Alpha  occ. eigenvalues --   -0.77547  -0.74175  -0.72094  -0.65648  -0.63521
 Alpha  occ. eigenvalues --   -0.59234  -0.58029  -0.54696  -0.54158  -0.52329
 Alpha  occ. eigenvalues --   -0.49277  -0.48061  -0.47189  -0.44654  -0.44154
 Alpha  occ. eigenvalues --   -0.43132  -0.42891  -0.42225  -0.41241  -0.39873
 Alpha  occ. eigenvalues --   -0.39010  -0.37527  -0.36522  -0.35861  -0.34542
 Alpha  occ. eigenvalues --   -0.33823  -0.32158  -0.30873  -0.29191  -0.25528
 Alpha  occ. eigenvalues --   -0.23874  -0.20882
 Alpha virt. eigenvalues --   -0.00307   0.01211   0.01533   0.07730   0.08807
 Alpha virt. eigenvalues --    0.11450   0.12848   0.13456   0.14399   0.15486
 Alpha virt. eigenvalues --    0.16370   0.17324   0.18159   0.19107   0.19974

 Mulliken charges:
               1
     1  N   -0.807624
     2  H    0.353950
     3  H    0.369624
     4  C   -0.073115
     5  C    0.621738
     6  O   -0.604852
     7  H    0.452928
     8  O   -0.544361
     9  H    0.199389
    10  C   -0.356765
    11  H    0.163255
    12  H    0.168765
    13  C    0.132171
    14  C   -0.269226
    15  H    0.158344
    16  C    0.306435
    17  O   -0.695738
    18  H    0.468016
    19  C    0.312028
    20  O   -0.682869
    21  H    0.456686
    22  C   -0.198272
    23  H    0.148627
    24  C   -0.222684
    25  H    0.143551
 Sum of Mulliken charges =   0.00000

 Dipole moment (field-independent basis, Debye):
    X=              0.4788    Y=             -3.9057    Z=              0.0337  Tot=              3.9351
 Quadrupole moment (field-independent basis, Debye-Ang):
   XX=            -87.0303   YY=            -71.2619   ZZ=            -82.9265
   XY=            -23.9031   XZ=              1.2056   YZ=             -1.9242

 Normal termination of Gaussian 09 at Mon Mar 29 22:46:34 2021.
