 Gaussian 09, Revision D.01,

 -----------------
 #p b3lyp/6-31G(d)
 -----------------

 ----------------------------------------------
 SET_328_BBB321_conf1.geo_180_345_240.n.pdb.xyz
 ----------------------------------------------
 Symbolic Z-matrix:
 Charge =  0 Multiplicity = 1

 SCF Done:  E(RB3LYP) =  -1212.31155331     A.U. after   16 cycles
 Normal termination of Gaussian 09 at Thu Jan 28 04:49:55 2021.
 Gaussian 09:  AM64L-G09RevD.01 24-Apr-2013

 ----------------------------------------------------------------------
 #p b3lyp/6-31G(d) scrf=(iefpcm,read,solvent=Water) geom=allcheck guess
 =read
 ----------------------------------------------------------------------

 Structure from the checkpoint file:  "SET_328_BBB321_conf1.geo_180_345_240.n.pdb.xyz.mst.n.w.chk"
 ----------------------------------------------
 SET_328_BBB321_conf1.geo_180_345_240.n.pdb.xyz
 ----------------------------------------------
 Charge =  0 Multiplicity = 1

                         Standard orientation:
 ---------------------------------------------------------------------
 Center     Atomic      Atomic             Coordinates (Angstroms)
 Number     Number       Type             X           Y           Z
 ---------------------------------------------------------------------
      1          6           0       -4.965297    2.765702   -0.053938
      2          1           0       -5.469601    3.016308    0.883422
      3          1           0       -5.673607    2.945003   -0.866504
      4          1           0       -4.105094    3.423764   -0.178245
      5          6           0       -4.603823    1.293292   -0.037910
      6          8           0       -5.473236    0.419966   -0.033130
      7          7           0       -3.261041    1.034992   -0.019504
      8          1           0       -2.649740    1.844780   -0.028058
      9          6           0       -2.598034   -0.208414    0.012422
     10          6           0       -3.266855   -1.440280    0.060708
     11          6           0       -2.512703   -2.615565    0.089650
     12          6           0       -1.123332   -2.589198    0.070324
     13          1           0       -0.566897   -3.518172    0.097260
     14          1           0       -3.028181   -3.569372    0.129681
     15          1           0       -4.345851   -1.460941    0.076709
     16          6           0       -1.196408   -0.180915   -0.006188
     17          1           0       -0.678957    0.771362   -0.044035
     18          6           0       -0.445587   -1.359480    0.020717
     19          6           0        1.028174   -1.296702   -0.006257
     20          7           0        1.657691   -0.060205    0.004775
     21          6           0        1.867054   -2.377276   -0.046526
     22          1           0        1.610637   -3.425859   -0.070483
     23         16           0        3.525079   -1.862072   -0.070885
     24          6           0        2.973313   -0.165899   -0.023975
     25          7           0        3.937527    0.779667   -0.019796
     26          6           0        3.628840    2.073661    0.029638
     27          7           0        2.381744    2.580756    0.022167
     28          1           0        2.223607    3.568137    0.180156
     29          1           0        1.609075    1.923700    0.085107
     30          7           0        4.665075    2.953016    0.117913
     31          1           0        5.578149    2.583786   -0.117914
     32          1           0        4.502062    3.919799   -0.138779
 ---------------------------------------------------------------------

 SCF Done:  E(RB3LYP) =  -1212.34616821     A.U. after   12 cycles

 The electronic state is 1-A.
 Alpha  occ. eigenvalues --  -88.90292 -19.12229 -14.37610 -14.35204 -14.35006
 Alpha  occ. eigenvalues --  -14.32558 -14.31244 -10.30831 -10.29874 -10.27833
 Alpha  occ. eigenvalues --  -10.23888 -10.22567 -10.20816 -10.20566 -10.19232
 Alpha  occ. eigenvalues --  -10.19097 -10.18805 -10.18751 -10.18581  -7.96480
 Alpha  occ. eigenvalues --   -5.92870  -5.92536  -5.92160  -1.03955  -0.99871
 Alpha  occ. eigenvalues --   -0.95598  -0.94197  -0.87981  -0.87757  -0.85171
 Alpha  occ. eigenvalues --   -0.78993  -0.77509  -0.75933  -0.72497  -0.70874
 Alpha  occ. eigenvalues --   -0.64415  -0.63385  -0.61179  -0.59361  -0.58118
 Alpha  occ. eigenvalues --   -0.55734  -0.54526  -0.52809  -0.51040  -0.49550
 Alpha  occ. eigenvalues --   -0.48546  -0.47805  -0.47143  -0.45234  -0.44764
 Alpha  occ. eigenvalues --   -0.43792  -0.43631  -0.42438  -0.41120  -0.40707
 Alpha  occ. eigenvalues --   -0.40395  -0.39874  -0.39176  -0.37617  -0.35975
 Alpha  occ. eigenvalues --   -0.35501  -0.34887  -0.31733  -0.29608  -0.28454
 Alpha  occ. eigenvalues --   -0.28312  -0.27558  -0.27005  -0.25819  -0.24649
 Alpha  occ. eigenvalues --   -0.22594  -0.19507
 Alpha virt. eigenvalues --   -0.03501  -0.01259  -0.01004   0.02323   0.03555
 Alpha virt. eigenvalues --    0.07487   0.08371   0.09386   0.09715   0.10244
 Alpha virt. eigenvalues --    0.11613   0.12980   0.13544   0.13921   0.14460

 Mulliken charges:
               1
     1  C   -0.543033
     2  H    0.194242
     3  H    0.189739
     4  H    0.175258
     5  C    0.604405
     6  O   -0.562097
     7  N   -0.710636
     8  H    0.388872
     9  C    0.349123
    10  C   -0.180243
    11  C   -0.169416
    12  C   -0.201819
    13  H    0.148661
    14  H    0.151413
    15  H    0.168547
    16  C   -0.274888
    17  H    0.166051
    18  C    0.105208
    19  C    0.278642
    20  N   -0.586399
    21  C   -0.431990
    22  H    0.199617
    23  S    0.184200
    24  C    0.305482
    25  N   -0.616896
    26  C    0.663716
    27  N   -0.785594
    28  H    0.390929
    29  H    0.401335
    30  N   -0.772439
    31  H    0.382753
    32  H    0.387256
 Sum of Mulliken charges =   0.00000

 Dipole moment (field-independent basis, Debye):
    X=              3.5864    Y=              9.4657    Z=             -0.3751  Tot=             10.1292
 Quadrupole moment (field-independent basis, Debye-Ang):
   XX=           -135.1120   YY=            -71.4555   ZZ=           -121.7167
   XY=             12.2744   XZ=             -3.7335   YZ=             -1.7106

 Normal termination of Gaussian 09 at Thu Jan 28 04:53:02 2021.
