 Gaussian 09, Revision D.01,

 -----------------
 #p b3lyp/6-31G(d)
 -----------------

 ----------------------------------------------
 SET_328_BBB288_conf1.geo_210_105_285.n.pdb.xyz
 ----------------------------------------------
 Symbolic Z-matrix:
 Charge =  0 Multiplicity = 1

 SCF Done:  E(RB3LYP) =  -963.491188023     A.U. after   16 cycles
 Normal termination of Gaussian 09 at Mon Mar 29 22:46:44 2021.
 Gaussian 09:  AM64L-G09RevD.01 24-Apr-2013

 ----------------------------------------------------------------------
 #p b3lyp/6-31G(d) scrf=(iefpcm,read,solvent=Water) geom=allcheck guess
 =read
 ----------------------------------------------------------------------

 Structure from the checkpoint file:  "SET_328_BBB288_conf1.geo_210_105_285.n.pdb.xyz.mst.n.w.chk"
 ----------------------------------------------
 SET_328_BBB288_conf1.geo_210_105_285.n.pdb.xyz
 ----------------------------------------------
 Charge =  0 Multiplicity = 1

                         Standard orientation:
 ---------------------------------------------------------------------
 Center     Atomic      Atomic             Coordinates (Angstroms)
 Number     Number       Type             X           Y           Z
 ---------------------------------------------------------------------
      1          6           0        3.726730    2.125249    0.767954
      2          1           0        2.997953    2.928691    0.901653
      3          1           0        4.468763    2.453096    0.032239
      4          1           0        4.258698    1.981950    1.714944
      5          6           0        3.048898    0.860138    0.329810
      6          6           0        3.862176   -0.325045    0.099892
      7          7           0        3.143330   -1.449116   -0.320598
      8          6           0        1.781213   -1.554234   -0.518214
      9          8           0        1.232646   -2.596166   -0.869020
     10          1           0        3.676572   -2.296345   -0.490272
     11          8           0        5.084222   -0.390061    0.242704
     12          6           0        1.712501    0.770371    0.124654
     13          1           0        1.050701    1.617504    0.249507
     14          7           0        1.081857   -0.382344   -0.282725
     15          6           0       -0.389463   -0.440985   -0.475068
     16          8           0       -0.886645    0.857472   -0.721965
     17          6           0       -1.878360    1.216046    0.270915
     18          6           0       -2.901635    2.137209   -0.355368
     19          8           0       -2.259142    3.370225   -0.645003
     20          1           0       -2.911859    3.940195   -1.083925
     21          1           0       -3.728587    2.268456    0.357162
     22          1           0       -3.305270    1.663584   -1.256910
     23          1           0       -1.385464    1.744707    1.096144
     24          1           0       -0.543081   -1.066636   -1.354231
     25          6           0       -1.135846   -0.979194    0.757318
     26          1           0       -0.547620   -0.794754    1.658665
     27          1           0       -1.335775   -2.046625    0.688934
     28          6           0       -2.403497   -0.120027    0.797069
     29          1           0       -2.817770   -0.026919    1.802643
     30          7           0       -3.445007   -0.621193   -0.140388
     31          7           0       -4.155862   -1.529557    0.288273
     32          7           0       -4.878921   -2.365766    0.574858
 ---------------------------------------------------------------------

 SCF Done:  E(RB3LYP) =  -963.518478980     A.U. after   12 cycles

 The electronic state is 1-A.
 Alpha  occ. eigenvalues --  -19.17402 -19.14314 -19.13275 -19.12673 -14.52106
 Alpha  occ. eigenvalues --  -14.41350 -14.40240 -14.38949 -14.38536 -10.33793
 Alpha  occ. eigenvalues --  -10.30308 -10.29173 -10.25319 -10.25212 -10.25046
 Alpha  occ. eigenvalues --  -10.23364 -10.20419 -10.20375 -10.18573  -1.14682
 Alpha  occ. eigenvalues --   -1.08212  -1.06506  -1.03922  -1.01473  -0.98939
 Alpha  occ. eigenvalues --   -0.97432  -0.92654  -0.82016  -0.81542  -0.77586
 Alpha  occ. eigenvalues --   -0.71197  -0.69261  -0.67473  -0.66133  -0.63070
 Alpha  occ. eigenvalues --   -0.59556  -0.57115  -0.55306  -0.54722  -0.52817
 Alpha  occ. eigenvalues --   -0.51851  -0.50893  -0.50409  -0.49673  -0.47944
 Alpha  occ. eigenvalues --   -0.47436  -0.46630  -0.45805  -0.44318  -0.43475
 Alpha  occ. eigenvalues --   -0.42597  -0.42263  -0.41426  -0.41298  -0.40009
 Alpha  occ. eigenvalues --   -0.39125  -0.38465  -0.38197  -0.37878  -0.35230
 Alpha  occ. eigenvalues --   -0.34570  -0.33991  -0.30885  -0.29889  -0.28742
 Alpha  occ. eigenvalues --   -0.28166  -0.27037  -0.26615  -0.26134  -0.23151
 Alpha virt. eigenvalues --   -0.03524  -0.03272   0.00480   0.01066   0.07796
 Alpha virt. eigenvalues --    0.08837   0.10164   0.10721   0.11465   0.11926
 Alpha virt. eigenvalues --    0.12492   0.13385   0.14071   0.15126   0.15477

 Mulliken charges:
               1
     1  C   -0.521154
     2  H    0.167771
     3  H    0.171471
     4  H    0.171032
     5  C    0.036230
     6  C    0.598536
     7  N   -0.707670
     8  C    0.817810
     9  O   -0.579692
    10  H    0.393966
    11  O   -0.578183
    12  C    0.056813
    13  H    0.206710
    14  N   -0.520197
    15  C    0.303351
    16  O   -0.536640
    17  C    0.128716
    18  C   -0.029905
    19  O   -0.668672
    20  H    0.443732
    21  H    0.143983
    22  H    0.149945
    23  H    0.164747
    24  H    0.185185
    25  C   -0.314805
    26  H    0.189758
    27  H    0.193495
    28  C   -0.025880
    29  H    0.199151
    30  N   -0.420334
    31  N    0.473027
    32  N   -0.292294
 Sum of Mulliken charges =   0.00000

 Dipole moment (field-independent basis, Debye):
    X=             -5.3466    Y=              3.8969    Z=              2.7490  Tot=              7.1644
 Quadrupole moment (field-independent basis, Debye-Ang):
   XX=           -133.2251   YY=           -111.3514   ZZ=           -105.5412
   XY=            -13.0010   XZ=             -2.6103   YZ=             -2.0718

 Normal termination of Gaussian 09 at Mon Mar 29 22:50:01 2021.
