 Gaussian 09, Revision D.01,

 -----------------
 #p b3lyp/6-31G(d)
 -----------------

 ----------------------------------------------
 SET_328_BBB256_conf1.geo_180_180_270.n.pdb.xyz
 ----------------------------------------------
 Symbolic Z-matrix:
 Charge =  0 Multiplicity = 1

 SCF Done:  E(RB3LYP) =  -421.568592579     A.U. after   14 cycles
 Normal termination of Gaussian 09 at Sun Jan 24 23:03:26 2021.
 Gaussian 09:  AM64L-G09RevD.01 24-Apr-2013

 ----------------------------------------------------------------------
 #p b3lyp/6-31G(d) scrf=(iefpcm,read,solvent=Water) geom=allcheck guess
 =read
 ----------------------------------------------------------------------

 Structure from the checkpoint file:  "SET_328_BBB256_conf1.geo_180_180_270.n.pdb.xyz.mst.n.w.chk"
 ----------------------------------------------
 SET_328_BBB256_conf1.geo_180_180_270.n.pdb.xyz
 ----------------------------------------------
 Charge =  0 Multiplicity = 1

                         Standard orientation:
 ---------------------------------------------------------------------
 Center     Atomic      Atomic             Coordinates (Angstroms)
 Number     Number       Type             X           Y           Z
 ---------------------------------------------------------------------
      1          6           0       -4.117718   -0.174039   -0.714300
      2          1           0       -4.004393   -1.184075   -1.142904
      3          1           0       -4.048613    0.543402   -1.538864
      4          1           0       -5.120236   -0.097391   -0.281981
      5          7           0       -3.120889    0.154935    0.301994
      6          1           0       -3.256497   -0.468674    1.097437
      7          6           0       -1.757017   -0.023072   -0.188706
      8          1           0       -1.615655    0.643898   -1.047338
      9          1           0       -1.561509   -1.049143   -0.550896
     10          6           0       -0.735616    0.326284    0.902050
     11          1           0       -0.907057   -0.320960    1.768109
     12          1           0       -0.896668    1.358814    1.222229
     13          6           0        0.684823    0.148598    0.432374
     14          7           0        1.153667   -1.113126    0.375313
     15          6           0        2.405300   -1.300722   -0.065813
     16          1           0        2.751179   -2.331716   -0.096491
     17          6           0        3.250595   -0.267123   -0.468516
     18          1           0        4.254238   -0.481589   -0.813657
     19          6           0        2.762453    1.037840   -0.406662
     20          1           0        3.383737    1.876125   -0.705830
     21          6           0        1.464151    1.247321    0.048682
     22          1           0        1.050202    2.248122    0.114385
 ---------------------------------------------------------------------

 SCF Done:  E(RB3LYP) =  -421.577437701     A.U. after   10 cycles

 The electronic state is 1-A.
 Alpha  occ. eigenvalues --  -14.33178 -14.31346 -10.22904 -10.22313 -10.20616
 Alpha  occ. eigenvalues --  -10.20400 -10.19561 -10.19554 -10.19510 -10.18325
 Alpha  occ. eigenvalues --   -0.94205  -0.89578  -0.80120  -0.78832  -0.72781
 Alpha  occ. eigenvalues --   -0.66202  -0.62926  -0.61761  -0.58966  -0.51334
 Alpha  occ. eigenvalues --   -0.49308  -0.47392  -0.46461  -0.44419  -0.43421
 Alpha  occ. eigenvalues --   -0.41584  -0.40201  -0.39832  -0.39014  -0.36564
 Alpha  occ. eigenvalues --   -0.35512  -0.34614  -0.34172  -0.28602  -0.26084
 Alpha  occ. eigenvalues --   -0.25461  -0.22221
 Alpha virt. eigenvalues --   -0.02516  -0.00897   0.09637   0.10226   0.12594
 Alpha virt. eigenvalues --    0.13080   0.14198   0.15007   0.16194   0.16689
 Alpha virt. eigenvalues --    0.17993   0.18188   0.18671   0.19877   0.20025

 Mulliken charges:
               1
     1  C   -0.305861
     2  H    0.127721
     3  H    0.152067
     4  H    0.152744
     5  N   -0.586405
     6  H    0.330590
     7  C   -0.112609
     8  H    0.143034
     9  H    0.124221
    10  C   -0.333674
    11  H    0.155400
    12  H    0.154069
    13  C    0.297051
    14  N   -0.517086
    15  C    0.025351
    16  H    0.155635
    17  C   -0.154126
    18  H    0.160029
    19  C   -0.111663
    20  H    0.166864
    21  C   -0.180344
    22  H    0.156991
 Sum of Mulliken charges =   0.00000

 Dipole moment (field-independent basis, Debye):
    X=              1.2560    Y=              0.8558    Z=             -0.7782  Tot=              1.7075
 Quadrupole moment (field-independent basis, Debye-Ang):
   XX=            -50.0114   YY=            -59.2729   ZZ=            -60.6561
   XY=              5.4964   XZ=             -2.9290   YZ=             -0.7527

 Normal termination of Gaussian 09 at Sun Jan 24 23:04:11 2021.
