 Gaussian 09, Revision D.01,

 -----------------
 #p b3lyp/6-31G(d)
 -----------------

 ---------------------------------------------
 SET_328_BBB20_conf1.geo_105_285_180.n.pdb.xyz
 ---------------------------------------------
 Symbolic Z-matrix:
 Charge =  0 Multiplicity = 1

 SCF Done:  E(RB3LYP) =  -769.345496043     A.U. after   15 cycles
 Normal termination of Gaussian 09 at Sun Jan 24 22:13:01 2021.
 Gaussian 09:  AM64L-G09RevD.01 24-Apr-2013

 ----------------------------------------------------------------------
 #p b3lyp/6-31G(d) scrf=(iefpcm,read,solvent=Water) geom=allcheck guess
 =read
 ----------------------------------------------------------------------

 Structure from the checkpoint file:  "SET_328_BBB20_conf1.geo_105_285_180.n.pdb.xyz.mst.n.w.chk"
 ---------------------------------------------
 SET_328_BBB20_conf1.geo_105_285_180.n.pdb.xyz
 ---------------------------------------------
 Charge =  0 Multiplicity = 1

                         Standard orientation:
 ---------------------------------------------------------------------
 Center     Atomic      Atomic             Coordinates (Angstroms)
 Number     Number       Type             X           Y           Z
 ---------------------------------------------------------------------
      1          7           0        3.352568    2.810907    1.460060
      2          1           0        3.644628    3.626738    0.921955
      3          1           0        4.017211    2.076328    1.207335
      4          6           0        2.015637    2.405495    1.005136
      5          1           0        1.306975    3.196597    1.283425
      6          1           0        1.723149    1.513432    1.570856
      7          6           0        1.892948    2.124081   -0.497761
      8          1           0        2.588940    1.325403   -0.775758
      9          1           0        2.204177    3.017061   -1.055300
     10          6           0        0.477335    1.772742   -0.960386
     11          1           0        0.448891    1.722605   -2.059225
     12          1           0       -0.197406    2.581794   -0.669283
     13          7           0       -0.044614    0.545834   -0.336080
     14          6           0       -1.460502    0.402326   -0.251530
     15          6           0       -2.271990    1.166416   -1.113908
     16          1           0       -1.804111    1.802058   -1.855263
     17          6           0       -3.661982    1.113120   -1.061873
     18          1           0       -4.245834    1.721181   -1.745929
     19          6           0       -4.286754    0.270746   -0.145748
     20          1           0       -5.369067    0.212768   -0.087592
     21          6           0       -3.494018   -0.498166    0.702554
     22          1           0       -3.971504   -1.151932    1.426755
     23          6           0       -2.091701   -0.457145    0.685267
     24          6           0       -1.394042   -1.352716    1.704198
     25          1           0       -1.601552   -2.398949    1.444594
     26          1           0       -1.874453   -1.188621    2.677015
     27          6           0        0.125501   -1.198136    1.870004
     28          1           0        0.457584   -1.867107    2.669350
     29          1           0        0.358795   -0.173351    2.181609
     30          6           0        0.863887   -1.516731    0.599914
     31          6           0        1.641331   -2.669459    0.458336
     32          1           0        1.727029   -3.352096    1.301446
     33          6           0        2.319893   -2.942938   -0.730251
     34          1           0        2.929127   -3.838890   -0.817068
     35          6           0        2.217009   -2.053424   -1.801022
     36          1           0        2.738711   -2.252347   -2.731661
     37          6           0        1.430149   -0.906499   -1.680861
     38          1           0        1.343266   -0.222028   -2.517550
     39          6           0        0.747263   -0.634349   -0.488331
 ---------------------------------------------------------------------

 SCF Done:  E(RB3LYP) =  -769.356093753     A.U. after   10 cycles

 The electronic state is 1-A.
 Alpha  occ. eigenvalues --  -14.34826 -14.30419 -10.22848 -10.22196 -10.21295
 Alpha  occ. eigenvalues --  -10.19841 -10.19550 -10.19158 -10.18929 -10.18838
 Alpha  occ. eigenvalues --  -10.18794 -10.18777 -10.18676 -10.18607 -10.18435
 Alpha  occ. eigenvalues --  -10.18419 -10.18329 -10.18202 -10.17569  -0.94848
 Alpha  occ. eigenvalues --   -0.87039  -0.85422  -0.84335  -0.79700  -0.76256
 Alpha  occ. eigenvalues --   -0.75417  -0.75033  -0.72237  -0.69720  -0.65860
 Alpha  occ. eigenvalues --   -0.64513  -0.60892  -0.60072  -0.58541  -0.57342
 Alpha  occ. eigenvalues --   -0.56208  -0.51544  -0.50644  -0.48927  -0.47702
 Alpha  occ. eigenvalues --   -0.46806  -0.46648  -0.45303  -0.44960  -0.43613
 Alpha  occ. eigenvalues --   -0.43295  -0.42248  -0.41357  -0.40464  -0.39949
 Alpha  occ. eigenvalues --   -0.38562  -0.38183  -0.37929  -0.37620  -0.36379
 Alpha  occ. eigenvalues --   -0.35697  -0.34464  -0.34268  -0.33920  -0.33378
 Alpha  occ. eigenvalues --   -0.32701  -0.32617  -0.28920  -0.24805  -0.24355
 Alpha  occ. eigenvalues --   -0.23758  -0.23316  -0.19680
 Alpha virt. eigenvalues --   -0.00716  -0.00021   0.00331   0.00802   0.09313
 Alpha virt. eigenvalues --    0.09400   0.10491   0.10810   0.11323   0.12276
 Alpha virt. eigenvalues --    0.13417   0.13894   0.14879   0.15392   0.15994

 Mulliken charges:
               1
     1  N   -0.769691
     2  H    0.322466
     3  H    0.322692
     4  C   -0.147109
     5  H    0.137320
     6  H    0.156953
     7  C   -0.284320
     8  H    0.145025
     9  H    0.141595
    10  C   -0.153056
    11  H    0.148575
    12  H    0.162910
    13  N   -0.573041
    14  C    0.228748
    15  C   -0.195790
    16  H    0.152387
    17  C   -0.169646
    18  H    0.145097
    19  C   -0.150370
    20  H    0.141711
    21  C   -0.219926
    22  H    0.139183
    23  C    0.145664
    24  C   -0.342685
    25  H    0.161147
    26  H    0.160238
    27  C   -0.357416
    28  H    0.150584
    29  H    0.167956
    30  C    0.153245
    31  C   -0.233091
    32  H    0.143578
    33  C   -0.144171
    34  H    0.145072
    35  C   -0.169447
    36  H    0.148114
    37  C   -0.170300
    38  H    0.150944
    39  C    0.208854
 Sum of Mulliken charges =   0.00000

 Dipole moment (field-independent basis, Debye):
    X=              0.9818    Y=              0.0987    Z=             -1.8621  Tot=              2.1073
 Quadrupole moment (field-independent basis, Debye-Ang):
   XX=           -107.7307   YY=           -107.0309   ZZ=           -112.2953
   XY=             -1.6110   XZ=             -8.8283   YZ=            -12.5243

 Normal termination of Gaussian 09 at Sun Jan 24 22:17:20 2021.
