 Gaussian 09, Revision D.01,

 -----------------
 #p b3lyp/6-31G(d)
 -----------------

 ---------------------------------------------
 SET_328_BBB29_conf1.geo_135_285_180.n.pdb.xyz
 ---------------------------------------------
 Symbolic Z-matrix:
 Charge =  0 Multiplicity = 1

 SCF Done:  E(RB3LYP) =  -1548.50916026     A.U. after   16 cycles
 Normal termination of Gaussian 09 at Sun Jan 24 23:16:51 2021.
 Gaussian 09:  AM64L-G09RevD.01 24-Apr-2013

 ----------------------------------------------------------------------
 #p b3lyp/6-31G(d) scrf=(iefpcm,read,solvent=Water) geom=allcheck guess
 =read
 ----------------------------------------------------------------------

 Structure from the checkpoint file:  "SET_328_BBB29_conf1.geo_135_285_180.n.pdb.xyz.mst.n.w.chk"
 ---------------------------------------------
 SET_328_BBB29_conf1.geo_135_285_180.n.pdb.xyz
 ---------------------------------------------
 Charge =  0 Multiplicity = 1

                         Standard orientation:
 ---------------------------------------------------------------------
 Center     Atomic      Atomic             Coordinates (Angstroms)
 Number     Number       Type             X           Y           Z
 ---------------------------------------------------------------------
      1          7           0        2.771617    3.684503    1.568855
      2          1           0        2.718601    3.812718    2.580114
      3          1           0        2.685306    4.622950    1.177520
      4          6           0        1.617988    2.886836    1.132460
      5          1           0        0.644955    3.355688    1.361915
      6          1           0        1.640880    1.937252    1.675462
      7          6           0        1.694677    2.617644   -0.369115
      8          1           0        2.639542    2.115332   -0.598728
      9          1           0        1.711498    3.574332   -0.907826
     10          6           0        0.502518    1.824888   -0.913145
     11          1           0        0.536269    1.787057   -2.009940
     12          1           0       -0.409549    2.356567   -0.642071
     13          7           0        0.391869    0.477142   -0.338947
     14          6           0       -0.884607   -0.034096   -0.028118
     15          6           0       -2.057224    0.488352   -0.596421
     16          1           0       -2.013574    1.281535   -1.329740
     17          6           0       -3.293402   -0.026367   -0.220238
     18         17           0       -4.744813    0.673063   -0.932473
     19          6           0       -3.419818   -1.081163    0.676085
     20          1           0       -4.393487   -1.466205    0.949882
     21          6           0       -2.252106   -1.632772    1.205922
     22          1           0       -2.317246   -2.465021    1.897974
     23          6           0       -1.003624   -1.110637    0.875583
     24         16           0        0.471839   -1.741100    1.650260
     25          6           0        1.575234   -1.573843    0.259594
     26          6           0        1.436142   -0.450897   -0.577061
     27          6           0        2.344236   -0.294534   -1.635251
     28          1           0        2.250441    0.553665   -2.301318
     29          6           0        3.371801   -1.217521   -1.831961
     30          1           0        4.069164   -1.067325   -2.649710
     31          6           0        3.496093   -2.329569   -1.000120
     32          1           0        4.291458   -3.050072   -1.156055
     33          6           0        2.581999   -2.514141    0.038417
     34          1           0        2.654310   -3.377546    0.691245
 ---------------------------------------------------------------------

 SCF Done:  E(RB3LYP) =  -1548.52041019     A.U. after   11 cycles

 The electronic state is 1-A.
 Alpha  occ. eigenvalues -- -101.55494 -88.89789 -14.37313 -14.30336 -10.25774
 Alpha  occ. eigenvalues --  -10.25033 -10.24170 -10.22992 -10.22606 -10.22250
 Alpha  occ. eigenvalues --  -10.20800 -10.20604 -10.20269 -10.19989 -10.19949
 Alpha  occ. eigenvalues --  -10.19573 -10.19509 -10.19184 -10.18064  -9.47125
 Alpha  occ. eigenvalues --   -7.95827  -7.23508  -7.22561  -7.22528  -5.92326
 Alpha  occ. eigenvalues --   -5.91978  -5.91333  -0.97367  -0.89471  -0.87075
 Alpha  occ. eigenvalues --   -0.86237  -0.84965  -0.80098  -0.77514  -0.76632
 Alpha  occ. eigenvalues --   -0.74677  -0.73410  -0.68771  -0.66917  -0.63372
 Alpha  occ. eigenvalues --   -0.61653  -0.60692  -0.58158  -0.56657  -0.54134
 Alpha  occ. eigenvalues --   -0.51426  -0.48962  -0.48667  -0.47926  -0.47185
 Alpha  occ. eigenvalues --   -0.46656  -0.45866  -0.44763  -0.44161  -0.43044
 Alpha  occ. eigenvalues --   -0.41771  -0.40927  -0.40698  -0.39870  -0.39012
 Alpha  occ. eigenvalues --   -0.38326  -0.36811  -0.36525  -0.35453  -0.35212
 Alpha  occ. eigenvalues --   -0.34398  -0.33993  -0.32868  -0.32025  -0.30722
 Alpha  occ. eigenvalues --   -0.29467  -0.26360  -0.25508  -0.23353  -0.23198
 Alpha  occ. eigenvalues --   -0.19610
 Alpha virt. eigenvalues --   -0.02298  -0.01824  -0.00935   0.00257   0.02079
 Alpha virt. eigenvalues --    0.03600   0.07502   0.09430   0.10159   0.12077
 Alpha virt. eigenvalues --    0.13114   0.13571   0.13944   0.14161   0.14738

 Mulliken charges:
               1
     1  N   -0.777553
     2  H    0.327970
     3  H    0.322962
     4  C   -0.129098
     5  H    0.119787
     6  H    0.150197
     7  C   -0.270402
     8  H    0.151675
     9  H    0.148504
    10  C   -0.167965
    11  H    0.167056
    12  H    0.174147
    13  N   -0.575525
    14  C    0.314361
    15  C   -0.175806
    16  H    0.183291
    17  C   -0.091616
    18  Cl  -0.044924
    19  C   -0.134440
    20  H    0.172050
    21  C   -0.187655
    22  H    0.173043
    23  C   -0.124131
    24  S    0.136171
    25  C   -0.132723
    26  C    0.306340
    27  C   -0.174787
    28  H    0.163298
    29  C   -0.166858
    30  H    0.155996
    31  C   -0.138431
    32  H    0.153099
    33  C   -0.190664
    34  H    0.162634
 Sum of Mulliken charges =   0.00000

 Dipole moment (field-independent basis, Debye):
    X=              0.9427    Y=              2.0282    Z=             -0.9084  Tot=              2.4140
 Quadrupole moment (field-independent basis, Debye-Ang):
   XX=           -134.2460   YY=           -109.0780   ZZ=           -120.0721
   XY=              0.1481   XZ=             -8.9701   YZ=             -1.3018

 Normal termination of Gaussian 09 at Sun Jan 24 23:20:35 2021.
