 Gaussian 09, Revision D.01,

 -----------------
 #p b3lyp/6-31G(d)
 -----------------

 ----------------------------------------------
 SET_328_BBB321_conf1.geo_180_330_120.n.pdb.xyz
 ----------------------------------------------
 Symbolic Z-matrix:
 Charge =  0 Multiplicity = 1

 SCF Done:  E(RB3LYP) =  -1212.31162633     A.U. after   16 cycles
 Normal termination of Gaussian 09 at Thu Jan 28 04:47:09 2021.
 Gaussian 09:  AM64L-G09RevD.01 24-Apr-2013

 ----------------------------------------------------------------------
 #p b3lyp/6-31G(d) scrf=(iefpcm,read,solvent=Water) geom=allcheck guess
 =read
 ----------------------------------------------------------------------

 Structure from the checkpoint file:  "SET_328_BBB321_conf1.geo_180_330_120.n.pdb.xyz.mst.n.w.chk"
 ----------------------------------------------
 SET_328_BBB321_conf1.geo_180_330_120.n.pdb.xyz
 ----------------------------------------------
 Charge =  0 Multiplicity = 1

                         Standard orientation:
 ---------------------------------------------------------------------
 Center     Atomic      Atomic             Coordinates (Angstroms)
 Number     Number       Type             X           Y           Z
 ---------------------------------------------------------------------
      1          6           0       -4.970538    2.761159   -0.078040
      2          1           0       -5.330809    3.056493    0.911607
      3          1           0       -5.791982    2.900544   -0.784339
      4          1           0       -4.140759    3.414320   -0.357075
      5          6           0       -4.601454    1.290615   -0.045601
      6          8           0       -5.467256    0.413851    0.005729
      7          7           0       -3.257816    1.034955   -0.057506
      8          1           0       -2.648871    1.842356   -0.100134
      9          6           0       -2.593171   -0.206708   -0.002927
     10          6           0       -3.262012   -1.436511    0.074846
     11          6           0       -2.511026   -2.613935    0.126661
     12          6           0       -1.121195   -2.589358    0.101806
     13          1           0       -0.562461   -3.516706    0.150471
     14          1           0       -3.029648   -3.565784    0.189729
     15          1           0       -4.340025   -1.455121    0.095719
     16          6           0       -1.191154   -0.181221   -0.029696
     17          1           0       -0.665276    0.763476   -0.093862
     18          6           0       -0.443065   -1.361566    0.021085
     19          6           0        1.029334   -1.298248   -0.012909
     20          7           0        1.656774   -0.060062    0.005529
     21          6           0        1.868625   -2.377279   -0.066787
     22          1           0        1.610032   -3.424028   -0.101782
     23         16           0        3.525835   -1.859994   -0.093592
     24          6           0        2.971859   -0.164831   -0.028590
     25          7           0        3.934541    0.782768   -0.018687
     26          6           0        3.622488    2.075121    0.043811
     27          7           0        4.655714    2.955208    0.146298
     28          1           0        4.494011    3.924428   -0.105380
     29          1           0        5.571212    2.590141   -0.085713
     30          7           0        2.374432    2.580541    0.033946
     31          1           0        1.604912    1.920246    0.110122
     32          1           0        2.216694    3.561434    0.233258
 ---------------------------------------------------------------------

 SCF Done:  E(RB3LYP) =  -1212.34618916     A.U. after   12 cycles

 The electronic state is 1-A.
 Alpha  occ. eigenvalues --  -88.90301 -19.12241 -14.37581 -14.35178 -14.35012
 Alpha  occ. eigenvalues --  -14.32562 -14.31249 -10.30812 -10.29892 -10.27834
 Alpha  occ. eigenvalues --  -10.23888 -10.22543 -10.20803 -10.20533 -10.19249
 Alpha  occ. eigenvalues --  -10.19076 -10.18808 -10.18774 -10.18544  -7.96489
 Alpha  occ. eigenvalues --   -5.92878  -5.92544  -5.92168  -1.03927  -0.99885
 Alpha  occ. eigenvalues --   -0.95609  -0.94190  -0.87979  -0.87755  -0.85148
 Alpha  occ. eigenvalues --   -0.79009  -0.77504  -0.75909  -0.72489  -0.70862
 Alpha  occ. eigenvalues --   -0.64395  -0.63381  -0.61182  -0.59364  -0.58103
 Alpha  occ. eigenvalues --   -0.55724  -0.54506  -0.52811  -0.51012  -0.49523
 Alpha  occ. eigenvalues --   -0.48555  -0.47781  -0.47102  -0.45232  -0.44755
 Alpha  occ. eigenvalues --   -0.43806  -0.43605  -0.42430  -0.41125  -0.40705
 Alpha  occ. eigenvalues --   -0.40380  -0.39854  -0.39175  -0.37608  -0.35972
 Alpha  occ. eigenvalues --   -0.35483  -0.34897  -0.31734  -0.29612  -0.28453
 Alpha  occ. eigenvalues --   -0.28308  -0.27586  -0.27018  -0.25802  -0.24632
 Alpha  occ. eigenvalues --   -0.22587  -0.19519
 Alpha virt. eigenvalues --   -0.03485  -0.01272  -0.01010   0.02316   0.03517
 Alpha virt. eigenvalues --    0.07459   0.08469   0.09423   0.09763   0.10195
 Alpha virt. eigenvalues --    0.11627   0.13000   0.13578   0.13968   0.14520

 Mulliken charges:
               1
     1  C   -0.542211
     2  H    0.196027
     3  H    0.187713
     4  H    0.175787
     5  C    0.602456
     6  O   -0.561595
     7  N   -0.708767
     8  H    0.388734
     9  C    0.347667
    10  C   -0.180637
    11  C   -0.169562
    12  C   -0.201994
    13  H    0.148486
    14  H    0.151544
    15  H    0.168797
    16  C   -0.273739
    17  H    0.166243
    18  C    0.104801
    19  C    0.278303
    20  N   -0.586085
    21  C   -0.431181
    22  H    0.199408
    23  S    0.184208
    24  C    0.305471
    25  N   -0.616591
    26  C    0.662310
    27  N   -0.772072
    28  H    0.387350
    29  H    0.382649
    30  N   -0.785102
    31  H    0.401111
    32  H    0.390472
 Sum of Mulliken charges =   0.00000

 Dipole moment (field-independent basis, Debye):
    X=              3.5774    Y=              9.4641    Z=             -0.3553  Tot=             10.1239
 Quadrupole moment (field-independent basis, Debye-Ang):
   XX=           -134.9897   YY=            -71.5566   ZZ=           -121.6939
   XY=             12.1521   XZ=             -2.6972   YZ=             -1.4291

 Normal termination of Gaussian 09 at Thu Jan 28 04:50:33 2021.
