 Gaussian 09, Revision D.01,

 -----------------
 #p b3lyp/6-31G(d)
 -----------------

 ----------------------------------------------
 SET_328_BBB301_conf1.geo_165_300_090.n.pdb.xyz
 ----------------------------------------------
 Symbolic Z-matrix:
 Charge =  0 Multiplicity = 1

 SCF Done:  E(RB3LYP) =  -788.420684668     A.U. after   14 cycles
 Normal termination of Gaussian 09 at Mon Jan 25 16:27:21 2021.
 Gaussian 09:  AM64L-G09RevD.01 24-Apr-2013

 ----------------------------------------------------------------------
 #p b3lyp/6-31G(d) scrf=(iefpcm,read,solvent=Water) geom=allcheck guess
 =read
 ----------------------------------------------------------------------

 Structure from the checkpoint file:  "SET_328_BBB301_conf1.geo_165_300_090.n.pdb.xyz.mst.n.w.chk"
 ----------------------------------------------
 SET_328_BBB301_conf1.geo_165_300_090.n.pdb.xyz
 ----------------------------------------------
 Charge =  0 Multiplicity = 1

                         Standard orientation:
 ---------------------------------------------------------------------
 Center     Atomic      Atomic             Coordinates (Angstroms)
 Number     Number       Type             X           Y           Z
 ---------------------------------------------------------------------
      1          6           0        3.598915    1.602340   -0.940765
      2          1           0        2.697687    1.553850   -1.557739
      3          1           0        4.402611    2.011498   -1.560066
      4          1           0        3.411542    2.294359   -0.112734
      5          6           0        4.000465    0.223168   -0.405278
      6          6           0        4.243646   -0.748722   -1.572183
      7          1           0        3.347053   -0.863627   -2.189921
      8          1           0        4.526911   -1.737059   -1.195911
      9          1           0        5.051155   -0.387810   -2.217844
     10          6           0        5.281307    0.357406    0.422140
     11          1           0        5.123585    1.039045    1.264352
     12          1           0        6.099504    0.747765   -0.190892
     13          1           0        5.593545   -0.613034    0.821591
     14          7           0        2.954527   -0.270085    0.524819
     15          1           0        3.316447   -1.099220    0.998287
     16          6           0        1.642185   -0.596126   -0.041200
     17          1           0        1.607356   -1.553222   -0.579642
     18          1           0        1.362413    0.192657   -0.744297
     19          6           0        0.613769   -0.603881    1.114117
     20          8           0        0.814135    0.572712    1.887665
     21          1           0        1.783046    0.722677    1.787128
     22          1           0        0.806875   -1.497821    1.731057
     23          6           0       -0.810992   -0.670916    0.608438
     24          6           0       -1.505132    0.491648    0.250712
     25          1           0       -1.020011    1.453524    0.388100
     26          6           0       -2.800313    0.457510   -0.264455
     27          6           0       -3.525715    1.730612   -0.605377
     28          8           0       -4.424683    2.054777    0.464277
     29          1           0       -4.935785    2.831297    0.175355
     30          1           0       -4.078784    1.606775   -1.544677
     31          1           0       -2.789245    2.531510   -0.747896
     32          6           0       -3.426081   -0.793222   -0.428787
     33          8           0       -4.690409   -0.800448   -0.943072
     34          1           0       -4.999280   -1.721462   -1.037001
     35          6           0       -2.751447   -1.966031   -0.075011
     36          1           0       -3.239840   -2.929122   -0.194600
     37          6           0       -1.458843   -1.898706    0.444029
     38          1           0       -0.951403   -2.818785    0.724380
 ---------------------------------------------------------------------

 SCF Done:  E(RB3LYP) =  -788.446764287     A.U. after   11 cycles

 The electronic state is 1-A.
 Alpha  occ. eigenvalues --  -19.17448 -19.13495 -19.12885 -14.32208 -10.24875
 Alpha  occ. eigenvalues --  -10.23201 -10.22706 -10.22021 -10.20389 -10.19112
 Alpha  occ. eigenvalues --  -10.18877 -10.18734 -10.18666 -10.18613 -10.16973
 Alpha  occ. eigenvalues --  -10.16895 -10.16831  -1.05404  -1.00882  -1.00320
 Alpha  occ. eigenvalues --   -0.90541  -0.85263  -0.78598  -0.76839  -0.75143
 Alpha  occ. eigenvalues --   -0.69730  -0.68369  -0.68209  -0.66869  -0.62949
 Alpha  occ. eigenvalues --   -0.60356  -0.56556  -0.54875  -0.53643  -0.50234
 Alpha  occ. eigenvalues --   -0.49779  -0.48257  -0.47548  -0.46706  -0.45339
 Alpha  occ. eigenvalues --   -0.44788  -0.43476  -0.43233  -0.41978  -0.41214
 Alpha  occ. eigenvalues --   -0.40818  -0.40177  -0.39316  -0.38364  -0.37606
 Alpha  occ. eigenvalues --   -0.37009  -0.36354  -0.36073  -0.35194  -0.34528
 Alpha  occ. eigenvalues --   -0.33425  -0.33332  -0.32434  -0.32109  -0.31295
 Alpha  occ. eigenvalues --   -0.26320  -0.26199  -0.25172  -0.23367  -0.21428
 Alpha virt. eigenvalues --   -0.00694   0.00893   0.07552   0.09246   0.10246
 Alpha virt. eigenvalues --    0.10885   0.11502   0.12756   0.12917   0.13690
 Alpha virt. eigenvalues --    0.13977   0.14473   0.15334   0.16064   0.16521

 Mulliken charges:
               1
     1  C   -0.450840
     2  H    0.150626
     3  H    0.148820
     4  H    0.148375
     5  C    0.215580
     6  C   -0.453893
     7  H    0.150214
     8  H    0.143587
     9  H    0.146809
    10  C   -0.457930
    11  H    0.148595
    12  H    0.150145
    13  H    0.145525
    14  N   -0.611616
    15  H    0.333444
    16  C   -0.147876
    17  H    0.139578
    18  H    0.154548
    19  C    0.074813
    20  O   -0.693825
    21  H    0.413410
    22  H    0.121067
    23  C    0.135513
    24  C   -0.259552
    25  H    0.141615
    26  C    0.108043
    27  C   -0.094234
    28  O   -0.666682
    29  H    0.433794
    30  H    0.137415
    31  H    0.133310
    32  C    0.299944
    33  O   -0.672900
    34  H    0.458207
    35  C   -0.210947
    36  H    0.152656
    37  C   -0.211383
    38  H    0.146042
 Sum of Mulliken charges =   0.00000

 Dipole moment (field-independent basis, Debye):
    X=              2.4133    Y=             -2.8768    Z=             -3.8859  Tot=              5.4037
 Quadrupole moment (field-independent basis, Debye-Ang):
   XX=            -84.6547   YY=            -86.0873   ZZ=           -109.6120
   XY=              1.6258   XZ=              9.1341   YZ=             -4.7966

 Normal termination of Gaussian 09 at Mon Jan 25 16:30:34 2021.
