 Gaussian 09, Revision D.01,

 -----------------
 #p b3lyp/6-31G(d)
 -----------------

 ----------------------------------------------
 SET_328_BBB324_conf1.geo_180_300_300.n.pdb.xyz
 ----------------------------------------------
 Symbolic Z-matrix:
 Charge =  0 Multiplicity = 1

 SCF Done:  E(RB3LYP) =  -1692.24281145     A.U. after   17 cycles
 Normal termination of Gaussian 09 at Thu Jan 28 04:57:32 2021.
 Gaussian 09:  AM64L-G09RevD.01 24-Apr-2013

 ----------------------------------------------------------------------
 #p b3lyp/6-31G(d) scrf=(iefpcm,read,solvent=Water) geom=allcheck guess
 =read
 ----------------------------------------------------------------------

 Structure from the checkpoint file:  "SET_328_BBB324_conf1.geo_180_300_300.n.pdb.xyz.mst.n.w.chk"
 ----------------------------------------------
 SET_328_BBB324_conf1.geo_180_300_300.n.pdb.xyz
 ----------------------------------------------
 Charge =  0 Multiplicity = 1

                         Standard orientation:
 ---------------------------------------------------------------------
 Center     Atomic      Atomic             Coordinates (Angstroms)
 Number     Number       Type             X           Y           Z
 ---------------------------------------------------------------------
      1          6           0        0.264659   -2.376825   -0.920770
      2          1           0       -0.294322   -2.951529   -0.179488
      3          1           0        0.872606   -3.044904   -1.526891
      4          1           0       -0.442569   -1.847663   -1.566818
      5          7           0        1.150000   -1.440542   -0.238711
      6          6           0        0.541524   -0.495428    0.704155
      7          1           0        1.155292   -0.433097    1.606054
      8          1           0       -0.439167   -0.872752    0.982138
      9          6           0        0.400371    0.845921    0.068211
     10          6           0       -0.650874    1.628551   -0.362509
     11          6           0       -2.071894    1.352934   -0.242130
     12          7           0       -2.997446    2.168104   -0.702274
     13          8           0       -4.199444    1.505818   -0.374433
     14          6           0       -3.859799    0.369172    0.243320
     15          7           0       -2.571936    0.213394    0.358937
     16          6           0       -4.959650   -0.555915    0.732308
     17          6           0       -4.953690   -0.597759    2.260567
     18          1           0       -5.728183   -1.289009    2.600175
     19          1           0       -5.166921    0.394611    2.663442
     20          1           0       -3.985370   -0.929841    2.637103
     21          8           0       -6.220374   -0.069679    0.311666
     22          1           0       -6.309124   -0.337519   -0.624278
     23          6           0       -4.734221   -1.948779    0.136186
     24          8           0       -4.890055   -1.807740   -1.269386
     25          1           0       -5.082936   -2.683521   -1.645385
     26          1           0       -5.486986   -2.622733    0.559160
     27          1           0       -3.738099   -2.322599    0.398644
     28          7           0       -0.178682    2.785543   -0.962242
     29          6           0        1.126705    2.704495   -0.896877
     30          1           0        1.829448    3.427945   -1.282356
     31          7           0        1.540044    1.545781   -0.284709
     32          6           0        2.867702    1.162895    0.049435
     33          6           0        3.749463    2.156002    0.481016
     34          1           0        3.407449    3.180980    0.547771
     35          6           0        5.044277    1.815890    0.853963
     36          1           0        5.729601    2.584671    1.191911
     37          6           0        5.451568    0.483479    0.831594
     38          1           0        6.444464    0.199221    1.156344
     39          6           0        4.564736   -0.493335    0.392088
     40         17           0        5.129809   -2.157135    0.431597
     41          6           0        3.259585   -0.190870   -0.031710
     42          6           0        2.414590   -1.256699   -0.700694
     43          8           0        2.897860   -1.917063   -1.622923
 ---------------------------------------------------------------------

 SCF Done:  E(RB3LYP) =  -1692.27331535     A.U. after   12 cycles

 The electronic state is 1-A.
 Alpha  occ. eigenvalues -- -101.55857 -19.25448 -19.15574 -19.15303 -19.12811
 Alpha  occ. eigenvalues --  -14.42040 -14.39255 -14.38166 -14.34866 -14.33925
 Alpha  occ. eigenvalues --  -10.30690 -10.29900 -10.27242 -10.27184 -10.26971
 Alpha  occ. eigenvalues --  -10.26801 -10.26054 -10.24550 -10.24274 -10.23866
 Alpha  occ. eigenvalues --  -10.23522 -10.23323 -10.21646 -10.21560 -10.21453
 Alpha  occ. eigenvalues --  -10.21437 -10.18688  -9.47484  -7.23892  -7.22921
 Alpha  occ. eigenvalues --   -7.22858  -1.17062  -1.05293  -1.04618  -1.04385
 Alpha  occ. eigenvalues --   -1.01503  -0.95302  -0.94894  -0.92597  -0.89905
 Alpha  occ. eigenvalues --   -0.87862  -0.84645  -0.79970  -0.78818  -0.78595
 Alpha  occ. eigenvalues --   -0.75283  -0.73141  -0.71120  -0.69287  -0.67819
 Alpha  occ. eigenvalues --   -0.66245  -0.65622  -0.63304  -0.59942  -0.58979
 Alpha  occ. eigenvalues --   -0.57748  -0.57200  -0.54851  -0.53258  -0.53166
 Alpha  occ. eigenvalues --   -0.51887  -0.50674  -0.49978  -0.49275  -0.49004
 Alpha  occ. eigenvalues --   -0.48612  -0.47453  -0.47335  -0.45651  -0.45214
 Alpha  occ. eigenvalues --   -0.44747  -0.43630  -0.42768  -0.42745  -0.42104
 Alpha  occ. eigenvalues --   -0.41760  -0.40928  -0.40643  -0.39713  -0.39603
 Alpha  occ. eigenvalues --   -0.39224  -0.38602  -0.38486  -0.37827  -0.36204
 Alpha  occ. eigenvalues --   -0.36161  -0.35042  -0.34596  -0.34279  -0.32384
 Alpha  occ. eigenvalues --   -0.31484  -0.30981  -0.29930  -0.29360  -0.29020
 Alpha  occ. eigenvalues --   -0.28062  -0.27850  -0.26103  -0.26017  -0.25303
 Alpha  occ. eigenvalues --   -0.23743
 Alpha virt. eigenvalues --   -0.04861  -0.04321  -0.03181  -0.00059   0.01449
 Alpha virt. eigenvalues --    0.02125   0.02696   0.07125   0.08308   0.09929
 Alpha virt. eigenvalues --    0.10645   0.10698   0.11592   0.12134   0.12607

 Mulliken charges:
               1
     1  C   -0.327644
     2  H    0.181339
     3  H    0.193122
     4  H    0.179458
     5  N   -0.393338
     6  C   -0.262737
     7  H    0.208394
     8  H    0.222467
     9  C    0.331640
    10  C    0.122478
    11  C    0.432247
    12  N   -0.280004
    13  O   -0.371507
    14  C    0.616613
    15  N   -0.562728
    16  C    0.198941
    17  C   -0.458673
    18  H    0.172769
    19  H    0.173583
    20  H    0.174058
    21  O   -0.680457
    22  H    0.433632
    23  C   -0.036984
    24  O   -0.665914
    25  H    0.456272
    26  H    0.158907
    27  H    0.153648
    28  N   -0.561438
    29  C    0.227052
    30  H    0.208359
    31  N   -0.559352
    32  C    0.291281
    33  C   -0.154130
    34  H    0.186926
    35  C   -0.140154
    36  H    0.181659
    37  C   -0.126576
    38  H    0.184056
    39  C   -0.134589
    40  Cl  -0.008764
    41  C    0.056771
    42  C    0.543067
    43  O   -0.563750
 Sum of Mulliken charges =   0.00000

 Dipole moment (field-independent basis, Debye):
    X=              1.3238    Y=             -3.6136    Z=              5.0896  Tot=              6.3808
 Quadrupole moment (field-independent basis, Debye-Ang):
   XX=           -150.8992   YY=           -157.8843   ZZ=           -161.6170
   XY=             59.7811   XZ=             11.3769   YZ=              4.8338

 Normal termination of Gaussian 09 at Thu Jan 28 05:05:07 2021.
