 Gaussian 09, Revision D.01,

 -----------------
 #p b3lyp/6-31G(d)
 -----------------

 ---------------------------------------------
 SET_328_BBB20_conf1.geo_270_180_300.n.pdb.xyz
 ---------------------------------------------
 Symbolic Z-matrix:
 Charge =  0 Multiplicity = 1

 SCF Done:  E(RB3LYP) =  -769.340526213     A.U. after   15 cycles
 Normal termination of Gaussian 09 at Sun Jan 24 22:41:48 2021.
 Gaussian 09:  AM64L-G09RevD.01 24-Apr-2013

 ----------------------------------------------------------------------
 #p b3lyp/6-31G(d) scrf=(iefpcm,read,solvent=Water) geom=allcheck guess
 =read
 ----------------------------------------------------------------------

 Structure from the checkpoint file:  "SET_328_BBB20_conf1.geo_270_180_300.n.pdb.xyz.mst.n.w.chk"
 ---------------------------------------------
 SET_328_BBB20_conf1.geo_270_180_300.n.pdb.xyz
 ---------------------------------------------
 Charge =  0 Multiplicity = 1

                         Standard orientation:
 ---------------------------------------------------------------------
 Center     Atomic      Atomic             Coordinates (Angstroms)
 Number     Number       Type             X           Y           Z
 ---------------------------------------------------------------------
      1          7           0        4.000168   -2.214545    0.762595
      2          1           0        4.779719   -2.825969    0.997612
      3          1           0        3.760397   -1.752591    1.638244
      4          6           0        2.867629   -3.046928    0.323034
      5          1           0        2.422724   -3.643133    1.137581
      6          1           0        3.249196   -3.763759   -0.413019
      7          6           0        1.771734   -2.209683   -0.345293
      8          1           0        1.015934   -2.890047   -0.748833
      9          1           0        2.204676   -1.668336   -1.194199
     10          6           0        1.110695   -1.222690    0.630344
     11          1           0        1.888408   -0.642094    1.130359
     12          1           0        0.588389   -1.791445    1.408660
     13          7           0        0.156549   -0.245288    0.075425
     14          6           0        0.587806    1.084226   -0.146012
     15          6           0        1.909859    1.265862   -0.614349
     16          1           0        2.526666    0.392602   -0.793760
     17          6           0        2.442035    2.526441   -0.863398
     18          1           0        3.461545    2.613384   -1.224925
     19          6           0        1.656997    3.662488   -0.668044
     20          1           0        2.049033    4.654825   -0.864602
     21          6           0        0.361047    3.497254   -0.189141
     22          1           0       -0.249522    4.376446    0.004265
     23          6           0       -0.198715    2.241547    0.097501
     24          6           0       -1.591729    2.260947    0.705936
     25          1           0       -2.345675    2.420108   -0.077470
     26          1           0       -1.650300    3.140161    1.358171
     27          6           0       -1.993455    1.016259    1.507569
     28          1           0       -2.900877    1.235512    2.077164
     29          1           0       -1.206672    0.774407    2.231732
     30          6           0       -2.248531   -0.143726    0.590706
     31          6           0       -3.540678   -0.637159    0.387602
     32          1           0       -4.358183   -0.200490    0.955494
     33          6           0       -3.789114   -1.675863   -0.510184
     34          1           0       -4.798998   -2.052678   -0.643878
     35          6           0       -2.729002   -2.216325   -1.239794
     36          1           0       -2.903468   -3.013708   -1.955831
     37          6           0       -1.437299   -1.717554   -1.063191
     38          1           0       -0.621552   -2.116491   -1.653225
     39          6           0       -1.180690   -0.689741   -0.142566
 ---------------------------------------------------------------------

 SCF Done:  E(RB3LYP) =  -769.350529079     A.U. after   10 cycles

 The electronic state is 1-A.
 Alpha  occ. eigenvalues --  -14.34649 -14.30423 -10.22892 -10.22267 -10.21345
 Alpha  occ. eigenvalues --  -10.20182 -10.19311 -10.19276 -10.18925 -10.18846
 Alpha  occ. eigenvalues --  -10.18773 -10.18765 -10.18726 -10.18499 -10.18451
 Alpha  occ. eigenvalues --  -10.18356 -10.18114 -10.17985 -10.17492  -0.94511
 Alpha  occ. eigenvalues --   -0.87107  -0.85436  -0.84234  -0.79749  -0.76098
 Alpha  occ. eigenvalues --   -0.75371  -0.75155  -0.72288  -0.69944  -0.65884
 Alpha  occ. eigenvalues --   -0.64607  -0.60623  -0.59590  -0.58518  -0.57742
 Alpha  occ. eigenvalues --   -0.56200  -0.51719  -0.50279  -0.48554  -0.47673
 Alpha  occ. eigenvalues --   -0.47012  -0.46889  -0.45826  -0.45022  -0.43115
 Alpha  occ. eigenvalues --   -0.43061  -0.42556  -0.41383  -0.41157  -0.39951
 Alpha  occ. eigenvalues --   -0.39126  -0.38581  -0.37754  -0.36589  -0.36034
 Alpha  occ. eigenvalues --   -0.35886  -0.34609  -0.34374  -0.33647  -0.33224
 Alpha  occ. eigenvalues --   -0.32860  -0.32560  -0.28067  -0.24949  -0.24310
 Alpha  occ. eigenvalues --   -0.23952  -0.23444  -0.19193
 Alpha virt. eigenvalues --   -0.00725  -0.00216   0.00287   0.01037   0.08398
 Alpha virt. eigenvalues --    0.10067   0.10606   0.10794   0.12109   0.12908
 Alpha virt. eigenvalues --    0.13583   0.14073   0.14255   0.15295   0.15316

 Mulliken charges:
               1
     1  N   -0.776000
     2  H    0.330856
     3  H    0.328182
     4  C   -0.147764
     5  H    0.124427
     6  H    0.145153
     7  C   -0.253611
     8  H    0.141230
     9  H    0.146326
    10  C   -0.152964
    11  H    0.161111
    12  H    0.152298
    13  N   -0.588806
    14  C    0.237858
    15  C   -0.193502
    16  H    0.149786
    17  C   -0.167955
    18  H    0.143744
    19  C   -0.154013
    20  H    0.139758
    21  C   -0.228255
    22  H    0.138227
    23  C    0.143996
    24  C   -0.343960
    25  H    0.159388
    26  H    0.158916
    27  C   -0.350994
    28  H    0.152923
    29  H    0.158473
    30  C    0.154897
    31  C   -0.230268
    32  H    0.144192
    33  C   -0.142078
    34  H    0.147054
    35  C   -0.167065
    36  H    0.148412
    37  C   -0.167213
    38  H    0.154629
    39  C    0.202608
 Sum of Mulliken charges =   0.00000

 Dipole moment (field-independent basis, Debye):
    X=             -0.2564    Y=             -2.2272    Z=              2.2329  Tot=              3.1642
 Quadrupole moment (field-independent basis, Debye-Ang):
   XX=           -103.3059   YY=           -101.7684   ZZ=           -110.4108
   XY=             -7.9022   XZ=              3.2927   YZ=              0.8251

 Normal termination of Gaussian 09 at Sun Jan 24 22:45:46 2021.
