 Gaussian 09, Revision D.01,

 -----------------
 #p b3lyp/6-31G(d)
 -----------------

 ----------------------------------------------
 SET_328_BBB321_conf1.geo_180_030_300.n.pdb.xyz
 ----------------------------------------------
 Symbolic Z-matrix:
 Charge =  0 Multiplicity = 1

 SCF Done:  E(RB3LYP) =  -1212.31323593     A.U. after   15 cycles
 Normal termination of Gaussian 09 at Thu Jan 28 04:43:41 2021.
 Gaussian 09:  AM64L-G09RevD.01 24-Apr-2013

 ----------------------------------------------------------------------
 #p b3lyp/6-31G(d) scrf=(iefpcm,read,solvent=Water) geom=allcheck guess
 =read
 ----------------------------------------------------------------------

 Structure from the checkpoint file:  "SET_328_BBB321_conf1.geo_180_030_300.n.pdb.xyz.mst.n.w.chk"
 ----------------------------------------------
 SET_328_BBB321_conf1.geo_180_030_300.n.pdb.xyz
 ----------------------------------------------
 Charge =  0 Multiplicity = 1

                         Standard orientation:
 ---------------------------------------------------------------------
 Center     Atomic      Atomic             Coordinates (Angstroms)
 Number     Number       Type             X           Y           Z
 ---------------------------------------------------------------------
      1          6           0        4.604263    2.864482    0.161793
      2          1           0        4.383506    3.760724   -0.420018
      3          1           0        5.528544    2.413901   -0.204299
      4          1           0        4.756772    3.170231    1.201661
      5          6           0        3.409414    1.933164    0.090103
      6          8           0        2.256621    2.364989    0.128377
      7          7           0        3.727396    0.604006    0.008704
      8          1           0        4.716673    0.384091   -0.014385
      9          6           0        2.870119   -0.513425   -0.038113
     10          6           0        3.470649   -1.777568   -0.144601
     11          6           0        2.675943   -2.921160   -0.197856
     12          6           0        1.287494   -2.823990   -0.147655
     13          1           0        0.679847   -3.720496   -0.202395
     14          1           0        3.146954   -3.894541   -0.283202
     15          1           0        4.551596   -1.862212   -0.188338
     16          6           0        1.474411   -0.412367    0.015985
     17          1           0        1.014029    0.558352    0.103769
     18          6           0        0.675464   -1.565006   -0.037683
     19          6           0       -0.792643   -1.437919    0.024950
     20          7           0       -1.372844   -0.177833   -0.027277
     21          6           0       -1.672706   -2.480043    0.141252
     22          1           0       -1.454015   -3.533419    0.215078
     23         16           0       -3.307431   -1.896412    0.185050
     24          6           0       -2.689735   -0.228018    0.041476
     25          7           0       -3.613634    0.755963    0.016852
     26          6           0       -3.254744    2.031723   -0.103412
     27          7           0       -4.256888    2.947846   -0.201447
     28          1           0       -4.048134    3.918415    0.007105
     29          1           0       -5.174125    2.627935    0.084003
     30          7           0       -1.989962    2.486952   -0.161130
     31          1           0       -1.242211    1.800207   -0.214299
     32          1           0       -1.799562    3.461713   -0.359851
 ---------------------------------------------------------------------

 SCF Done:  E(RB3LYP) =  -1212.34583286     A.U. after   12 cycles

 The electronic state is 1-A.
 Alpha  occ. eigenvalues --  -88.90223 -19.12239 -14.37526 -14.35164 -14.34960
 Alpha  occ. eigenvalues --  -14.32443 -14.31173 -10.30769 -10.29842 -10.27742
 Alpha  occ. eigenvalues --  -10.23866 -10.22441 -10.20716 -10.20403 -10.19390
 Alpha  occ. eigenvalues --  -10.19211 -10.18803 -10.18720 -10.18388  -7.96412
 Alpha  occ. eigenvalues --   -5.92801  -5.92467  -5.92092  -1.03946  -0.99835
 Alpha  occ. eigenvalues --   -0.95512  -0.94153  -0.87930  -0.87697  -0.85091
 Alpha  occ. eigenvalues --   -0.78908  -0.77546  -0.75773  -0.72380  -0.70924
 Alpha  occ. eigenvalues --   -0.64464  -0.63029  -0.61661  -0.58527  -0.58076
 Alpha  occ. eigenvalues --   -0.56245  -0.54417  -0.52674  -0.51017  -0.49387
 Alpha  occ. eigenvalues --   -0.48407  -0.47769  -0.47087  -0.45207  -0.45031
 Alpha  occ. eigenvalues --   -0.43781  -0.43430  -0.42174  -0.41126  -0.40670
 Alpha  occ. eigenvalues --   -0.40314  -0.39806  -0.39131  -0.37603  -0.35942
 Alpha  occ. eigenvalues --   -0.35604  -0.34753  -0.31818  -0.29486  -0.28342
 Alpha  occ. eigenvalues --   -0.28255  -0.27470  -0.26971  -0.25695  -0.24617
 Alpha  occ. eigenvalues --   -0.22571  -0.19415
 Alpha virt. eigenvalues --   -0.03445  -0.01293  -0.00921   0.02400   0.03779
 Alpha virt. eigenvalues --    0.07304   0.08771   0.09203   0.09872   0.10290
 Alpha virt. eigenvalues --    0.11763   0.13022   0.13592   0.14186   0.14520

 Mulliken charges:
               1
     1  C   -0.542434
     2  H    0.185650
     3  H    0.176550
     4  H    0.196753
     5  C    0.599904
     6  O   -0.556456
     7  N   -0.711713
     8  H    0.387821
     9  C    0.345744
    10  C   -0.207310
    11  C   -0.159488
    12  C   -0.205511
    13  H    0.148123
    14  H    0.153528
    15  H    0.156884
    16  C   -0.250027
    17  H    0.186653
    18  C    0.099323
    19  C    0.276412
    20  N   -0.583207
    21  C   -0.431222
    22  H    0.198300
    23  S    0.181000
    24  C    0.304565
    25  N   -0.616829
    26  C    0.664087
    27  N   -0.772591
    28  H    0.386899
    29  H    0.382090
    30  N   -0.786339
    31  H    0.401775
    32  H    0.391068
 Sum of Mulliken charges =   0.00000

 Dipole moment (field-independent basis, Debye):
    X=              4.8567    Y=              4.3294    Z=              0.1022  Tot=              6.5071
 Quadrupole moment (field-independent basis, Debye-Ang):
   XX=            -76.8857   YY=            -84.8122   ZZ=           -121.6266
   XY=            -19.4156   XZ=             -2.4642   YZ=              0.7227

 Normal termination of Gaussian 09 at Thu Jan 28 04:47:07 2021.
