 Gaussian 09, Revision D.01,

 -----------------
 #p b3lyp/6-31G(d)
 -----------------

 ----------------------------------------------
 SET_328_BBB227_conf1.geo_165_180_240.n.pdb.xyz
 ----------------------------------------------
 Symbolic Z-matrix:
 Charge =  0 Multiplicity = 1

 SCF Done:  E(RB3LYP) =  -1203.26798291     A.U. after   15 cycles
 Normal termination of Gaussian 09 at Mon Mar 29 22:47:36 2021.
 Gaussian 09:  AM64L-G09RevD.01 24-Apr-2013

 ----------------------------------------------------------------------
 #p b3lyp/6-31G(d) scrf=(iefpcm,read,solvent=Water) geom=allcheck guess
 =read
 ----------------------------------------------------------------------

 Structure from the checkpoint file:  "SET_328_BBB227_conf1.geo_165_180_240.n.pdb.xyz.mst.n.w.chk"
 ----------------------------------------------
 SET_328_BBB227_conf1.geo_165_180_240.n.pdb.xyz
 ----------------------------------------------
 Charge =  0 Multiplicity = 1

                         Standard orientation:
 ---------------------------------------------------------------------
 Center     Atomic      Atomic             Coordinates (Angstroms)
 Number     Number       Type             X           Y           Z
 ---------------------------------------------------------------------
      1         16           0       -1.515909    2.410649    0.627920
      2          6           0       -1.073727    0.946506   -0.174230
      3          7           0       -1.999321    0.011241   -0.476725
      4          6           0       -3.393604   -0.029847   -0.030645
      5          6           0       -4.308212   -0.386959   -1.210490
      6          6           0       -5.776023   -0.471410   -0.767618
      7          6           0       -5.961085   -1.454167    0.396206
      8          6           0       -5.041541   -1.101691    1.572030
      9          6           0       -3.573195   -1.017785    1.132681
     10          1           0       -3.227235   -2.009315    0.811954
     11          1           0       -2.936300   -0.711756    1.969915
     12          1           0       -5.145483   -1.839636    2.375471
     13          1           0       -5.347013   -0.134289    1.994121
     14          1           0       -5.732677   -2.471917    0.050960
     15          1           0       -7.007115   -1.460223    0.722729
     16          1           0       -6.400825   -0.763935   -1.618504
     17          1           0       -6.116763    0.525262   -0.457104
     18          1           0       -3.999884   -1.355336   -1.627207
     19          1           0       -4.187415    0.356414   -2.005718
     20          1           0       -3.633872    0.977621    0.317365
     21          1           0       -1.731363   -0.751212   -1.087289
     22          7           0        0.218009    0.670671   -0.514460
     23          6           0        0.661442   -0.648503   -0.991257
     24          6           0        2.028599   -1.022996   -0.408059
     25          1           0        1.921816   -1.190884    0.669968
     26          1           0        2.344821   -1.969603   -0.856092
     27          1           0       -0.054217   -1.404401   -0.674360
     28          1           0        0.698182   -0.653509   -2.088536
     29          6           0        1.210221    1.738868   -0.714610
     30          1           0        0.804828    2.653550   -0.287491
     31          1           0        1.330906    1.891582   -1.797381
     32          6           0        2.563614    1.393396   -0.094462
     33          1           0        2.457040    1.331109    0.995911
     34          1           0        3.263681    2.207238   -0.309770
     35          6           0        3.094338    0.063143   -0.643844
     36          1           0        3.217125    0.173238   -1.732114
     37          6           0        4.427312   -0.332044   -0.072280
     38          6           0        5.112259    0.193009    1.000727
     39          1           0        4.896174    1.000993    1.679425
     40          7           0        6.268347   -0.547579    1.105221
     41          1           0        7.002174   -0.419069    1.793253
     42          6           0        6.247952   -1.476279    0.116531
     43          1           0        7.048152   -2.187724   -0.025490
     44          7           0        5.152924   -1.380623   -0.617584
 ---------------------------------------------------------------------

 SCF Done:  E(RB3LYP) =  -1203.29508649     A.U. after   11 cycles

 The electronic state is 1-A.
 Alpha  occ. eigenvalues --  -88.81858 -14.38376 -14.37425 -14.36857 -14.31350
 Alpha  occ. eigenvalues --  -10.30255 -10.23691 -10.22564 -10.21941 -10.21564
 Alpha  occ. eigenvalues --  -10.20804 -10.20073 -10.19384 -10.18627 -10.18443
 Alpha  occ. eigenvalues --  -10.18080 -10.17787 -10.17779 -10.17684 -10.17521
 Alpha  occ. eigenvalues --   -7.88079  -5.84672  -5.83959  -5.83734  -1.00856
 Alpha  occ. eigenvalues --   -0.99246  -0.92429  -0.86693  -0.82852  -0.81091
 Alpha  occ. eigenvalues --   -0.76903  -0.75468  -0.73978  -0.73113  -0.71294
 Alpha  occ. eigenvalues --   -0.66903  -0.64026  -0.61612  -0.61034  -0.60481
 Alpha  occ. eigenvalues --   -0.58960  -0.57410  -0.56301  -0.54978  -0.54696
 Alpha  occ. eigenvalues --   -0.53186  -0.49086  -0.47011  -0.46046  -0.45426
 Alpha  occ. eigenvalues --   -0.44789  -0.44523  -0.43905  -0.43421  -0.43047
 Alpha  occ. eigenvalues --   -0.42875  -0.41735  -0.41372  -0.40135  -0.39463
 Alpha  occ. eigenvalues --   -0.38578  -0.37668  -0.36846  -0.35840  -0.35367
 Alpha  occ. eigenvalues --   -0.34550  -0.34231  -0.33669  -0.33388  -0.32166
 Alpha  occ. eigenvalues --   -0.31919  -0.31063  -0.30180  -0.27686  -0.27517
 Alpha  occ. eigenvalues --   -0.24065  -0.22290  -0.21614  -0.20923
 Alpha virt. eigenvalues --    0.00076   0.03345   0.06148   0.07628   0.08955
 Alpha virt. eigenvalues --    0.09070   0.10978   0.11009   0.11444   0.12145
 Alpha virt. eigenvalues --    0.13144   0.13551   0.14736   0.15039   0.15220

 Mulliken charges:
               1
     1  S   -0.489497
     2  C    0.379347
     3  N   -0.596603
     4  C    0.043720
     5  C   -0.276113
     6  C   -0.266746
     7  C   -0.260892
     8  C   -0.267275
     9  C   -0.257018
    10  H    0.134680
    11  H    0.143159
    12  H    0.138810
    13  H    0.137201
    14  H    0.134310
    15  H    0.136084
    16  H    0.139968
    17  H    0.138389
    18  H    0.139751
    19  H    0.146142
    20  H    0.169826
    21  H    0.381350
    22  N   -0.407304
    23  C   -0.166652
    24  C   -0.266011
    25  H    0.148447
    26  H    0.158200
    27  H    0.172466
    28  H    0.169664
    29  C   -0.143947
    30  H    0.187319
    31  H    0.156413
    32  C   -0.275317
    33  H    0.150335
    34  H    0.154192
    35  C   -0.163781
    36  H    0.139503
    37  C    0.220239
    38  C   -0.030137
    39  H    0.175165
    40  N   -0.551716
    41  H    0.399821
    42  C    0.202464
    43  H    0.180114
    44  N   -0.558071
 Sum of Mulliken charges =   0.00000

 Dipole moment (field-independent basis, Debye):
    X=              4.4991    Y=             -5.3999    Z=             -0.1119  Tot=              7.0295
 Quadrupole moment (field-independent basis, Debye-Ang):
   XX=            -84.3303   YY=           -142.2312   ZZ=           -124.7645
   XY=             17.7417   XZ=             26.6253   YZ=             -4.9876

 Normal termination of Gaussian 09 at Mon Mar 29 22:52:05 2021.
