 Gaussian 09, Revision D.01,

 -----------------
 #p b3lyp/6-31G(d)
 -----------------

 ----------------------------------------------
 SET_328_BBB321_conf1.geo_045_330_135.n.pdb.xyz
 ----------------------------------------------
 Symbolic Z-matrix:
 Charge =  0 Multiplicity = 1

 SCF Done:  E(RB3LYP) =  -1212.29796774     A.U. after   15 cycles
 Normal termination of Gaussian 09 at Thu Jan 28 04:43:17 2021.
 Gaussian 09:  AM64L-G09RevD.01 24-Apr-2013

 ----------------------------------------------------------------------
 #p b3lyp/6-31G(d) scrf=(iefpcm,read,solvent=Water) geom=allcheck guess
 =read
 ----------------------------------------------------------------------

 Structure from the checkpoint file:  "SET_328_BBB321_conf1.geo_045_330_135.n.pdb.xyz.mst.n.w.chk"
 ----------------------------------------------
 SET_328_BBB321_conf1.geo_045_330_135.n.pdb.xyz
 ----------------------------------------------
 Charge =  0 Multiplicity = 1

                         Standard orientation:
 ---------------------------------------------------------------------
 Center     Atomic      Atomic             Coordinates (Angstroms)
 Number     Number       Type             X           Y           Z
 ---------------------------------------------------------------------
      1          6           0        5.421199    2.790284    0.061729
      2          1           0        6.219066    2.921742    0.795341
      3          1           0        4.606967    3.481076    0.287733
      4          1           0        5.830742    3.042316   -0.921734
      5          6           0        4.996941    1.333428    0.059667
      6          8           0        5.828209    0.423617    0.050341
      7          7           0        3.644325    1.133113    0.049207
      8          1           0        3.069275    1.967192    0.050709
      9          6           0        2.928179   -0.079658    0.017252
     10          6           0        3.544906   -1.338946    0.010683
     11          6           0        2.745818   -2.484276   -0.020070
     12          6           0        1.357831   -2.400176   -0.042802
     13          1           0        0.760780   -3.305548   -0.068035
     14          1           0        3.224466   -3.458715   -0.025690
     15          1           0        4.621606   -1.403547    0.028546
     16          6           0        1.528581    0.006848   -0.004840
     17          1           0        1.044310    0.977505    0.000487
     18          6           0        0.731145   -1.142512   -0.035785
     19          6           0       -0.740054   -1.012501   -0.060973
     20          7           0       -1.304344    0.248207   -0.075648
     21          6           0       -1.625414   -2.055863   -0.072897
     22          1           0       -1.420137   -3.115001   -0.060120
     23         16           0       -3.258332   -1.471478   -0.097546
     24          6           0       -2.619241    0.223848   -0.094446
     25          7           0       -3.351324    1.354233   -0.203912
     26          6           0       -4.641777    1.449389    0.052830
     27          7           0       -5.259292    2.610323   -0.274345
     28          1           0       -6.270442    2.666186   -0.253005
     29          1           0       -4.784950    3.214028   -0.933688
     30          7           0       -5.421177    0.485929    0.625489
     31          1           0       -6.351961    0.762120    0.923576
     32          1           0       -4.968082   -0.156478    1.266256
 ---------------------------------------------------------------------

 SCF Done:  E(RB3LYP) =  -1212.33999751     A.U. after   12 cycles

 The electronic state is 1-A.
 Alpha  occ. eigenvalues --  -88.90350 -19.12221 -14.37538 -14.35958 -14.35500
 Alpha  occ. eigenvalues --  -14.31973 -14.31626 -10.31348 -10.29852 -10.27916
 Alpha  occ. eigenvalues --  -10.23804 -10.22305 -10.20699 -10.20442 -10.19200
 Alpha  occ. eigenvalues --  -10.18949 -10.18770 -10.18738 -10.18504  -7.96511
 Alpha  occ. eigenvalues --   -5.92900  -5.92561  -5.92198  -1.03932  -1.00037
 Alpha  occ. eigenvalues --   -0.95739  -0.94169  -0.88430  -0.88028  -0.85100
 Alpha  occ. eigenvalues --   -0.78854  -0.77434  -0.75875  -0.72372  -0.70811
 Alpha  occ. eigenvalues --   -0.64570  -0.63576  -0.61122  -0.59562  -0.58198
 Alpha  occ. eigenvalues --   -0.55260  -0.54124  -0.52685  -0.51470  -0.49363
 Alpha  occ. eigenvalues --   -0.48615  -0.48062  -0.47393  -0.45194  -0.44514
 Alpha  occ. eigenvalues --   -0.43581  -0.43451  -0.42786  -0.41738  -0.40811
 Alpha  occ. eigenvalues --   -0.40452  -0.39866  -0.39226  -0.37491  -0.35942
 Alpha  occ. eigenvalues --   -0.35471  -0.34662  -0.31775  -0.29991  -0.28389
 Alpha  occ. eigenvalues --   -0.28202  -0.27787  -0.26525  -0.25784  -0.24376
 Alpha  occ. eigenvalues --   -0.22523  -0.19586
 Alpha virt. eigenvalues --   -0.03574  -0.01277  -0.01076   0.02360   0.03616
 Alpha virt. eigenvalues --    0.06741   0.08086   0.09091   0.09888   0.10198
 Alpha virt. eigenvalues --    0.12194   0.13310   0.13697   0.13993   0.14348

 Mulliken charges:
               1
     1  C   -0.542842
     2  H    0.187768
     3  H    0.175867
     4  H    0.195325
     5  C    0.602739
     6  O   -0.561641
     7  N   -0.708629
     8  H    0.388528
     9  C    0.354903
    10  C   -0.182973
    11  C   -0.168543
    12  C   -0.204838
    13  H    0.147493
    14  H    0.151004
    15  H    0.168199
    16  C   -0.276392
    17  H    0.157163
    18  C    0.103667
    19  C    0.272583
    20  N   -0.554839
    21  C   -0.427755
    22  H    0.198747
    23  S    0.166992
    24  C    0.259941
    25  N   -0.592078
    26  C    0.665263
    27  N   -0.764686
    28  H    0.393931
    29  H    0.387167
    30  N   -0.776063
    31  H    0.395459
    32  H    0.388541
 Sum of Mulliken charges =   0.00000

 Dipole moment (field-independent basis, Debye):
    X=            -11.9678    Y=              4.5574    Z=              1.3334  Tot=             12.8754
 Quadrupole moment (field-independent basis, Debye-Ang):
   XX=            -71.0207   YY=            -91.8784   ZZ=           -116.9038
   XY=             -5.6967   XZ=             -7.4131   YZ=             -3.4122

 Normal termination of Gaussian 09 at Thu Jan 28 04:46:15 2021.
