 Gaussian 09, Revision D.01,

 -----------------
 #p b3lyp/6-31G(d)
 -----------------

 ----------------------------------------------
 SET_328_BBB321_conf1.geo_180_165_300.n.pdb.xyz
 ----------------------------------------------
 Symbolic Z-matrix:
 Charge =  0 Multiplicity = 1

 SCF Done:  E(RB3LYP) =  -1212.31189101     A.U. after   16 cycles
 Normal termination of Gaussian 09 at Thu Jan 28 04:43:39 2021.
 Gaussian 09:  AM64L-G09RevD.01 24-Apr-2013

 ----------------------------------------------------------------------
 #p b3lyp/6-31G(d) scrf=(iefpcm,read,solvent=Water) geom=allcheck guess
 =read
 ----------------------------------------------------------------------

 Structure from the checkpoint file:  "SET_328_BBB321_conf1.geo_180_165_300.n.pdb.xyz.mst.n.w.chk"
 ----------------------------------------------
 SET_328_BBB321_conf1.geo_180_165_300.n.pdb.xyz
 ----------------------------------------------
 Charge =  0 Multiplicity = 1

                         Standard orientation:
 ---------------------------------------------------------------------
 Center     Atomic      Atomic             Coordinates (Angstroms)
 Number     Number       Type             X           Y           Z
 ---------------------------------------------------------------------
      1          6           0        6.287605   -0.887699    0.184694
      2          1           0        6.682277   -0.833376   -0.835176
      3          1           0        6.563311   -1.852082    0.609347
      4          1           0        6.746301   -0.087118    0.767776
      5          6           0        4.774581   -0.784861    0.149604
      6          8           0        4.054041   -1.785498    0.154733
      7          7           0        4.298740    0.497848    0.082453
      8          1           0        4.998113    1.230314    0.078594
      9          6           0        2.966324    0.944728   -0.013309
     10          6           0        2.755748    2.331805   -0.107880
     11          6           0        1.458485    2.828418   -0.194263
     12          6           0        0.361529    1.967251   -0.189704
     13          1           0       -0.646359    2.355186   -0.259807
     14          1           0        1.301952    3.900202   -0.265521
     15          1           0        3.603718    3.008673   -0.112003
     16          6           0        1.868980    0.078923   -0.008177
     17          1           0        2.047973   -0.980267    0.075567
     18          6           0        0.562430    0.582394   -0.099429
     19          6           0       -0.588372   -0.340482   -0.103952
     20          7           0       -1.873811    0.174828   -0.025761
     21          6           0       -0.509877   -1.704468   -0.185988
     22          1           0        0.372400   -2.319889   -0.273149
     23         16           0       -2.097381   -2.408295   -0.163629
     24          6           0       -2.795335   -0.770271   -0.040676
     25          7           0       -4.143208   -0.691569    0.025832
     26          6           0       -4.756237    0.483603    0.145015
     27          7           0       -4.150840    1.686013    0.147328
     28          1           0       -4.672159    2.523278    0.374860
     29          1           0       -3.134160    1.697485    0.174279
     30          7           0       -6.110050    0.461590    0.297845
     31          1           0       -6.566535   -0.407149    0.047423
     32          1           0       -6.632051    1.304431    0.088515
 ---------------------------------------------------------------------

 SCF Done:  E(RB3LYP) =  -1212.34579143     A.U. after   12 cycles

 The electronic state is 1-A.
 Alpha  occ. eigenvalues --  -88.90248 -19.12430 -14.37504 -14.35149 -14.34960
 Alpha  occ. eigenvalues --  -14.32494 -14.31211 -10.30774 -10.29938 -10.27776
 Alpha  occ. eigenvalues --  -10.23922 -10.22431 -10.20718 -10.20366 -10.19344
 Alpha  occ. eigenvalues --  -10.19239 -10.18723 -10.18545 -10.18539  -7.96433
 Alpha  occ. eigenvalues --   -5.92822  -5.92489  -5.92114  -1.04011  -0.99817
 Alpha  occ. eigenvalues --   -0.95532  -0.94201  -0.87927  -0.87688  -0.85100
 Alpha  occ. eigenvalues --   -0.78922  -0.77528  -0.75934  -0.72222  -0.71021
 Alpha  occ. eigenvalues --   -0.64258  -0.63630  -0.61210  -0.58434  -0.57944
 Alpha  occ. eigenvalues --   -0.56512  -0.54508  -0.52594  -0.51183  -0.49306
 Alpha  occ. eigenvalues --   -0.48279  -0.48029  -0.47066  -0.45278  -0.44709
 Alpha  occ. eigenvalues --   -0.43794  -0.43509  -0.42523  -0.40907  -0.40628
 Alpha  occ. eigenvalues --   -0.40298  -0.39886  -0.39152  -0.37456  -0.36390
 Alpha  occ. eigenvalues --   -0.36012  -0.34258  -0.31856  -0.29589  -0.28274
 Alpha  occ. eigenvalues --   -0.28202  -0.27500  -0.26975  -0.25818  -0.24904
 Alpha  occ. eigenvalues --   -0.22319  -0.19503
 Alpha virt. eigenvalues --   -0.03410  -0.01673  -0.00585   0.02396   0.03739
 Alpha virt. eigenvalues --    0.07075   0.08906   0.09299   0.09905   0.10275
 Alpha virt. eigenvalues --    0.11456   0.12991   0.13691   0.14220   0.14746

 Mulliken charges:
               1
     1  C   -0.542803
     2  H    0.197538
     3  H    0.182965
     4  H    0.182270
     5  C    0.594450
     6  O   -0.554178
     7  N   -0.706969
     8  H    0.388725
     9  C    0.338862
    10  C   -0.205752
    11  C   -0.157066
    12  C   -0.199524
    13  H    0.153707
    14  H    0.152244
    15  H    0.157199
    16  C   -0.250459
    17  H    0.174898
    18  C    0.100004
    19  C    0.275772
    20  N   -0.584579
    21  C   -0.429530
    22  H    0.198205
    23  S    0.182285
    24  C    0.304310
    25  N   -0.616806
    26  C    0.661697
    27  N   -0.782709
    28  H    0.390457
    29  H    0.398257
    30  N   -0.772213
    31  H    0.382118
    32  H    0.386625
 Sum of Mulliken charges =   0.00000

 Dipole moment (field-independent basis, Debye):
    X=             -0.9755    Y=              8.5750    Z=             -0.1788  Tot=              8.6322
 Quadrupole moment (field-independent basis, Debye-Ang):
   XX=            -37.0371   YY=           -108.3921   ZZ=           -121.8049
   XY=             -8.0822   XZ=              1.0362   YZ=              1.7698

 Normal termination of Gaussian 09 at Thu Jan 28 04:46:42 2021.
