 Gaussian 09, Revision D.01,

 -----------------
 #p b3lyp/6-31G(d)
 -----------------

 ----------------------------------------------
 SET_328_BBB321_conf1.geo_180_330_045.n.pdb.xyz
 ----------------------------------------------
 Symbolic Z-matrix:
 Charge =  0 Multiplicity = 1

 SCF Done:  E(RB3LYP) =  -1212.31320979     A.U. after   15 cycles
 Normal termination of Gaussian 09 at Thu Jan 28 04:43:56 2021.
 Gaussian 09:  AM64L-G09RevD.01 24-Apr-2013

 ----------------------------------------------------------------------
 #p b3lyp/6-31G(d) scrf=(iefpcm,read,solvent=Water) geom=allcheck guess
 =read
 ----------------------------------------------------------------------

 Structure from the checkpoint file:  "SET_328_BBB321_conf1.geo_180_330_045.n.pdb.xyz.mst.n.w.chk"
 ----------------------------------------------
 SET_328_BBB321_conf1.geo_180_330_045.n.pdb.xyz
 ----------------------------------------------
 Charge =  0 Multiplicity = 1

                         Standard orientation:
 ---------------------------------------------------------------------
 Center     Atomic      Atomic             Coordinates (Angstroms)
 Number     Number       Type             X           Y           Z
 ---------------------------------------------------------------------
      1          6           0        4.564592    2.888755    0.132912
      2          1           0        4.544312    3.453061    1.068522
      3          1           0        4.446426    3.606723   -0.683031
      4          1           0        5.534767    2.398589    0.035669
      5          6           0        3.386846    1.933614    0.114336
      6          8           0        2.228717    2.348758    0.205712
      7          7           0        3.718138    0.611390   -0.005355
      8          1           0        4.705698    0.401525   -0.075862
      9          6           0        2.867859   -0.512351   -0.046044
     10          6           0        3.473047   -1.774307   -0.144440
     11          6           0        2.683157   -2.919497   -0.193006
     12          6           0        1.294321   -2.828844   -0.143549
     13          1           0        0.690982   -3.728601   -0.193590
     14          1           0        3.158765   -3.891108   -0.274520
     15          1           0        4.554948   -1.854719   -0.184160
     16          6           0        1.472161   -0.416695    0.007524
     17          1           0        1.008815    0.551500    0.091035
     18          6           0        0.679224   -1.572090   -0.039790
     19          6           0       -0.788883   -1.444203    0.022772
     20          7           0       -1.364400   -0.183175   -0.030555
     21          6           0       -1.670922   -2.484330    0.141348
     22          1           0       -1.453778   -3.537891    0.217155
     23         16           0       -3.304356   -1.897347    0.186622
     24          6           0       -2.681264   -0.229715    0.039855
     25          7           0       -3.603601    0.757745    0.015544
     26          6           0       -3.238671    2.032526   -0.109500
     27          7           0       -1.971378    2.480701   -0.172969
     28          1           0       -1.777416    3.451709   -0.385856
     29          1           0       -1.229979    1.788203   -0.228684
     30          7           0       -4.237925    2.952360   -0.206868
     31          1           0       -4.023329    3.921081    0.002973
     32          1           0       -5.154878    2.637088    0.085622
 ---------------------------------------------------------------------

 SCF Done:  E(RB3LYP) =  -1212.34579339     A.U. after   12 cycles

 The electronic state is 1-A.
 Alpha  occ. eigenvalues --  -88.90231 -19.12163 -14.37597 -14.35156 -14.34965
 Alpha  occ. eigenvalues --  -14.32454 -14.31192 -10.30772 -10.29858 -10.27757
 Alpha  occ. eigenvalues --  -10.23843 -10.22426 -10.20715 -10.20364 -10.19376
 Alpha  occ. eigenvalues --  -10.19210 -10.18806 -10.18753 -10.18320  -7.96417
 Alpha  occ. eigenvalues --   -5.92806  -5.92473  -5.92097  -1.03845  -0.99817
 Alpha  occ. eigenvalues --   -0.95528  -0.94166  -0.87942  -0.87674  -0.85126
 Alpha  occ. eigenvalues --   -0.78919  -0.77547  -0.75784  -0.72387  -0.70931
 Alpha  occ. eigenvalues --   -0.64443  -0.63059  -0.61670  -0.58539  -0.58075
 Alpha  occ. eigenvalues --   -0.56295  -0.54434  -0.52690  -0.51019  -0.49396
 Alpha  occ. eigenvalues --   -0.48410  -0.47764  -0.47085  -0.45184  -0.45014
 Alpha  occ. eigenvalues --   -0.43769  -0.43437  -0.42172  -0.41108  -0.40635
 Alpha  occ. eigenvalues --   -0.40330  -0.39813  -0.39152  -0.37624  -0.35894
 Alpha  occ. eigenvalues --   -0.35628  -0.34731  -0.31764  -0.29474  -0.28360
 Alpha  occ. eigenvalues --   -0.28265  -0.27497  -0.26988  -0.25658  -0.24625
 Alpha  occ. eigenvalues --   -0.22608  -0.19421
 Alpha virt. eigenvalues --   -0.03446  -0.01302  -0.00941   0.02374   0.03804
 Alpha virt. eigenvalues --    0.07322   0.08707   0.09229   0.09840   0.10261
 Alpha virt. eigenvalues --    0.11753   0.13031   0.13633   0.14171   0.14369

 Mulliken charges:
               1
     1  C   -0.542616
     2  H    0.192229
     3  H    0.191502
     4  H    0.174955
     5  C    0.604143
     6  O   -0.559454
     7  N   -0.713335
     8  H    0.387730
     9  C    0.343731
    10  C   -0.206312
    11  C   -0.159796
    12  C   -0.205256
    13  H    0.148353
    14  H    0.153340
    15  H    0.156948
    16  C   -0.249689
    17  H    0.188954
    18  C    0.098630
    19  C    0.277404
    20  N   -0.583142
    21  C   -0.431433
    22  H    0.198212
    23  S    0.180995
    24  C    0.304137
    25  N   -0.617303
    26  C    0.662727
    27  N   -0.786325
    28  H    0.390965
    29  H    0.403085
    30  N   -0.772295
    31  H    0.386689
    32  H    0.382230
 Sum of Mulliken charges =   0.00000

 Dipole moment (field-independent basis, Debye):
    X=              4.8873    Y=              4.3837    Z=             -0.2443  Tot=              6.5698
 Quadrupole moment (field-independent basis, Debye-Ang):
   XX=            -77.5203   YY=            -84.4397   ZZ=           -121.6768
   XY=            -18.9373   XZ=             -3.4996   YZ=             -0.0702

 Normal termination of Gaussian 09 at Thu Jan 28 04:47:39 2021.
