 Gaussian 09, Revision D.01,

 -----------------
 #p b3lyp/6-31G(d)
 -----------------

 ----------------------------------------------
 SET_328_BBB272_conf1.geo_015_090_180.n.pdb.xyz
 ----------------------------------------------
 Symbolic Z-matrix:
 Charge =  0 Multiplicity = 1

 SCF Done:  E(RB3LYP) =  -648.682653650     A.U. after   15 cycles

 1\1\GINC-PIRINEUS47\SP\RB3LYP\6-31G(d)\C9H8O4\UBAFAR01\29-Mar-2021\0\\
 #p b3lyp/6-31G(d)\\SET_328_BBB272_conf1.geo_015_090_180.n.pdb.xyz\\0,1
 \C,0,2.326,0.223,-2.651\H,0,1.794,-0.234,-3.489\H,0,2.957,-0.547,-2.19
 8\H,0,2.949,1.044,-3.003\C,0,1.354,0.724,-1.624\O,0,1.336,1.822,-1.118
 \O,0,0.448,-0.256,-1.315\C,0,-0.462,-0.009,-0.292\C,0,-0.169,-0.418,1.
 019\C,0,1.165,-0.99,1.364\O,0,1.208,-1.874,2.379\H,0,0.316,-2.163,2.65
 \O,0,2.203,-0.685,0.806\C,0,-1.149,-0.234,2.006\H,0,-0.936,-0.516,3.03
 1\C,0,-2.378,0.342,1.696\H,0,-3.116,0.487,2.475\C,0,-2.651,0.73,0.384\

 Normal termination of Gaussian 09 at Mon Mar 29 22:43:08 2021.
 Gaussian 09:  AM64L-G09RevD.01 24-Apr-2013

 ----------------------------------------------------------------------
 #p b3lyp/6-31G(d) scrf=(iefpcm,read,solvent=Water) geom=allcheck guess
 =read
 ----------------------------------------------------------------------

 Structure from the checkpoint file:  "SET_328_BBB272_conf1.geo_015_090_180.n.pdb.xyz.mst.n.w.chk"
 ----------------------------------------------
 SET_328_BBB272_conf1.geo_015_090_180.n.pdb.xyz
 ----------------------------------------------
 Charge =  0 Multiplicity = 1

                         Standard orientation:
 ---------------------------------------------------------------------
 Center     Atomic      Atomic             Coordinates (Angstroms)
 Number     Number       Type             X           Y           Z
 ---------------------------------------------------------------------
      1          6           0       -3.475501   -0.284735   -0.396826
      2          1           0       -3.633826   -0.859230   -1.312798
      3          1           0       -3.502937    0.776315   -0.660816
      4          1           0       -4.262313   -0.501227    0.324377
      5          6           0       -2.136005   -0.605330    0.197717
      6          8           0       -1.905846   -0.905112    1.346247
      7          8           0       -1.161116   -0.514192   -0.760408
      8          6           0        0.164000   -0.665023   -0.364232
      9          6           0        0.930657    0.466076   -0.040653
     10          6           0        0.309883    1.821256    0.021721
     11          8           0        1.103478    2.871676   -0.261747
     12          1           0        1.955151    2.592507   -0.648197
     13          8           0       -0.847658    2.027491    0.336996
     14          6           0        2.287452    0.282415    0.265615
     15          1           0        2.893389    1.136724    0.545821
     16          6           0        2.858721   -0.987156    0.253105
     17          1           0        3.904754   -1.108944    0.505083
     18          6           0        2.079982   -2.094926   -0.082794
     19          1           0        2.520167   -3.086090   -0.101330
     20          6           0        0.731203   -1.933880   -0.398189
     21          1           0        0.112397   -2.781146   -0.673623
 ---------------------------------------------------------------------

 SCF Done:  E(RB3LYP) =  -648.702669479     A.U. after   12 cycles

 The electronic state is 1-A.
 Alpha  occ. eigenvalues --  -19.20665 -19.19935 -19.14908 -19.14380 -10.33342
 Alpha  occ. eigenvalues --  -10.33220 -10.27091 -10.22252 -10.21454 -10.21009
 Alpha  occ. eigenvalues --  -10.20687 -10.20446 -10.19399  -1.11900  -1.10632
 Alpha  occ. eigenvalues --   -1.03264  -1.02144  -0.87566  -0.78392  -0.77818
 Alpha  occ. eigenvalues --   -0.74133  -0.66242  -0.64269  -0.61999  -0.59023
 Alpha  occ. eigenvalues --   -0.54815  -0.50218  -0.49728  -0.49411  -0.47711
 Alpha  occ. eigenvalues --   -0.46749  -0.45516  -0.45194  -0.43953  -0.41421
 Alpha  occ. eigenvalues --   -0.40869  -0.39775  -0.38781  -0.37868  -0.37324
 Alpha  occ. eigenvalues --   -0.36692  -0.32799  -0.31688  -0.28804  -0.28669
 Alpha  occ. eigenvalues --   -0.27114  -0.26183
 Alpha virt. eigenvalues --   -0.05250  -0.01850   0.00233   0.03824   0.08243
 Alpha virt. eigenvalues --    0.10221   0.11974   0.14045   0.14971   0.15280
 Alpha virt. eigenvalues --    0.17025   0.17803   0.18283   0.20258   0.22532

 Mulliken charges:
               1
     1  C   -0.532388
     2  H    0.197532
     3  H    0.205235
     4  H    0.187803
     5  C    0.628840
     6  O   -0.503333
     7  O   -0.524416
     8  C    0.314987
     9  C    0.043404
    10  C    0.564262
    11  O   -0.591485
    12  H    0.471087
    13  O   -0.504459
    14  C   -0.209226
    15  H    0.176253
    16  C   -0.133300
    17  H    0.168085
    18  C   -0.141350
    19  H    0.172473
    20  C   -0.162352
    21  H    0.172347
 Sum of Mulliken charges =   0.00000

 Dipole moment (field-independent basis, Debye):
    X=              4.9865    Y=             -2.4257    Z=             -3.5063  Tot=              6.5607
 Quadrupole moment (field-independent basis, Debye-Ang):
   XX=            -53.1742   YY=            -73.6331   ZZ=            -78.0063
   XY=              4.6641   XZ=              5.3536   YZ=              0.4050

 1\1\GINC-PIRINEUS47\SP\RB3LYP\6-31G(d)\C9H8O4\UBAFAR01\29-Mar-2021\0\\
 #p b3lyp/6-31G(d) scrf=(iefpcm,read,solvent=Water) geom=allcheck guess
 =read\\SET_328_BBB272_conf1.geo_015_090_180.n.pdb.xyz\\0,1\C,0,2.326,0
 .223,-2.651\H,0,1.794,-0.234,-3.489\H,0,2.957,-0.547,-2.198\H,0,2.949,
 1.044,-3.003\C,0,1.354,0.724,-1.624\O,0,1.336,1.822,-1.118\O,0,0.448,-
 0.256,-1.315\C,0,-0.462,-0.009,-0.292\C,0,-0.169,-0.418,1.019\C,0,1.16
 5,-0.99,1.364\O,0,1.208,-1.874,2.379\H,0,0.316,-2.163,2.65\O,0,2.203,-
 0.685,0.806\C,0,-1.149,-0.234,2.006\H,0,-0.936,-0.516,3.031\C,0,-2.378

 Normal termination of Gaussian 09 at Mon Mar 29 22:44:14 2021.
