 Gaussian 09, Revision D.01,

 -----------------
 #p b3lyp/6-31G(d)
 -----------------

 ----------------------------------------------
 SET_328_BBB301_conf1.geo_090_285_255.n.pdb.xyz
 ----------------------------------------------
 Symbolic Z-matrix:
 Charge =  0 Multiplicity = 1

 SCF Done:  E(RB3LYP) =  -788.426785808     A.U. after   14 cycles
 Normal termination of Gaussian 09 at Mon Jan 25 16:27:29 2021.
 Gaussian 09:  AM64L-G09RevD.01 24-Apr-2013

 ----------------------------------------------------------------------
 #p b3lyp/6-31G(d) scrf=(iefpcm,read,solvent=Water) geom=allcheck guess
 =read
 ----------------------------------------------------------------------

 Structure from the checkpoint file:  "SET_328_BBB301_conf1.geo_090_285_255.n.pdb.xyz.mst.n.w.chk"
 ----------------------------------------------
 SET_328_BBB301_conf1.geo_090_285_255.n.pdb.xyz
 ----------------------------------------------
 Charge =  0 Multiplicity = 1

                         Standard orientation:
 ---------------------------------------------------------------------
 Center     Atomic      Atomic             Coordinates (Angstroms)
 Number     Number       Type             X           Y           Z
 ---------------------------------------------------------------------
      1          6           0        3.309663    2.258105   -0.305526
      2          1           0        3.129430    2.559629    0.731255
      3          1           0        2.488713    2.644467   -0.920302
      4          1           0        4.233888    2.731737   -0.646003
      5          6           0        3.408021    0.730375   -0.417184
      6          6           0        3.653727    0.332637   -1.885125
      7          1           0        2.846989    0.703341   -2.526768
      8          1           0        3.698007   -0.754878   -1.996141
      9          1           0        4.597744    0.746975   -2.254420
     10          6           0        4.562428    0.230589    0.467073
     11          1           0        4.695489   -0.854365    0.397880
     12          1           0        4.380204    0.485984    1.516547
     13          1           0        5.502677    0.696895    0.157395
     14          7           0        2.121823    0.191249    0.096080
     15          1           0        1.363657    0.672061   -0.390608
     16          6           0        1.898522   -1.251571   -0.017510
     17          1           0        2.792436   -1.768703    0.337601
     18          1           0        1.696985   -1.597956   -1.039746
     19          6           0        0.729173   -1.632646    0.918681
     20          8           0        0.988194   -1.080131    2.201841
     21          1           0        1.460849   -0.241604    1.995641
     22          1           0        0.727448   -2.723752    1.030595
     23          6           0       -0.626023   -1.201220    0.366315
     24          6           0       -1.347847   -0.154399    0.948917
     25          1           0       -0.935768    0.334421    1.826396
     26          6           0       -2.582760    0.263891    0.450005
     27          6           0       -3.363825    1.393431    1.087426
     28          8           0       -3.651433    2.460241    0.179607
     29          1           0       -4.202117    2.068726   -0.522767
     30          1           0       -2.776064    1.829016    1.898888
     31          1           0       -4.296224    1.004161    1.525377
     32          6           0       -3.107471   -0.392698   -0.674866
     33          8           0       -4.324564    0.048411   -1.129340
     34          1           0       -4.578922   -0.441333   -1.930294
     35          6           0       -2.407868   -1.443676   -1.274169
     36          1           0       -2.823386   -1.949592   -2.138925
     37          6           0       -1.176637   -1.840785   -0.750542
     38          1           0       -0.647000   -2.664331   -1.221987
 ---------------------------------------------------------------------

 SCF Done:  E(RB3LYP) =  -788.447631779     A.U. after   11 cycles

 The electronic state is 1-A.
 Alpha  occ. eigenvalues --  -19.18166 -19.13612 -19.13351 -14.32127 -10.24956
 Alpha  occ. eigenvalues --  -10.23434 -10.23040 -10.22105 -10.20491 -10.19124
 Alpha  occ. eigenvalues --  -10.19034 -10.18997 -10.18697 -10.18644 -10.16982
 Alpha  occ. eigenvalues --  -10.16935 -10.16837  -1.05994  -1.01268  -1.00631
 Alpha  occ. eigenvalues --   -0.90509  -0.85329  -0.78627  -0.76639  -0.74961
 Alpha  occ. eigenvalues --   -0.70183  -0.68319  -0.68277  -0.67041  -0.63032
 Alpha  occ. eigenvalues --   -0.61018  -0.57287  -0.54831  -0.54130  -0.50094
 Alpha  occ. eigenvalues --   -0.49804  -0.48094  -0.47246  -0.46620  -0.45960
 Alpha  occ. eigenvalues --   -0.44121  -0.43305  -0.42979  -0.42586  -0.41969
 Alpha  occ. eigenvalues --   -0.41282  -0.40484  -0.39935  -0.38532  -0.37832
 Alpha  occ. eigenvalues --   -0.37313  -0.36287  -0.36117  -0.35478  -0.34798
 Alpha  occ. eigenvalues --   -0.33778  -0.33230  -0.32405  -0.32255  -0.31299
 Alpha  occ. eigenvalues --   -0.27078  -0.26246  -0.25033  -0.23111  -0.21830
 Alpha virt. eigenvalues --   -0.00673   0.00893   0.07615   0.08493   0.10703
 Alpha virt. eigenvalues --    0.11283   0.11993   0.12369   0.12799   0.13802
 Alpha virt. eigenvalues --    0.14021   0.14202   0.15574   0.15832   0.16154

 Mulliken charges:
               1
     1  C   -0.458924
     2  H    0.149029
     3  H    0.145473
     4  H    0.150235
     5  C    0.217747
     6  C   -0.456163
     7  H    0.143628
     8  H    0.150836
     9  H    0.146915
    10  C   -0.451193
    11  H    0.149690
    12  H    0.148278
    13  H    0.148610
    14  N   -0.609017
    15  H    0.326811
    16  C   -0.151764
    17  H    0.158539
    18  H    0.142403
    19  C    0.062373
    20  O   -0.684072
    21  H    0.416130
    22  H    0.146475
    23  C    0.132006
    24  C   -0.276081
    25  H    0.138739
    26  C    0.113315
    27  C   -0.116445
    28  O   -0.674584
    29  H    0.431288
    30  H    0.157175
    31  H    0.143549
    32  C    0.290819
    33  O   -0.686107
    34  H    0.464635
    35  C   -0.202193
    36  H    0.155316
    37  C   -0.210463
    38  H    0.146992
 Sum of Mulliken charges =   0.00000

 Dipole moment (field-independent basis, Debye):
    X=              0.5507    Y=             -2.2814    Z=             -5.3415  Tot=              5.8343
 Quadrupole moment (field-independent basis, Debye-Ang):
   XX=            -88.8970   YY=           -107.9974   ZZ=           -101.5099
   XY=             11.3356   XZ=              8.4511   YZ=              7.1236

 Normal termination of Gaussian 09 at Mon Jan 25 16:30:50 2021.
