 Gaussian 09, Revision D.01,

 -----------------
 #p b3lyp/6-31G(d)
 -----------------

 ----------------------------------------------
 SET_328_BBB321_conf1.geo_180_015_060.n.pdb.xyz
 ----------------------------------------------
 Symbolic Z-matrix:
 Charge =  0 Multiplicity = 1

 SCF Done:  E(RB3LYP) =  -1212.31335408     A.U. after   15 cycles
 Normal termination of Gaussian 09 at Sat Feb  6 18:53:39 2021.
 Gaussian 09:  AM64L-G09RevD.01 24-Apr-2013

 ----------------------------------------------------------------------
 #p b3lyp/6-31G(d) scrf=(iefpcm,read,solvent=Water) geom=allcheck guess
 =read
 ----------------------------------------------------------------------

 Structure from the checkpoint file:  "SET_328_BBB321_conf1.geo_180_015_060.n.pdb.xyz.mst.n.w.chk"
 ----------------------------------------------
 SET_328_BBB321_conf1.geo_180_015_060.n.pdb.xyz
 ----------------------------------------------
 Charge =  0 Multiplicity = 1

                         Standard orientation:
 ---------------------------------------------------------------------
 Center     Atomic      Atomic             Coordinates (Angstroms)
 Number     Number       Type             X           Y           Z
 ---------------------------------------------------------------------
      1          6           0        4.575945    2.880198   -0.084700
      2          1           0        4.411880    3.655489   -0.836965
      3          1           0        5.531251    2.388402   -0.277183
      4          1           0        4.627081    3.371283    0.890510
      5          6           0        3.389989    1.933686   -0.096027
      6          8           0        2.233328    2.357084   -0.150150
      7          7           0        3.715633    0.606814   -0.022375
      8          1           0        4.707208    0.392133    0.024440
      9          6           0        2.864564   -0.516263    0.022822
     10          6           0        3.471301   -1.779746    0.113168
     11          6           0        2.679556   -2.924584    0.160650
     12          6           0        1.291128   -2.832918    0.121913
     13          1           0        0.690785   -3.734074    0.171300
     14          1           0        3.153641   -3.898115    0.234377
     15          1           0        4.553662   -1.860399    0.145967
     16          6           0        1.467535   -0.421248   -0.019350
     17          1           0        1.003157    0.547718   -0.094469
     18          6           0        0.674945   -1.575727    0.028710
     19          6           0       -0.793447   -1.447235   -0.019590
     20          7           0       -1.365565   -0.183932    0.020680
     21          6           0       -1.680514   -2.485896   -0.108523
     22          1           0       -1.471017   -3.543654   -0.169042
     23         16           0       -3.313157   -1.894252   -0.142068
     24          6           0       -2.683280   -0.226658   -0.031815
     25          7           0       -3.601939    0.764106   -0.013001
     26          6           0       -3.231432    2.038378    0.084751
     27          7           0       -4.225579    2.964896    0.179327
     28          1           0       -5.148666    2.648095   -0.091018
     29          1           0       -4.009990    3.929158   -0.045943
     30          7           0       -1.962452    2.484561    0.120982
     31          1           0       -1.221430    1.790193    0.177417
     32          1           0       -1.762098    3.458101    0.313548
 ---------------------------------------------------------------------

 SCF Done:  E(RB3LYP) =  -1212.34584709     A.U. after   12 cycles

 The electronic state is 1-A.
 Alpha  occ. eigenvalues --  -88.90233 -19.12205 -14.37589 -14.35146 -14.34943
 Alpha  occ. eigenvalues --  -14.32456 -14.31195 -10.30762 -10.29857 -10.27764
 Alpha  occ. eigenvalues --  -10.23879 -10.22444 -10.20747 -10.20372 -10.19379
 Alpha  occ. eigenvalues --  -10.19232 -10.18792 -10.18749 -10.18346  -7.96419
 Alpha  occ. eigenvalues --   -5.92808  -5.92475  -5.92099  -1.03882  -0.99824
 Alpha  occ. eigenvalues --   -0.95526  -0.94132  -0.87916  -0.87696  -0.85122
 Alpha  occ. eigenvalues --   -0.78910  -0.77550  -0.75785  -0.72379  -0.70938
 Alpha  occ. eigenvalues --   -0.64440  -0.63063  -0.61653  -0.58534  -0.58071
 Alpha  occ. eigenvalues --   -0.56239  -0.54418  -0.52668  -0.51026  -0.49407
 Alpha  occ. eigenvalues --   -0.48402  -0.47758  -0.47070  -0.45199  -0.45022
 Alpha  occ. eigenvalues --   -0.43765  -0.43442  -0.42167  -0.41095  -0.40637
 Alpha  occ. eigenvalues --   -0.40329  -0.39803  -0.39147  -0.37630  -0.35935
 Alpha  occ. eigenvalues --   -0.35617  -0.34749  -0.31798  -0.29481  -0.28363
 Alpha  occ. eigenvalues --   -0.28270  -0.27496  -0.26961  -0.25678  -0.24629
 Alpha  occ. eigenvalues --   -0.22588  -0.19432
 Alpha virt. eigenvalues --   -0.03460  -0.01293  -0.00932   0.02362   0.03798
 Alpha virt. eigenvalues --    0.07332   0.08671   0.09233   0.09868   0.10237
 Alpha virt. eigenvalues --    0.11746   0.13015   0.13612   0.14187   0.14416

 Mulliken charges:
               1
     1  C   -0.542475
     2  H    0.187167
     3  H    0.175965
     4  H    0.195888
     5  C    0.601328
     6  O   -0.558062
     7  N   -0.712759
     8  H    0.387966
     9  C    0.344145
    10  C   -0.206576
    11  C   -0.159715
    12  C   -0.205255
    13  H    0.148324
    14  H    0.153275
    15  H    0.157118
    16  C   -0.249509
    17  H    0.188437
    18  C    0.098737
    19  C    0.278534
    20  N   -0.583786
    21  C   -0.432471
    22  H    0.198550
    23  S    0.181216
    24  C    0.304301
    25  N   -0.616969
    26  C    0.663355
    27  N   -0.772823
    28  H    0.382224
    29  H    0.386770
    30  N   -0.787473
    31  H    0.403631
    32  H    0.390941
 Sum of Mulliken charges =   0.00000

 Dipole moment (field-independent basis, Debye):
    X=              4.9103    Y=              4.3308    Z=              0.0994  Tot=              6.5480
 Quadrupole moment (field-independent basis, Debye-Ang):
   XX=            -77.4229   YY=            -84.5581   ZZ=           -121.7266
   XY=            -18.8803   XZ=              3.6997   YZ=             -0.3503

 Normal termination of Gaussian 09 at Sat Feb  6 18:57:02 2021.
