 Gaussian 09, Revision D.01,

 -----------------
 #p b3lyp/6-31G(d)
 -----------------

 ---------------------------------------------
 SET_328_BBB20_conf1.geo_120_180_060.n.pdb.xyz
 ---------------------------------------------
 Symbolic Z-matrix:
 Charge =  0 Multiplicity = 1

 SCF Done:  E(RB3LYP) =  -769.345007102     A.U. after   15 cycles
 Normal termination of Gaussian 09 at Sun Jan 24 22:12:46 2021.
 Gaussian 09:  AM64L-G09RevD.01 24-Apr-2013

 ----------------------------------------------------------------------
 #p b3lyp/6-31G(d) scrf=(iefpcm,read,solvent=Water) geom=allcheck guess
 =read
 ----------------------------------------------------------------------

 Structure from the checkpoint file:  "SET_328_BBB20_conf1.geo_120_180_060.n.pdb.xyz.mst.n.w.chk"
 ---------------------------------------------
 SET_328_BBB20_conf1.geo_120_180_060.n.pdb.xyz
 ---------------------------------------------
 Charge =  0 Multiplicity = 1

                         Standard orientation:
 ---------------------------------------------------------------------
 Center     Atomic      Atomic             Coordinates (Angstroms)
 Number     Number       Type             X           Y           Z
 ---------------------------------------------------------------------
      1          7           0       -3.204945   -3.552202    0.639187
      2          1           0       -2.749690   -3.678426    1.544434
      3          1           0       -2.505966   -3.804787   -0.054249
      4          6           0       -3.573108   -2.139877    0.481039
      5          1           0       -4.392328   -1.928309    1.178037
      6          1           0       -3.988103   -2.015616   -0.526341
      7          6           0       -2.465349   -1.099188    0.709442
      8          1           0       -2.059050   -1.210852    1.722454
      9          1           0       -2.906208   -0.097740    0.650089
     10          6           0       -1.316268   -1.225615   -0.296711
     11          1           0       -1.706198   -1.169884   -1.324303
     12          1           0       -0.865978   -2.213358   -0.195739
     13          7           0       -0.231515   -0.264831   -0.054202
     14          6           0        1.089248   -0.757889   -0.269059
     15          6           0        1.370063   -1.633546   -1.327049
     16          1           0        0.582078   -1.905295   -2.021590
     17          6           0        2.653512   -2.150379   -1.496981
     18          1           0        2.855752   -2.824708   -2.323282
     19          6           0        3.675133   -1.791159   -0.617249
     20          1           0        4.676005   -2.188208   -0.744762
     21          6           0        3.393985   -0.921191    0.438389
     22          1           0        4.174602   -0.645047    1.141201
     23          6           0        2.108393   -0.408694    0.632291
     24          6           0        1.786196    0.521430    1.765936
     25          1           0        2.628369    0.553891    2.461786
     26          1           0        0.916947    0.148128    2.317348
     27          6           0        1.505707    1.942253    1.269575
     28          1           0        2.398537    2.298483    0.740379
     29          1           0        1.393240    2.604462    2.135002
     30          6           0        0.293251    2.142480    0.374668
     31          6           0       -0.063076    3.479981    0.143258
     32          1           0        0.547902    4.248702    0.608684
     33          6           0       -1.161690    3.851951   -0.626167
     34          1           0       -1.404193    4.900242   -0.768649
     35          6           0       -1.943750    2.849367   -1.195636
     36          1           0       -2.808737    3.096567   -1.800583
     37          6           0       -1.608876    1.514081   -0.995029
     38          1           0       -2.219803    0.751716   -1.459675
     39          6           0       -0.495364    1.125874   -0.219908
 ---------------------------------------------------------------------

 SCF Done:  E(RB3LYP) =  -769.355601263     A.U. after   10 cycles

 The electronic state is 1-A.
 Alpha  occ. eigenvalues --  -14.35029 -14.30594 -10.22948 -10.22252 -10.21257
 Alpha  occ. eigenvalues --  -10.20221 -10.19471 -10.19093 -10.18870 -10.18745
 Alpha  occ. eigenvalues --  -10.18733 -10.18712 -10.18611 -10.18610 -10.18421
 Alpha  occ. eigenvalues --  -10.18350 -10.18316 -10.18177 -10.17605  -0.94953
 Alpha  occ. eigenvalues --   -0.87308  -0.85455  -0.84389  -0.79793  -0.76144
 Alpha  occ. eigenvalues --   -0.75452  -0.75076  -0.72305  -0.69974  -0.66289
 Alpha  occ. eigenvalues --   -0.64517  -0.60722  -0.60080  -0.58532  -0.57509
 Alpha  occ. eigenvalues --   -0.56286  -0.51513  -0.50969  -0.48567  -0.47742
 Alpha  occ. eigenvalues --   -0.46888  -0.46643  -0.45823  -0.45213  -0.43591
 Alpha  occ. eigenvalues --   -0.43137  -0.42589  -0.41426  -0.40378  -0.40100
 Alpha  occ. eigenvalues --   -0.38727  -0.38565  -0.37999  -0.37726  -0.36427
 Alpha  occ. eigenvalues --   -0.35673  -0.34429  -0.34022  -0.33784  -0.33293
 Alpha  occ. eigenvalues --   -0.33210  -0.32623  -0.28952  -0.24884  -0.24430
 Alpha  occ. eigenvalues --   -0.23814  -0.23338  -0.19557
 Alpha virt. eigenvalues --   -0.00727   0.00071   0.00293   0.00909   0.08263
 Alpha virt. eigenvalues --    0.09947   0.10571   0.10935   0.11957   0.12622
 Alpha virt. eigenvalues --    0.13364   0.13605   0.14425   0.15816   0.16299

 Mulliken charges:
               1
     1  N   -0.770278
     2  H    0.324979
     3  H    0.329288
     4  C   -0.150351
     5  H    0.143908
     6  H    0.143040
     7  C   -0.273027
     8  H    0.142301
     9  H    0.144731
    10  C   -0.151355
    11  H    0.149005
    12  H    0.157823
    13  N   -0.574282
    14  C    0.205941
    15  C   -0.174286
    16  H    0.152336
    17  C   -0.168556
    18  H    0.147401
    19  C   -0.145479
    20  H    0.144886
    21  C   -0.232294
    22  H    0.143216
    23  C    0.150841
    24  C   -0.348671
    25  H    0.150400
    26  H    0.159257
    27  C   -0.342807
    28  H    0.160645
    29  H    0.159973
    30  C    0.143803
    31  C   -0.220383
    32  H    0.139175
    33  C   -0.151255
    34  H    0.141603
    35  C   -0.170825
    36  H    0.145206
    37  C   -0.189276
    38  H    0.147811
    39  C    0.235555
 Sum of Mulliken charges =   0.00000

 Dipole moment (field-independent basis, Debye):
    X=              1.2417    Y=             -0.0522    Z=              0.4342  Tot=              1.3165
 Quadrupole moment (field-independent basis, Debye-Ang):
   XX=           -114.8943   YY=           -113.7598   ZZ=           -108.2935
   XY=             -7.4815   XZ=              5.2004   YZ=              4.1137

 Normal termination of Gaussian 09 at Sun Jan 24 22:16:58 2021.
