 Gaussian 09, Revision D.01,

 -----------------
 #p b3lyp/6-31G(d)
 -----------------

 ---------------------------------------------
 SET_328_BBB30_conf1.geo_105_180_285.n.pdb.xyz
 ---------------------------------------------
 Symbolic Z-matrix:
 Charge =  0 Multiplicity = 1

 SCF Done:  E(RB3LYP) =  -444.843406164     A.U. after   14 cycles
 Normal termination of Gaussian 09 at Mon Mar 29 22:52:07 2021.
 Gaussian 09:  AM64L-G09RevD.01 24-Apr-2013

 ----------------------------------------------------------------------
 #p b3lyp/6-31G(d) scrf=(iefpcm,read,solvent=Water) geom=allcheck guess
 =read
 ----------------------------------------------------------------------

 Structure from the checkpoint file:  "SET_328_BBB30_conf1.geo_105_180_285.n.pdb.xyz.mst.n.w.chk"
 ---------------------------------------------
 SET_328_BBB30_conf1.geo_105_180_285.n.pdb.xyz
 ---------------------------------------------
 Charge =  0 Multiplicity = 1

                         Standard orientation:
 ---------------------------------------------------------------------
 Center     Atomic      Atomic             Coordinates (Angstroms)
 Number     Number       Type             X           Y           Z
 ---------------------------------------------------------------------
      1          6           0        3.525731   -1.209035   -0.266122
      2          1           0        2.991581   -1.670691   -1.112773
      3          1           0        3.378932   -1.856307    0.606039
      4          1           0        4.594578   -1.208669   -0.507531
      5          7           0        3.108378    0.150195    0.065772
      6          1           0        3.323846    0.767504   -0.717632
      7          6           0        1.686201    0.294660    0.399608
      8          6           0        1.455197    1.684296    0.996988
      9          1           0        1.703112    2.461839    0.264002
     10          1           0        2.090135    1.833107    1.875300
     11          1           0        0.411808    1.822399    1.291540
     12          1           0        1.471538   -0.458239    1.170698
     13          6           0        0.739492    0.021454   -0.801195
     14          1           0        1.054703   -0.913348   -1.277753
     15          1           0        0.881572    0.820476   -1.540140
     16          6           0       -0.723165   -0.080675   -0.435836
     17          6           0       -1.619564    0.957245   -0.725265
     18          1           0       -1.255358    1.843425   -1.238623
     19          6           0       -2.967055    0.867157   -0.372013
     20          1           0       -3.641912    1.683299   -0.610666
     21          6           0       -3.445422   -0.268358    0.283503
     22          1           0       -4.492723   -0.342514    0.557772
     23          6           0       -2.564710   -1.312746    0.577185
     24          1           0       -2.926791   -2.204243    1.079950
     25          6           0       -1.219607   -1.218824    0.219075
     26          1           0       -0.546253   -2.040447    0.443847
 ---------------------------------------------------------------------

 SCF Done:  E(RB3LYP) =  -444.849942965     A.U. after   10 cycles

 The electronic state is 1-A.
 Alpha  occ. eigenvalues --  -14.31204 -10.21023 -10.19575 -10.19494 -10.18894
 Alpha  occ. eigenvalues --  -10.18858 -10.18710 -10.18615 -10.18600 -10.17943
 Alpha  occ. eigenvalues --  -10.16804  -0.89736  -0.85313  -0.77977  -0.74190
 Alpha  occ. eigenvalues --   -0.73675  -0.67759  -0.65260  -0.60416  -0.59161
 Alpha  occ. eigenvalues --   -0.56881  -0.50933  -0.47105  -0.46266  -0.45611
 Alpha  occ. eigenvalues --   -0.44632  -0.42576  -0.42169  -0.41526  -0.39763
 Alpha  occ. eigenvalues --   -0.37898  -0.37352  -0.36597  -0.35132  -0.34210
 Alpha  occ. eigenvalues --   -0.33903  -0.33206  -0.32496  -0.25080  -0.24853
 Alpha  occ. eigenvalues --   -0.21351
 Alpha virt. eigenvalues --   -0.00245   0.00022   0.09193   0.10187   0.11170
 Alpha virt. eigenvalues --    0.12741   0.13773   0.15169   0.15569   0.15990
 Alpha virt. eigenvalues --    0.16886   0.17348   0.17751   0.18543   0.18613

 Mulliken charges:
               1
     1  C   -0.311952
     2  H    0.133392
     3  H    0.152134
     4  H    0.153196
     5  N   -0.577917
     6  H    0.324537
     7  C    0.043494
     8  C   -0.453933
     9  H    0.142966
    10  H    0.146705
    11  H    0.150770
    12  H    0.133322
    13  C   -0.366170
    14  H    0.154904
    15  H    0.143338
    16  C    0.168885
    17  C   -0.203079
    18  H    0.140739
    19  C   -0.150049
    20  H    0.146809
    21  C   -0.154741
    22  H    0.146212
    23  C   -0.150597
    24  H    0.146956
    25  C   -0.201416
    26  H    0.141495
 Sum of Mulliken charges =   0.00000

 Dipole moment (field-independent basis, Debye):
    X=             -0.0295    Y=             -0.2082    Z=             -1.2402  Tot=              1.2579
 Quadrupole moment (field-independent basis, Debye-Ang):
   XX=            -66.2291   YY=            -63.6463   ZZ=            -68.8039
   XY=             -1.7520   XZ=             -6.2116   YZ=             -3.9519

 Normal termination of Gaussian 09 at Mon Mar 29 22:53:09 2021.
