 Gaussian 09, Revision D.01,

 -----------------
 #p b3lyp/6-31G(d)
 -----------------

 ----------------------------------------------
 SET_328_BBB256_conf1.geo_180_180_090.n.pdb.xyz
 ----------------------------------------------
 Symbolic Z-matrix:
 Charge =  0 Multiplicity = 1

 SCF Done:  E(RB3LYP) =  -421.568111286     A.U. after   14 cycles
 Normal termination of Gaussian 09 at Mon Mar 29 22:42:33 2021.
 Gaussian 09:  AM64L-G09RevD.01 24-Apr-2013

 ----------------------------------------------------------------------
 #p b3lyp/6-31G(d) scrf=(iefpcm,read,solvent=Water) geom=allcheck guess
 =read
 ----------------------------------------------------------------------

 Structure from the checkpoint file:  "SET_328_BBB256_conf1.geo_180_180_090.n.pdb.xyz.mst.n.w.chk"
 ----------------------------------------------
 SET_328_BBB256_conf1.geo_180_180_090.n.pdb.xyz
 ----------------------------------------------
 Charge =  0 Multiplicity = 1

                         Standard orientation:
 ---------------------------------------------------------------------
 Center     Atomic      Atomic             Coordinates (Angstroms)
 Number     Number       Type             X           Y           Z
 ---------------------------------------------------------------------
      1          6           0       -4.113047    0.326356   -0.656354
      2          1           0       -4.007870   -0.141091   -1.650997
      3          1           0       -4.027367    1.409392   -0.792140
      4          1           0       -5.118027    0.111606   -0.282763
      5          7           0       -3.121581   -0.122456    0.316469
      6          1           0       -3.274119   -1.116620    0.492985
      7          6           0       -1.759025    0.050797   -0.174216
      8          1           0       -1.592922    1.119451   -0.351839
      9          1           0       -1.588522   -0.457263   -1.140947
     10          6           0       -0.735832   -0.448889    0.851675
     11          1           0       -0.883202   -1.520838    1.022723
     12          1           0       -0.918303    0.068243    1.798926
     13          6           0        0.685533   -0.203173    0.406605
     14          7           0        1.121235    1.070936    0.446094
     15          6           0        2.371869    1.321533    0.035038
     16          1           0        2.692309    2.360544    0.083544
     17          6           0        3.247865    0.340441   -0.429777
     18          1           0        4.249789    0.606034   -0.746600
     19          6           0        2.794843   -0.976750   -0.469346
     20          1           0        3.439146   -1.775215   -0.821289
     21          6           0        1.495316   -1.250610   -0.045707
     22          1           0        1.106381   -2.261828   -0.057052
 ---------------------------------------------------------------------

 SCF Done:  E(RB3LYP) =  -421.577391974     A.U. after   10 cycles

 The electronic state is 1-A.
 Alpha  occ. eigenvalues --  -14.33188 -14.31344 -10.22909 -10.22345 -10.20637
 Alpha  occ. eigenvalues --  -10.20325 -10.19575 -10.19535 -10.19508 -10.18355
 Alpha  occ. eigenvalues --   -0.94220  -0.89625  -0.80126  -0.78815  -0.72795
 Alpha  occ. eigenvalues --   -0.66175  -0.62988  -0.61723  -0.58932  -0.51364
 Alpha  occ. eigenvalues --   -0.49066  -0.47867  -0.46447  -0.44107  -0.43431
 Alpha  occ. eigenvalues --   -0.41443  -0.40548  -0.39979  -0.38871  -0.36488
 Alpha  occ. eigenvalues --   -0.35498  -0.34437  -0.34300  -0.28594  -0.26051
 Alpha  occ. eigenvalues --   -0.25470  -0.22271
 Alpha virt. eigenvalues --   -0.02572  -0.00864   0.09531   0.10296   0.12499
 Alpha virt. eigenvalues --    0.13683   0.13974   0.14731   0.16187   0.16652
 Alpha virt. eigenvalues --    0.17985   0.18274   0.18685   0.19826   0.20129

 Mulliken charges:
               1
     1  C   -0.305798
     2  H    0.126905
     3  H    0.152104
     4  H    0.152912
     5  N   -0.585275
     6  H    0.330166
     7  C   -0.112064
     8  H    0.147113
     9  H    0.118058
    10  C   -0.333633
    11  H    0.153971
    12  H    0.155404
    13  C    0.298964
    14  N   -0.517237
    15  C    0.025763
    16  H    0.155952
    17  C   -0.154404
    18  H    0.160031
    19  C   -0.110847
    20  H    0.167160
    21  C   -0.182075
    22  H    0.156829
 Sum of Mulliken charges =   0.00000

 Dipole moment (field-independent basis, Debye):
    X=              1.3308    Y=             -3.1018    Z=             -1.8022  Tot=              3.8262
 Quadrupole moment (field-independent basis, Debye-Ang):
   XX=            -49.7409   YY=            -56.4691   ZZ=            -63.2672
   XY=              2.8833   XZ=              0.1351   YZ=             -1.7011

 Normal termination of Gaussian 09 at Mon Mar 29 22:43:16 2021.
