 Gaussian 09, Revision D.01,

 -----------------
 #p b3lyp/6-31G(d)
 -----------------

 ----------------------------------------------
 SET_328_BBB268_conf1.geo_180_090_255.n.pdb.xyz
 ----------------------------------------------
 Symbolic Z-matrix:
 Charge =  0 Multiplicity = 1

 SCF Done:  E(RB3LYP) =  -976.177196857     A.U. after   16 cycles
 Normal termination of Gaussian 09 at Sun Jan 24 23:13:51 2021.
 Gaussian 09:  AM64L-G09RevD.01 24-Apr-2013

 ----------------------------------------------------------------------
 #p b3lyp/6-31G(d) scrf=(iefpcm,read,solvent=Water) geom=allcheck guess
 =read
 ----------------------------------------------------------------------

 Structure from the checkpoint file:  "SET_328_BBB268_conf1.geo_180_090_255.n.pdb.xyz.mst.n.w.chk"
 ----------------------------------------------
 SET_328_BBB268_conf1.geo_180_090_255.n.pdb.xyz
 ----------------------------------------------
 Charge =  0 Multiplicity = 1

                         Standard orientation:
 ---------------------------------------------------------------------
 Center     Atomic      Atomic             Coordinates (Angstroms)
 Number     Number       Type             X           Y           Z
 ---------------------------------------------------------------------
      1          6           0        0.736047    4.595050   -0.947208
      2          1           0        0.791184    4.131331   -1.929227
      3          1           0        1.637558    5.190095   -0.768454
      4          1           0       -0.132132    5.260755   -0.902517
      5          7           0        0.622247    3.546485    0.059950
      6          6           0        0.556437    4.019152    1.435786
      7          1           0       -0.273601    4.722761    1.547265
      8          1           0        1.483348    4.535975    1.705040
      9          1           0        0.404034    3.196139    2.126343
     10          6           0        0.554537    2.245715   -0.325710
     11          8           0        0.574148    1.901690   -1.514084
     12          6           0        0.434479    1.188609    0.787703
     13          1           0       -0.523241    1.328094    1.299205
     14          1           0        1.207551    1.358551    1.543873
     15          6           0        0.517272   -0.214545    0.292356
     16          6           0       -0.449094   -1.170763   -0.002926
     17          6           0       -1.910292   -1.004633    0.004520
     18          6           0       -2.521637    0.201172   -0.371018
     19          6           0       -3.909598    0.333956   -0.347004
     20          6           0       -4.736884   -0.726273    0.037483
     21          6           0       -6.237250   -0.574287    0.065022
     22          1           0       -6.536995    0.412838   -0.295634
     23          1           0       -6.632345   -0.696086    1.078843
     24          1           0       -6.728255   -1.327238   -0.559897
     25          6           0       -4.122610   -1.938343    0.392474
     26          6           0       -2.740069   -2.077068    0.376604
     27          1           0       -2.285369   -3.020479    0.658515
     28          1           0       -4.739663   -2.781410    0.689371
     29          1           0       -4.361183    1.275411   -0.646563
     30          1           0       -1.910541    1.025426   -0.721334
     31          7           0        0.120673   -2.384332   -0.307696
     32          6           0        1.436855   -2.192725   -0.216926
     33          6           0        2.519011   -3.077370   -0.423276
     34          1           0        2.303187   -4.099604   -0.709402
     35          6           0        3.804312   -2.625155   -0.256298
     36          1           0        4.638878   -3.299928   -0.413350
     37          6           0        4.072657   -1.273539    0.123676
     38          6           0        5.488876   -0.794201    0.304018
     39          1           0        5.519415    0.257538    0.599946
     40          1           0        6.062008   -0.903575   -0.621525
     41          1           0        6.006468   -1.378458    1.072338
     42          6           0        3.017166   -0.422870    0.314645
     43          1           0        3.132482    0.614251    0.597526
     44          7           0        1.726044   -0.871752    0.147573
 ---------------------------------------------------------------------

 SCF Done:  E(RB3LYP) =  -976.193480812     A.U. after   11 cycles

 The electronic state is 1-A.
 Alpha  occ. eigenvalues --  -19.11692 -14.41410 -14.37095 -14.31526 -10.29286
 Alpha  occ. eigenvalues --  -10.25061 -10.23504 -10.22290 -10.21753 -10.21680
 Alpha  occ. eigenvalues --  -10.21020 -10.20980 -10.20841 -10.20221 -10.20013
 Alpha  occ. eigenvalues --  -10.19903 -10.19818 -10.19000 -10.18867 -10.18714
 Alpha  occ. eigenvalues --  -10.18692 -10.18515 -10.17944  -1.03664  -1.03093
 Alpha  occ. eigenvalues --   -0.93613  -0.90862  -0.85772  -0.84175  -0.79743
 Alpha  occ. eigenvalues --   -0.77460  -0.76769  -0.74419  -0.72967  -0.71679
 Alpha  occ. eigenvalues --   -0.70732  -0.68873  -0.67475  -0.62681  -0.61992
 Alpha  occ. eigenvalues --   -0.60764  -0.59471  -0.56645  -0.54745  -0.51869
 Alpha  occ. eigenvalues --   -0.50685  -0.50005  -0.49550  -0.48130  -0.47583
 Alpha  occ. eigenvalues --   -0.46415  -0.46232  -0.46064  -0.45394  -0.44655
 Alpha  occ. eigenvalues --   -0.42543  -0.42246  -0.41772  -0.41676  -0.41505
 Alpha  occ. eigenvalues --   -0.40637  -0.40367  -0.40165  -0.40106  -0.39046
 Alpha  occ. eigenvalues --   -0.38337  -0.37988  -0.37818  -0.36275  -0.36069
 Alpha  occ. eigenvalues --   -0.35868  -0.34411  -0.33727  -0.33027  -0.31628
 Alpha  occ. eigenvalues --   -0.28239  -0.26313  -0.25827  -0.25261  -0.24425
 Alpha  occ. eigenvalues --   -0.22119  -0.20534
 Alpha virt. eigenvalues --   -0.03736  -0.01232  -0.00283   0.01005   0.02231
 Alpha virt. eigenvalues --    0.07340   0.08864   0.10558   0.10808   0.12023
 Alpha virt. eigenvalues --    0.12172   0.12809   0.13238   0.13642   0.14211

 Mulliken charges:
               1
     1  C   -0.323587
     2  H    0.187083
     3  H    0.170869
     4  H    0.170804
     5  N   -0.402494
     6  C   -0.325115
     7  H    0.177429
     8  H    0.176599
     9  H    0.194598
    10  C    0.624561
    11  O   -0.588259
    12  C   -0.522013
    13  H    0.213922
    14  H    0.203389
    15  C    0.342570
    16  C    0.088012
    17  C    0.081056
    18  C   -0.194450
    19  C   -0.216707
    20  C    0.170649
    21  C   -0.534890
    22  H    0.164595
    23  H    0.170908
    24  H    0.169934
    25  C   -0.201000
    26  C   -0.182295
    27  H    0.145753
    28  H    0.142434
    29  H    0.143295
    30  H    0.149675
    31  N   -0.636460
    32  C    0.531904
    33  C   -0.203799
    34  H    0.166828
    35  C   -0.164507
    36  H    0.158893
    37  C    0.106794
    38  C   -0.531933
    39  H    0.170148
    40  H    0.175324
    41  H    0.174557
    42  C    0.008249
    43  H    0.188565
    44  N   -0.541888
 Sum of Mulliken charges =   0.00000

 Dipole moment (field-independent basis, Debye):
    X=              3.3267    Y=              6.1239    Z=              5.3298  Tot=              8.7736
 Quadrupole moment (field-independent basis, Debye-Ang):
   XX=           -102.6227   YY=           -113.7965   ZZ=           -139.5158
   XY=             -3.1547   XZ=              2.2700   YZ=              6.4522

 Normal termination of Gaussian 09 at Sun Jan 24 23:20:17 2021.
