 Gaussian 09, Revision D.01,

 -----------------
 #p b3lyp/6-31G(d)
 -----------------

 ----------------------------------------------
 SET_328_BBB301_conf1.geo_090_285_090.n.pdb.xyz
 ----------------------------------------------
 Symbolic Z-matrix:
 Charge =  0 Multiplicity = 1

 SCF Done:  E(RB3LYP) =  -788.420478410     A.U. after   14 cycles
 Normal termination of Gaussian 09 at Mon Jan 25 16:27:27 2021.
 Gaussian 09:  AM64L-G09RevD.01 24-Apr-2013

 ----------------------------------------------------------------------
 #p b3lyp/6-31G(d) scrf=(iefpcm,read,solvent=Water) geom=allcheck guess
 =read
 ----------------------------------------------------------------------

 Structure from the checkpoint file:  "SET_328_BBB301_conf1.geo_090_285_090.n.pdb.xyz.mst.n.w.chk"
 ----------------------------------------------
 SET_328_BBB301_conf1.geo_090_285_090.n.pdb.xyz
 ----------------------------------------------
 Charge =  0 Multiplicity = 1

                         Standard orientation:
 ---------------------------------------------------------------------
 Center     Atomic      Atomic             Coordinates (Angstroms)
 Number     Number       Type             X           Y           Z
 ---------------------------------------------------------------------
      1          6           0       -4.599502   -0.512958    0.376165
      2          1           0       -5.575962   -0.630850   -0.101989
      3          1           0       -4.673432    0.326830    1.073071
      4          1           0       -4.387082   -1.417919    0.954278
      5          6           0       -3.514044   -0.284473   -0.686906
      6          6           0       -3.489526   -1.478795   -1.650229
      7          1           0       -3.276225   -2.407241   -1.111329
      8          1           0       -2.721803   -1.346930   -2.419689
      9          1           0       -4.452814   -1.587253   -2.155925
     10          6           0       -3.805184    1.006281   -1.472942
     11          1           0       -3.807704    1.879965   -0.815492
     12          1           0       -4.781103    0.955123   -1.965705
     13          1           0       -3.045988    1.168754   -2.246926
     14          7           0       -2.180898   -0.248331   -0.033596
     15          1           0       -1.471021   -0.258194   -0.767616
     16          6           0       -1.897087    0.875918    0.860092
     17          1           0       -2.740587    0.994900    1.545543
     18          1           0       -1.747389    1.835160    0.345333
     19          6           0       -0.651656    0.518574    1.697405
     20          8           0       -0.844677   -0.776703    2.250010
     21          1           0       -1.371429   -1.234065    1.557158
     22          1           0       -0.593416    1.222336    2.535470
     23          6           0        0.640710    0.621256    0.893893
     24          6           0        1.372395   -0.514054    0.534336
     25          1           0        1.015873   -1.486107    0.858867
     26          6           0        2.548287   -0.437879   -0.218786
     27          6           0        3.329172   -1.675179   -0.567562
     28          8           0        4.402290   -1.833954    0.369477
     29          1           0        4.941318   -2.579079    0.053791
     30          1           0        3.723562   -1.587665   -1.586391
     31          1           0        2.660090   -2.546878   -0.538636
     32          6           0        3.011479    0.828909   -0.614829
     33          8           0        4.162213    0.875687   -1.348334
     34          1           0        4.357656    1.799623   -1.589775
     35          6           0        2.296759    1.979535   -0.262101
     36          1           0        2.657564    2.956021   -0.568687
     37          6           0        1.126297    1.870405    0.486833
     38          1           0        0.588945    2.776298    0.758392
 ---------------------------------------------------------------------

 SCF Done:  E(RB3LYP) =  -788.445205477     A.U. after   11 cycles

 The electronic state is 1-A.
 Alpha  occ. eigenvalues --  -19.17383 -19.13471 -19.13288 -14.32129 -10.24778
 Alpha  occ. eigenvalues --  -10.23359 -10.22646 -10.22073 -10.20462 -10.19076
 Alpha  occ. eigenvalues --  -10.18801 -10.18769 -10.18565 -10.18494 -10.16955
 Alpha  occ. eigenvalues --  -10.16899 -10.16819  -1.05367  -1.01261  -1.00349
 Alpha  occ. eigenvalues --   -0.90551  -0.85144  -0.78642  -0.76655  -0.74807
 Alpha  occ. eigenvalues --   -0.70169  -0.68350  -0.68275  -0.66731  -0.62796
 Alpha  occ. eigenvalues --   -0.60531  -0.56820  -0.54741  -0.53584  -0.50228
 Alpha  occ. eigenvalues --   -0.49909  -0.48534  -0.47163  -0.46873  -0.46022
 Alpha  occ. eigenvalues --   -0.43622  -0.43275  -0.42721  -0.42452  -0.41353
 Alpha  occ. eigenvalues --   -0.40997  -0.40066  -0.39994  -0.38348  -0.37635
 Alpha  occ. eigenvalues --   -0.37036  -0.36239  -0.36057  -0.35177  -0.34624
 Alpha  occ. eigenvalues --   -0.33677  -0.33183  -0.32265  -0.32027  -0.31193
 Alpha  occ. eigenvalues --   -0.26700  -0.26185  -0.25099  -0.23140  -0.21564
 Alpha virt. eigenvalues --   -0.00843   0.01181   0.07656   0.09259   0.10208
 Alpha virt. eigenvalues --    0.11065   0.11832   0.12212   0.12596   0.13894
 Alpha virt. eigenvalues --    0.13988   0.14482   0.15253   0.15793   0.16489

 Mulliken charges:
               1
     1  C   -0.451372
     2  H    0.148786
     3  H    0.150014
     4  H    0.148254
     5  C    0.218045
     6  C   -0.458600
     7  H    0.148769
     8  H    0.145728
     9  H    0.149785
    10  C   -0.456415
    11  H    0.151017
    12  H    0.147025
    13  H    0.143459
    14  N   -0.609943
    15  H    0.328008
    16  C   -0.151505
    17  H    0.158031
    18  H    0.142088
    19  C    0.062125
    20  O   -0.684438
    21  H    0.414664
    22  H    0.146115
    23  C    0.128162
    24  C   -0.268947
    25  H    0.137257
    26  C    0.107763
    27  C   -0.094670
    28  O   -0.666957
    29  H    0.433670
    30  H    0.138299
    31  H    0.131307
    32  C    0.298209
    33  O   -0.673575
    34  H    0.457917
    35  C   -0.209775
    36  H    0.152705
    37  C   -0.207284
    38  H    0.146279
 Sum of Mulliken charges =   0.00000

 Dipole moment (field-independent basis, Debye):
    X=             -1.5796    Y=              2.4370    Z=             -4.9351  Tot=              5.7261
 Quadrupole moment (field-independent basis, Debye-Ang):
   XX=            -94.2231   YY=            -87.1060   ZZ=           -109.3921
   XY=              1.1494   XZ=             -7.8203   YZ=              3.3446

 Normal termination of Gaussian 09 at Mon Jan 25 16:30:50 2021.
