 Gaussian 09, Revision D.01,

 -----------------
 #p b3lyp/6-31G(d)
 -----------------

 ----------------------------------------------
 SET_328_BBB256_conf1.geo_180_285_285.n.pdb.xyz
 ----------------------------------------------
 Symbolic Z-matrix:
 Charge =  0 Multiplicity = 1

 SCF Done:  E(RB3LYP) =  -421.567706640     A.U. after   14 cycles
 Normal termination of Gaussian 09 at Sun Jan 24 23:03:30 2021.
 Gaussian 09:  AM64L-G09RevD.01 24-Apr-2013

 ----------------------------------------------------------------------
 #p b3lyp/6-31G(d) scrf=(iefpcm,read,solvent=Water) geom=allcheck guess
 =read
 ----------------------------------------------------------------------

 Structure from the checkpoint file:  "SET_328_BBB256_conf1.geo_180_285_285.n.pdb.xyz.mst.n.w.chk"
 ----------------------------------------------
 SET_328_BBB256_conf1.geo_180_285_285.n.pdb.xyz
 ----------------------------------------------
 Charge =  0 Multiplicity = 1

                         Standard orientation:
 ---------------------------------------------------------------------
 Center     Atomic      Atomic             Coordinates (Angstroms)
 Number     Number       Type             X           Y           Z
 ---------------------------------------------------------------------
      1          6           0       -3.418626    0.662690   -1.021496
      2          1           0       -3.661406    1.702606   -1.258380
      3          1           0       -4.317750    0.188784   -0.590949
      4          1           0       -3.192634    0.145205   -1.961405
      5          7           0       -2.249746    0.617403   -0.145539
      6          1           0       -2.448390    1.178977    0.681950
      7          6           0       -1.950738   -0.742948    0.290547
      8          1           0       -1.731447   -1.346983   -0.597387
      9          1           0       -2.808590   -1.224101    0.792908
     10          6           0       -0.742049   -0.786477    1.232172
     11          1           0       -0.628006   -1.815571    1.590211
     12          1           0       -0.939934   -0.159320    2.109191
     13          6           0        0.545799   -0.348925    0.573733
     14          7           0        1.062368   -1.182434   -0.350155
     15          6           0        2.198050   -0.820096   -0.963003
     16          1           0        2.585404   -1.518323   -1.702383
     17          6           0        2.878083    0.367371   -0.697927
     18          1           0        3.794611    0.604340   -1.224295
     19          6           0        2.344200    1.226982    0.260673
     20          1           0        2.837293    2.162741    0.503431
     21          6           0        1.162696    0.863277    0.903894
     22          1           0        0.718008    1.505614    1.655406
 ---------------------------------------------------------------------

 SCF Done:  E(RB3LYP) =  -421.577170389     A.U. after   11 cycles

 The electronic state is 1-A.
 Alpha  occ. eigenvalues --  -14.33019 -14.31265 -10.22744 -10.22224 -10.20517
 Alpha  occ. eigenvalues --  -10.20278 -10.19541 -10.19436 -10.19352 -10.18402
 Alpha  occ. eigenvalues --   -0.94063  -0.89536  -0.79995  -0.78552  -0.72786
 Alpha  occ. eigenvalues --   -0.66063  -0.62917  -0.62068  -0.58515  -0.51451
 Alpha  occ. eigenvalues --   -0.48509  -0.47740  -0.45629  -0.44706  -0.43978
 Alpha  occ. eigenvalues --   -0.41405  -0.40661  -0.39501  -0.37937  -0.37294
 Alpha  occ. eigenvalues --   -0.34961  -0.34707  -0.34238  -0.28470  -0.25918
 Alpha  occ. eigenvalues --   -0.25335  -0.22154
 Alpha virt. eigenvalues --   -0.02454  -0.00695   0.09225   0.10723   0.12427
 Alpha virt. eigenvalues --    0.13197   0.14481   0.15334   0.16632   0.17508
 Alpha virt. eigenvalues --    0.17633   0.17938   0.18520   0.19614   0.20084

 Mulliken charges:
               1
     1  C   -0.306328
     2  H    0.152520
     3  H    0.126868
     4  H    0.151745
     5  N   -0.581768
     6  H    0.328737
     7  C   -0.112639
     8  H    0.146909
     9  H    0.120732
    10  C   -0.345552
    11  H    0.158343
    12  H    0.153529
    13  C    0.325950
    14  N   -0.521547
    15  C    0.023996
    16  H    0.154558
    17  C   -0.155345
    18  H    0.158616
    19  C   -0.112532
    20  H    0.165691
    21  C   -0.186147
    22  H    0.153665
 Sum of Mulliken charges =   0.00000

 Dipole moment (field-independent basis, Debye):
    X=             -0.2414    Y=              2.0812    Z=              1.6402  Tot=              2.6608
 Quadrupole moment (field-independent basis, Debye-Ang):
   XX=            -49.2082   YY=            -60.1925   ZZ=            -57.4424
   XY=              2.3138   XZ=             -4.1935   YZ=              2.2184

 Normal termination of Gaussian 09 at Sun Jan 24 23:04:20 2021.
