 Gaussian 09, Revision D.01,

 -----------------
 #p b3lyp/6-31G(d)
 -----------------

 ----------------------------------------------
 SET_328_BBB292_conf1.geo_270_300_120.n.pdb.xyz
 ----------------------------------------------
 Symbolic Z-matrix:
 Charge =  0 Multiplicity = 1

 SCF Done:  E(RB3LYP) =  -705.217456086     A.U. after   15 cycles
 Normal termination of Gaussian 09 at Mon Jan 25 16:25:46 2021.
 Gaussian 09:  AM64L-G09RevD.01 24-Apr-2013

 ----------------------------------------------------------------------
 #p b3lyp/6-31G(d) scrf=(iefpcm,read,solvent=Water) geom=allcheck guess
 =read
 ----------------------------------------------------------------------

 Structure from the checkpoint file:  "SET_328_BBB292_conf1.geo_270_300_120.n.pdb.xyz.mst.n.w.chk"
 ----------------------------------------------
 SET_328_BBB292_conf1.geo_270_300_120.n.pdb.xyz
 ----------------------------------------------
 Charge =  0 Multiplicity = 1

                         Standard orientation:
 ---------------------------------------------------------------------
 Center     Atomic      Atomic             Coordinates (Angstroms)
 Number     Number       Type             X           Y           Z
 ---------------------------------------------------------------------
      1          7           0       -1.998847    1.664682    0.862345
      2          1           0       -2.206297    2.644745    0.678098
      3          1           0       -1.003244    1.596114    1.071239
      4          6           0       -2.349437    0.823754   -0.289277
      5          6           0       -2.868304   -0.526245    0.239453
      6          8           0       -3.090580   -0.537740    1.551644
      7          1           0       -2.820233    0.385466    1.844760
      8          8           0       -3.096434   -1.485829   -0.464784
      9          1           0       -3.215496    1.279713   -0.779810
     10          6           0       -1.258836    0.631578   -1.372238
     11          1           0       -1.128244    1.588290   -1.885678
     12          1           0       -1.656180   -0.080350   -2.099952
     13          6           0        0.075038    0.148897   -0.847406
     14          6           0        1.081296    1.069477   -0.523074
     15          1           0        0.931779    2.130738   -0.693082
     16          6           0        2.318342    0.656185   -0.028217
     17          8           0        3.255295    1.619026    0.248044
     18          1           0        4.147742    1.239783    0.179270
     19          6           0        2.560113   -0.713235    0.184175
     20          8           0        3.753941   -1.184199    0.673456
     21          1           0        4.155982   -0.526513    1.268872
     22          6           0        1.569855   -1.635370   -0.154107
     23          1           0        1.777545   -2.689298   -0.000778
     24          6           0        0.345171   -1.215046   -0.669550
     25          1           0       -0.408625   -1.951504   -0.924775
 ---------------------------------------------------------------------

 SCF Done:  E(RB3LYP) =  -705.250533313     A.U. after   11 cycles

 The electronic state is 1-A.
 Alpha  occ. eigenvalues --  -19.18064 -19.17788 -19.17722 -19.13272 -14.33439
 Alpha  occ. eigenvalues --  -10.31286 -10.24922 -10.24773 -10.23314 -10.19614
 Alpha  occ. eigenvalues --  -10.19226 -10.18894 -10.18805 -10.18533  -1.09634
 Alpha  occ. eigenvalues --   -1.06733  -1.04231  -1.01318  -0.90086  -0.85216
 Alpha  occ. eigenvalues --   -0.77556  -0.74461  -0.72001  -0.65704  -0.61604
 Alpha  occ. eigenvalues --   -0.60454  -0.58533  -0.56586  -0.53268  -0.50512
 Alpha  occ. eigenvalues --   -0.49690  -0.48781  -0.46734  -0.45205  -0.44029
 Alpha  occ. eigenvalues --   -0.43693  -0.43120  -0.42273  -0.40258  -0.39577
 Alpha  occ. eigenvalues --   -0.38762  -0.38014  -0.36988  -0.35120  -0.34916
 Alpha  occ. eigenvalues --   -0.32799  -0.32064  -0.31005  -0.29092  -0.25492
 Alpha  occ. eigenvalues --   -0.24103  -0.21425
 Alpha virt. eigenvalues --   -0.00214   0.00557   0.01588   0.06255   0.08829
 Alpha virt. eigenvalues --    0.11855   0.12806   0.13771   0.15211   0.15729
 Alpha virt. eigenvalues --    0.16521   0.17423   0.18297   0.18748   0.19367

 Mulliken charges:
               1
     1  N   -0.806445
     2  H    0.368438
     3  H    0.354469
     4  C   -0.075458
     5  C    0.619915
     6  O   -0.605383
     7  H    0.452422
     8  O   -0.538387
     9  H    0.199395
    10  C   -0.356711
    11  H    0.163130
    12  H    0.169079
    13  C    0.140833
    14  C   -0.259677
    15  H    0.147222
    16  C    0.304978
    17  O   -0.683087
    18  H    0.450629
    19  C    0.296543
    20  O   -0.686420
    21  H    0.453364
    22  C   -0.193746
    23  H    0.150480
    24  C   -0.212099
    25  H    0.146516
 Sum of Mulliken charges =   0.00000

 Dipole moment (field-independent basis, Debye):
    X=              4.4225    Y=              6.7482    Z=              0.8528  Tot=              8.1132
 Quadrupole moment (field-independent basis, Debye-Ang):
   XX=            -75.0759   YY=            -81.2700   ZZ=            -80.7009
   XY=            -13.4464   XZ=              6.9895   YZ=              0.1984

 Normal termination of Gaussian 09 at Mon Jan 25 16:27:25 2021.
