 Gaussian 09, Revision D.01,

 -----------------
 #p b3lyp/6-31G(d)
 -----------------

 ----------------------------------------------
 SET_328_BBB321_conf1.geo_195_210_120.n.pdb.xyz
 ----------------------------------------------
 Symbolic Z-matrix:
 Charge =  0 Multiplicity = 1

 SCF Done:  E(RB3LYP) =  -1212.31175892     A.U. after   16 cycles
 Normal termination of Gaussian 09 at Thu Jan 28 04:50:43 2021.
 Gaussian 09:  AM64L-G09RevD.01 24-Apr-2013

 ----------------------------------------------------------------------
 #p b3lyp/6-31G(d) scrf=(iefpcm,read,solvent=Water) geom=allcheck guess
 =read
 ----------------------------------------------------------------------

 Structure from the checkpoint file:  "SET_328_BBB321_conf1.geo_195_210_120.n.pdb.xyz.mst.n.w.chk"
 ----------------------------------------------
 SET_328_BBB321_conf1.geo_195_210_120.n.pdb.xyz
 ----------------------------------------------
 Charge =  0 Multiplicity = 1

                         Standard orientation:
 ---------------------------------------------------------------------
 Center     Atomic      Atomic             Coordinates (Angstroms)
 Number     Number       Type             X           Y           Z
 ---------------------------------------------------------------------
      1          6           0        6.425651    1.183275    0.216563
      2          1           0        6.900076    1.105446    1.199239
      3          1           0        6.018083    2.188163    0.102176
      4          1           0        7.201408    1.021144   -0.537063
      5          6           0        5.386247    0.087355    0.088204
      6          8           0        5.711973   -1.100482    0.030087
      7          7           0        4.091179    0.525909    0.061254
      8          1           0        3.957774    1.529546    0.123515
      9          6           0        2.901998   -0.226302   -0.021889
     10          6           0        2.881286   -1.627091   -0.118963
     11          6           0        1.651454   -2.280598   -0.194099
     12          6           0        0.450819   -1.574768   -0.176496
     13          1           0       -0.497966   -2.092320   -0.239680
     14          1           0        1.635495   -3.363431   -0.268208
     15          1           0        3.813104   -2.171304   -0.130304
     16          6           0        1.696239    0.485073   -0.004356
     17          1           0        1.725957    1.567590    0.080551
     18          6           0        0.461035   -0.173987   -0.083274
     19          6           0       -0.807566    0.580779   -0.071916
     20          7           0       -2.006571   -0.116158   -0.014698
     21          6           0       -0.927415    1.943453   -0.120062
     22          1           0       -0.146317    2.685369   -0.183014
     23         16           0       -2.599485    2.409490   -0.089710
     24          6           0       -3.053197    0.687230   -0.013782
     25          7           0       -4.375972    0.415642    0.037342
     26          6           0       -4.814815   -0.838210    0.113018
     27          7           0       -6.159327   -1.013826    0.242894
     28          1           0       -6.731674   -0.210805    0.013802
     29          1           0       -6.554907   -1.916054    0.003395
     30          7           0       -4.043190   -1.940836    0.095452
     31          1           0       -3.035591   -1.808682    0.126420
     32          1           0       -4.442717   -2.855013    0.270431
 ---------------------------------------------------------------------

 SCF Done:  E(RB3LYP) =  -1212.34591322     A.U. after   12 cycles

 The electronic state is 1-A.
 Alpha  occ. eigenvalues --  -88.90290 -19.12229 -14.37637 -14.35175 -14.34961
 Alpha  occ. eigenvalues --  -14.32532 -14.31211 -10.30783 -10.29900 -10.27790
 Alpha  occ. eigenvalues --  -10.23972 -10.22579 -10.20810 -10.20606 -10.19395
 Alpha  occ. eigenvalues --  -10.19212 -10.18771 -10.18603 -10.18588  -7.96481
 Alpha  occ. eigenvalues --   -5.92870  -5.92536  -5.92161  -1.03938  -0.99850
 Alpha  occ. eigenvalues --   -0.95591  -0.94231  -0.87938  -0.87722  -0.85134
 Alpha  occ. eigenvalues --   -0.79006  -0.77460  -0.76033  -0.72325  -0.70978
 Alpha  occ. eigenvalues --   -0.64463  -0.62584  -0.62332  -0.58948  -0.57997
 Alpha  occ. eigenvalues --   -0.55636  -0.54034  -0.53486  -0.51321  -0.49416
 Alpha  occ. eigenvalues --   -0.48639  -0.47341  -0.47119  -0.45237  -0.44776
 Alpha  occ. eigenvalues --   -0.43808  -0.43625  -0.42619  -0.40993  -0.40589
 Alpha  occ. eigenvalues --   -0.40316  -0.39905  -0.39194  -0.37516  -0.36383
 Alpha  occ. eigenvalues --   -0.35941  -0.34250  -0.31678  -0.29689  -0.28324
 Alpha  occ. eigenvalues --   -0.28272  -0.27532  -0.26976  -0.25813  -0.24885
 Alpha  occ. eigenvalues --   -0.22387  -0.19566
 Alpha virt. eigenvalues --   -0.03475  -0.01746  -0.00550   0.02352   0.03626
 Alpha virt. eigenvalues --    0.07316   0.08571   0.09124   0.09948   0.10273
 Alpha virt. eigenvalues --    0.11491   0.13003   0.13565   0.13955   0.14508

 Mulliken charges:
               1
     1  C   -0.542646
     2  H    0.194992
     3  H    0.175818
     4  H    0.189003
     5  C    0.604045
     6  O   -0.562256
     7  N   -0.709744
     8  H    0.389328
     9  C    0.344375
    10  C   -0.180062
    11  C   -0.166491
    12  C   -0.195710
    13  H    0.154824
    14  H    0.150868
    15  H    0.169588
    16  C   -0.278771
    17  H    0.158883
    18  C    0.105606
    19  C    0.276980
    20  N   -0.585252
    21  C   -0.431547
    22  H    0.199079
    23  S    0.184111
    24  C    0.305870
    25  N   -0.617284
    26  C    0.663690
    27  N   -0.772693
    28  H    0.382236
    29  H    0.386755
    30  N   -0.784510
    31  H    0.399887
    32  H    0.391026
 Sum of Mulliken charges =   0.00000

 Dipole moment (field-independent basis, Debye):
    X=             -4.6333    Y=             -0.3598    Z=              0.0353  Tot=              4.6473
 Quadrupole moment (field-independent basis, Debye-Ang):
   XX=            -83.0998   YY=            -99.0159   ZZ=           -121.7556
   XY=             53.0268   XZ=              4.4460   YZ=              0.1098

 Normal termination of Gaussian 09 at Thu Jan 28 04:53:47 2021.
