 Gaussian 09, Revision D.01,

 -----------------
 #p b3lyp/6-31G(d)
 -----------------

 ----------------------------------------------
 SET_328_BBB321_conf1.geo_180_210_255.n.pdb.xyz
 ----------------------------------------------
 Symbolic Z-matrix:
 Charge =  0 Multiplicity = 1

 SCF Done:  E(RB3LYP) =  -1212.31163737     A.U. after   16 cycles
 Normal termination of Gaussian 09 at Thu Jan 28 04:44:01 2021.
 Gaussian 09:  AM64L-G09RevD.01 24-Apr-2013

 ----------------------------------------------------------------------
 #p b3lyp/6-31G(d) scrf=(iefpcm,read,solvent=Water) geom=allcheck guess
 =read
 ----------------------------------------------------------------------

 Structure from the checkpoint file:  "SET_328_BBB321_conf1.geo_180_210_255.n.pdb.xyz.mst.n.w.chk"
 ----------------------------------------------
 SET_328_BBB321_conf1.geo_180_210_255.n.pdb.xyz
 ----------------------------------------------
 Charge =  0 Multiplicity = 1

                         Standard orientation:
 ---------------------------------------------------------------------
 Center     Atomic      Atomic             Coordinates (Angstroms)
 Number     Number       Type             X           Y           Z
 ---------------------------------------------------------------------
      1          6           0        6.420999    1.180893    0.271617
      2          1           0        7.129954    0.899105    1.052573
      3          1           0        5.995481    2.156873    0.507570
      4          1           0        6.977832    1.257865   -0.665681
      5          6           0        5.382579    0.082741    0.136891
      6          8           0        5.710277   -1.103076    0.054917
      7          7           0        4.088346    0.522590    0.099921
      8          1           0        3.955710    1.525342    0.175000
      9          6           0        2.899694   -0.225788   -0.028277
     10          6           0        2.877945   -1.625206   -0.166424
     11          6           0        1.648797   -2.273926   -0.275065
     12          6           0        0.448642   -1.567018   -0.252190
     13          1           0       -0.499864   -2.081670   -0.338678
     14          1           0        1.630780   -3.353573   -0.380148
     15          1           0        3.808751   -2.170475   -0.180570
     16          6           0        1.692749    0.485595   -0.006774
     17          1           0        1.719733    1.563992    0.111078
     18          6           0        0.460106   -0.169898   -0.120201
     19          6           0       -0.806854    0.584841   -0.100549
     20          7           0       -2.003849   -0.113014   -0.018378
     21          6           0       -0.929492    1.946426   -0.161296
     22          1           0       -0.150268    2.688440   -0.243418
     23         16           0       -2.602006    2.412013   -0.112624
     24          6           0       -3.053213    0.686884   -0.012815
     25          7           0       -4.374296    0.412429    0.059794
     26          6           0       -4.807941   -0.843472    0.150980
     27          7           0       -6.156878   -1.033535    0.139570
     28          1           0       -6.525668   -1.906066    0.499596
     29          1           0       -6.717417   -0.211279    0.328116
     30          7           0       -4.027981   -1.936250    0.227570
     31          1           0       -4.431316   -2.865640    0.200040
     32          1           0       -3.025280   -1.808483    0.122444
 ---------------------------------------------------------------------

 SCF Done:  E(RB3LYP) =  -1212.34589593     A.U. after   12 cycles

 The electronic state is 1-A.
 Alpha  occ. eigenvalues --  -88.90272 -19.12246 -14.37650 -14.35200 -14.34971
 Alpha  occ. eigenvalues --  -14.32522 -14.31223 -10.30804 -10.29910 -10.27808
 Alpha  occ. eigenvalues --  -10.24014 -10.22555 -10.20804 -10.20570 -10.19383
 Alpha  occ. eigenvalues --  -10.19207 -10.18748 -10.18636 -10.18583  -7.96458
 Alpha  occ. eigenvalues --   -5.92848  -5.92514  -5.92138  -1.03936  -0.99849
 Alpha  occ. eigenvalues --   -0.95572  -0.94219  -0.87951  -0.87720  -0.85140
 Alpha  occ. eigenvalues --   -0.78962  -0.77462  -0.76034  -0.72321  -0.70958
 Alpha  occ. eigenvalues --   -0.64461  -0.62574  -0.62352  -0.58953  -0.58014
 Alpha  occ. eigenvalues --   -0.55644  -0.54054  -0.53494  -0.51308  -0.49428
 Alpha  occ. eigenvalues --   -0.48636  -0.47337  -0.47133  -0.45228  -0.44796
 Alpha  occ. eigenvalues --   -0.43843  -0.43527  -0.42680  -0.41015  -0.40659
 Alpha  occ. eigenvalues --   -0.40206  -0.39910  -0.39173  -0.37518  -0.36395
 Alpha  occ. eigenvalues --   -0.35955  -0.34245  -0.31667  -0.29699  -0.28377
 Alpha  occ. eigenvalues --   -0.28209  -0.27517  -0.26969  -0.25824  -0.24890
 Alpha  occ. eigenvalues --   -0.22381  -0.19562
 Alpha virt. eigenvalues --   -0.03452  -0.01759  -0.00546   0.02321   0.03632
 Alpha virt. eigenvalues --    0.07290   0.08599   0.09101   0.09926   0.10235
 Alpha virt. eigenvalues --    0.11551   0.13029   0.13576   0.13932   0.14515

 Mulliken charges:
               1
     1  C   -0.542874
     2  H    0.188976
     3  H    0.175750
     4  H    0.195267
     5  C    0.603261
     6  O   -0.562033
     7  N   -0.709101
     8  H    0.389449
     9  C    0.342818
    10  C   -0.179603
    11  C   -0.166386
    12  C   -0.195601
    13  H    0.155384
    14  H    0.150930
    15  H    0.169124
    16  C   -0.277376
    17  H    0.158702
    18  C    0.106161
    19  C    0.276188
    20  N   -0.584749
    21  C   -0.431289
    22  H    0.198710
    23  S    0.182315
    24  C    0.305415
    25  N   -0.617852
    26  C    0.665114
    27  N   -0.772995
    28  H    0.386939
    29  H    0.382309
    30  N   -0.784249
    31  H    0.391656
    32  H    0.399638
 Sum of Mulliken charges =   0.00000

 Dipole moment (field-independent basis, Debye):
    X=             -4.5731    Y=             -0.3573    Z=              1.3885  Tot=              4.7925
 Quadrupole moment (field-independent basis, Debye-Ang):
   XX=            -84.1430   YY=            -99.0635   ZZ=           -121.0471
   XY=             52.6624   XZ=             -6.8159   YZ=             -0.7867

 Normal termination of Gaussian 09 at Thu Jan 28 04:47:33 2021.
