 Gaussian 16, Revision B.01,
 Gaussian 16:  ES64L-G16RevB.01 20-Dec-2017

 ----------------------------------------------------------------------
 #p b3lyp/6-31G(d) opt freq NoSymm scf=(MaxCycle=2000,NoVarAcc,NoIncFoc
 k) scrf=(iefpcm,read,solvent=water) MaxDisk=20GB
 ----------------------------------------------------------------------

 --------------------------------------------
 SET_328_BBB6_conf1.geo_165_225_075.n.pdb.xyz
 --------------------------------------------
 Symbolic Z-matrix:
 Charge =  0 Multiplicity = 1

 SCF Done:  E(RB3LYP) =  -1096.35516617     A.U. after   13 cycles
 SCF Done:  E(RB3LYP) =  -1096.38621350     A.U. after   11 cycles
 SCF Done:  E(RB3LYP) =  -1096.40227387     A.U. after   12 cycles
 SCF Done:  E(RB3LYP) =  -1096.40491944     A.U. after   11 cycles
 SCF Done:  E(RB3LYP) =  -1096.40531334     A.U. after   11 cycles
 SCF Done:  E(RB3LYP) =  -1096.40562211     A.U. after   11 cycles
 SCF Done:  E(RB3LYP) =  -1096.40621344     A.U. after   10 cycles
 SCF Done:  E(RB3LYP) =  -1096.40627098     A.U. after   10 cycles
 SCF Done:  E(RB3LYP) =  -1096.40638155     A.U. after   10 cycles
 SCF Done:  E(RB3LYP) =  -1096.40641618     A.U. after   10 cycles
 SCF Done:  E(RB3LYP) =  -1096.40641249     A.U. after    9 cycles
 SCF Done:  E(RB3LYP) =  -1096.40641340     A.U. after    7 cycles
 SCF Done:  E(RB3LYP) =  -1096.40641722     A.U. after    8 cycles
 SCF Done:  E(RB3LYP) =  -1096.40640880     A.U. after    8 cycles
 SCF Done:  E(RB3LYP) =  -1096.40640967     A.U. after    7 cycles
 SCF Done:  E(RB3LYP) =  -1096.40641633     A.U. after    9 cycles
 SCF Done:  E(RB3LYP) =  -1096.40640944     A.U. after    9 cycles
 Optimization completed on the basis of negligible forces.
    -- Stationary point found.
 Normal termination of Gaussian 16 at Wed Apr 28 06:39:19 2021.

 --------------------------------------------------------------------
 #P Geom=AllCheck Guess=TCheck SCRF=Check GenChk RB3LYP/6-31G(d) Freq
 --------------------------------------------------------------------

 Structure from the checkpoint file:  "SET_328_BBB6_conf1.geo_165_225_075.n.pdb.xyz.mst.n.w.chk"
 --------------------------------------------
 SET_328_BBB6_conf1.geo_165_225_075.n.pdb.xyz
 --------------------------------------------
 Charge =  0 Multiplicity = 1

                          Input orientation:
 ---------------------------------------------------------------------
 Center     Atomic      Atomic             Coordinates (Angstroms)
 Number     Number       Type             X           Y           Z
 ---------------------------------------------------------------------
      1          6           0       -0.734584    2.238175   -0.939170
      2          1           0       -0.522262    2.877278   -0.077691
      3          1           0       -1.782690    2.361903   -1.220312
      4          1           0       -0.110646    2.568737   -1.774893
      5          6           0       -0.466565    0.749019   -0.638329
      6          7           0       -0.760826   -0.052329   -1.821776
      7          6           0       -1.233894   -1.447013   -1.616745
      8          6           0       -0.312178   -2.286848   -0.705741
      9          1           0       -0.241495   -1.858097    0.299852
     10          1           0        0.698315   -2.346299   -1.119608
     11          1           0       -0.694853   -3.306942   -0.598842
     12          6           0       -2.656367   -1.407236   -1.025613
     13          1           0       -3.323266   -0.827344   -1.670854
     14          1           0       -2.670055   -0.953977   -0.029078
     15          1           0       -3.060063   -2.420293   -0.929733
     16          6           0       -1.284107   -2.083356   -3.017128
     17          1           0       -1.673426   -3.104266   -2.966677
     18          1           0       -0.283831   -2.127263   -3.463401
     19          1           0       -1.928064   -1.499502   -3.681929
     20          1           0        0.091954   -0.079661   -2.382174
     21          1           0       -1.128340    0.440332    0.172312
     22          6           0        0.994949    0.620007   -0.185350
     23          8           0        1.856279    0.318288   -1.005489
     24          6           0        1.378229    0.925018    1.228527
     25          6           0        2.746571    0.926158    1.540250
     26          1           0        3.464785    0.715111    0.758646
     27          6           0        3.149179    1.196469    2.838284
     28         17           0        4.865917    1.198950    3.224129
     29          6           0        2.225644    1.467194    3.848667
     30          1           0        2.565194    1.674993    4.856361
     31          6           0        0.866658    1.463473    3.535771
     32          1           0        0.138876    1.670605    4.313288
     33          6           0        0.440678    1.194271    2.235305
     34          1           0       -0.619717    1.193446    2.016139
 ---------------------------------------------------------------------

 SCF Done:  E(RB3LYP) =  -1096.40640944     A.U. after    1 cycles

 Alpha  occ. eigenvalues -- -101.55673 -19.15043 -14.30928 -10.28255 -10.26178
 Alpha  occ. eigenvalues --  -10.21940 -10.21836 -10.21473 -10.21465 -10.21167
 Alpha  occ. eigenvalues --  -10.21027 -10.20814 -10.17872 -10.16822 -10.16762
 Alpha  occ. eigenvalues --  -10.16651  -9.47308  -7.23694  -7.22743  -7.22707
 Alpha  occ. eigenvalues --   -1.04922  -0.90353  -0.89973  -0.84747  -0.79410
 Alpha  occ. eigenvalues --   -0.77422  -0.74818  -0.72621  -0.68267  -0.68121
 Alpha  occ. eigenvalues --   -0.66303  -0.61925  -0.61342  -0.55683  -0.54308
 Alpha  occ. eigenvalues --   -0.52807  -0.49427  -0.48085  -0.46527  -0.45672
 Alpha  occ. eigenvalues --   -0.44858  -0.44122  -0.43910  -0.42904  -0.42467
 Alpha  occ. eigenvalues --   -0.41397  -0.40220  -0.39383  -0.38205  -0.37983
 Alpha  occ. eigenvalues --   -0.37589  -0.37067  -0.36452  -0.36132  -0.35729
 Alpha  occ. eigenvalues --   -0.34314  -0.33806  -0.32502  -0.32182  -0.31744
 Alpha  occ. eigenvalues --   -0.27043  -0.26580  -0.25727  -0.21988
 Alpha virt. eigenvalues --   -0.06795  -0.01982   0.02379   0.02927   0.07992
 Alpha virt. eigenvalues --    0.10073   0.12253   0.13047   0.13330   0.14710
 Alpha virt. eigenvalues --    0.15176   0.15938   0.16044   0.16534   0.16689

 Mulliken charges:
               1
     1  C   -0.446056
     2  H    0.154898
     3  H    0.163128
     4  H    0.157636
     5  C   -0.062521
     6  N   -0.597033
     7  C    0.219612
     8  C   -0.460451
     9  H    0.143186
    10  H    0.146161
    11  H    0.145433
    12  C   -0.448567
    13  H    0.144239
    14  H    0.148872
    15  H    0.146702
    16  C   -0.459189
    17  H    0.148405
    18  H    0.146035
    19  H    0.145872
    20  H    0.320635
    21  H    0.163131
    22  C    0.422174
    23  O   -0.524889
    24  C    0.080703
    25  C   -0.154711
    26  H    0.177525
    27  C   -0.076198
    28  Cl  -0.035810
    29  C   -0.119214
    30  H    0.181973
    31  C   -0.146334
    32  H    0.173320
    33  C   -0.175115
    34  H    0.176449
 Sum of Mulliken charges =   0.00000

 Dipole moment (field-independent basis, Debye):
    X=             -3.4232    Y=              0.4007    Z=              3.0912  Tot=              4.6297
 Quadrupole moment (field-independent basis, Debye-Ang):
   XX=           -116.6108   YY=           -101.1329   ZZ=            -97.0801
   XY=             -1.2917   XZ=             -4.7679   YZ=              5.4665

  Exact polarizability: 240.517   1.401 144.799  20.291  29.151 238.702
 Approx polarizability: 267.342  -3.533 153.971   6.415  30.633 265.098

                      1                      2                      3
                      A                      A                      A
 Frequencies --     24.4978                40.4647                44.9562
 Red. masses --      5.8690                 3.8381                 3.0185
 Frc consts  --      0.0021                 0.0037                 0.0036
 IR Inten    --      0.0309                 0.3334                 1.4855

                      4                      5                      6
                      A                      A                      A
 Frequencies --     82.0745               119.7341               145.4613
 Red. masses --      4.3263                 4.3389                 5.9609
 Frc consts  --      0.0172                 0.0366                 0.0743
 IR Inten    --      3.0514                 0.6118                 2.4644

                      7                      8                      9
                      A                      A                      A
 Frequencies --    157.4327               191.5297               206.7692
 Red. masses --      3.4295                 4.7596                 1.8276
 Frc consts  --      0.0501                 0.1029                 0.0460
 IR Inten    --      1.8260                 0.6258                 0.0721

                     10                     11                     12
                      A                      A                      A
 Frequencies --    219.4279               224.4655               231.5122
 Red. masses --      1.5832                 2.1950                 1.1361
 Frc consts  --      0.0449                 0.0652                 0.0359
 IR Inten    --      0.8190                 5.9144                 0.5276

                     13                     14                     15
                      A                      A                      A
 Frequencies --    262.0945               269.7230               283.5988
 Red. masses --      1.1068                 1.1774                 2.5135
 Frc consts  --      0.0448                 0.0505                 0.1191
 IR Inten    --      0.1249                 0.4339                 5.5007

                     16                     17                     18
                      A                      A                      A
 Frequencies --    324.1542               345.9181               362.7675
 Red. masses --      2.9247                 2.8460                 2.5688
 Frc consts  --      0.1811                 0.2006                 0.1992
 IR Inten    --      7.1718                 1.2630                11.4256

                     19                     20                     21
                      A                      A                      A
 Frequencies --    369.7225               413.6097               436.0667
 Red. masses --      4.0819                 9.8367                 2.6936
 Frc consts  --      0.3288                 0.9915                 0.3018
 IR Inten    --      7.0914                13.9764                14.8613

                     22                     23                     24
                      A                      A                      A
 Frequencies --    439.9146               454.0469               487.4438
 Red. masses --      2.9225                 2.7272                 3.0290
 Frc consts  --      0.3332                 0.3313                 0.4240
 IR Inten    --      8.3941                 6.9533                 3.7753

                     25                     26                     27
                      A                      A                      A
 Frequencies --    513.9381               537.0037               659.1271
 Red. masses --      4.8879                 3.9700                 5.6229
 Frc consts  --      0.7607                 0.6745                 1.4393
 IR Inten    --      4.4114                 5.9340                 0.6671

                     28                     29                     30
                      A                      A                      A
 Frequencies --    684.3519               711.3783               728.6797
 Red. masses --      3.1606                 3.9116                 3.1193
 Frc consts  --      0.8721                 1.1663                 0.9758
 IR Inten    --      5.3034                35.9461                95.8919

                     31                     32                     33
                      A                      A                      A
 Frequencies --    752.9093               774.3762               818.0305
 Red. masses --      2.6115                 3.6084                 1.6057
 Frc consts  --      0.8722                 1.2749                 0.6331
 IR Inten    --     28.8372               150.4088                23.6293

                     34                     35                     36
                      A                      A                      A
 Frequencies --    822.2649               899.5849               916.5561
 Red. masses --      2.4393                 1.6763                 1.7185
 Frc consts  --      0.9717                 0.7992                 0.8506
 IR Inten    --     46.7051                19.3226                 0.4840

                     37                     38                     39
                      A                      A                      A
 Frequencies --    931.1241               934.2927               942.8062
 Red. masses --      1.3767                 1.5700                 1.3871
 Frc consts  --      0.7032                 0.8074                 0.7264
 IR Inten    --      8.0931                12.5134                 4.3487

                     40                     41                     42
                      A                      A                      A
 Frequencies --    964.5259               982.0922              1000.7614
 Red. masses --      1.2112                 2.1756                 3.5453
 Frc consts  --      0.6639                 1.2363                 2.0920
 IR Inten    --      0.1626                 1.6210                36.8424

                     43                     44                     45
                      A                      A                      A
 Frequencies --   1003.3318              1019.3996              1042.6519
 Red. masses --      1.4141                 4.3102                 1.4594
 Frc consts  --      0.8387                 2.6390                 0.9347
 IR Inten    --      3.2436                18.3926                 4.9686

                     46                     47                     48
                      A                      A                      A
 Frequencies --   1054.7495              1085.0154              1102.6097
 Red. masses --      1.4256                 1.5966                 2.0338
 Frc consts  --      0.9344                 1.1074                 1.4568
 IR Inten    --      7.4272                31.1707                36.1162

                     49                     50                     51
                      A                      A                      A
 Frequencies --   1107.2659              1125.7817              1168.6262
 Red. masses --      2.8362                 1.6015                 2.6885
 Frc consts  --      2.0488                 1.1959                 2.1633
 IR Inten    --     12.0717                 5.8074               138.4276

                     52                     53                     54
                      A                      A                      A
 Frequencies --   1206.1215              1231.4864              1237.7736
 Red. masses --      1.1884                 2.2792                 2.5470
 Frc consts  --      1.0186                 2.0365                 2.2991
 IR Inten    --      3.2124               151.2794               150.3051

                     55                     56                     57
                      A                      A                      A
 Frequencies --   1259.4296              1281.5707              1308.7088
 Red. masses --      2.7267                 2.7810                 1.5057
 Frc consts  --      2.5482                 2.6912                 1.5194
 IR Inten    --     77.2559                99.7038                26.2188

                     58                     59                     60
                      A                      A                      A
 Frequencies --   1316.0669              1361.4082              1381.8722
 Red. masses --      1.5403                 5.8823                 1.3213
 Frc consts  --      1.5718                 6.4235                 1.4866
 IR Inten    --     10.0477                 7.4189                11.1925

                     61                     62                     63
                      A                      A                      A
 Frequencies --   1411.6945              1415.9604              1419.8686
 Red. masses --      1.2512                 1.2344                 1.2932
 Frc consts  --      1.4691                 1.4582                 1.5361
 IR Inten    --      8.1107                 4.2143                10.6739

                     64                     65                     66
                      A                      A                      A
 Frequencies --   1436.0385              1465.8067              1494.3618
 Red. masses --      1.2422                 2.6837                 1.0879
 Frc consts  --      1.5093                 3.3973                 1.4314
 IR Inten    --      9.9802                87.1157                 9.6946

                     67                     68                     69
                      A                      A                      A
 Frequencies --   1501.3697              1502.9695              1506.5506
 Red. masses --      1.0657                 1.0524                 1.0465
 Frc consts  --      1.4153                 1.4006                 1.3995
 IR Inten    --      5.8911                 1.5981                 0.2676

                     70                     71                     72
                      A                      A                      A
 Frequencies --   1507.7492              1513.8229              1516.8476
 Red. masses --      1.0592                 1.1156                 1.4343
 Frc consts  --      1.4187                 1.5063                 1.9444
 IR Inten    --     24.8950                11.2585                12.4502

                     73                     74                     75
                      A                      A                      A
 Frequencies --   1520.0313              1528.5404              1544.5977
 Red. masses --      1.2897                 1.0591                 1.2293
 Frc consts  --      1.7557                 1.4579                 1.7280
 IR Inten    --      3.9066                 6.9312                18.4605

                     76                     77                     78
                      A                      A                      A
 Frequencies --   1624.2113              1647.2976              1740.3871
 Red. masses --      5.8688                 6.0371                11.5431
 Frc consts  --      9.1219                 9.6520                20.5998
 IR Inten    --     57.7440                15.0175               320.8082

                     79                     80                     81
                      A                      A                      A
 Frequencies --   3052.9354              3053.9062              3062.2479
 Red. masses --      1.0357                 1.0351                 1.0369
 Frc consts  --      5.6873                 5.6878                 5.7286
 IR Inten    --     57.9033                44.4706                 8.7746

                     82                     83                     84
                      A                      A                      A
 Frequencies --   3068.6848              3116.8673              3119.4836
 Red. masses --      1.0343                 1.1016                 1.0997
 Frc consts  --      5.7384                 6.3056                 6.3050
 IR Inten    --     34.5570                15.9866                25.1515

                     85                     86                     87
                      A                      A                      A
 Frequencies --   3120.5212              3126.8012              3130.6915
 Red. masses --      1.0977                 1.0914                 1.1028
 Frc consts  --      6.2977                 6.2866                 6.3681
 IR Inten    --     96.8701                36.7082                25.2995

                     88                     89                     90
                      A                      A                      A
 Frequencies --   3133.5962              3137.5780              3143.4320
 Red. masses --      1.1024                 1.1025                 1.1003
 Frc consts  --      6.3777                 6.3948                 6.4056
 IR Inten    --     45.9653               100.0678                82.2940

                     91                     92                     93
                      A                      A                      A
 Frequencies --   3153.3307              3218.2763              3240.8046
 Red. masses --      1.1037                 1.0888                 1.0919
 Frc consts  --      6.4662                 6.6444                 6.7565
 IR Inten    --     38.7776                 9.0608                 8.2655

                     94                     95                     96
                      A                      A                      A
 Frequencies --   3245.2533              3254.6677              3473.0842
 Red. masses --      1.0944                 1.0910                 1.0727
 Frc consts  --      6.7906                 6.8088                 7.6236
 IR Inten    --     13.3503                 3.7932                14.3275

 - Thermochemistry -
 -------------------
 Temperature   298.150 Kelvin.  Pressure   1.00000 Atm.
 Atom     1 has atomic number  6 and mass  12.00000

 Molecular mass:   239.10769 amu.
 Principal axes and moments of inertia in atomic units:
                           1         2         3
     Eigenvalues --  1812.627588662.990519041.68853
           X            0.66797   0.71904   0.19182
           Y            0.32066  -0.51070   0.79772
           Z            0.67156  -0.47135  -0.57170
 This molecule is an asymmetric top.
 Rotational symmetry number  1.
 Warning -- assumption of classical behavior for rotation
           may cause significant error
 Rotational temperatures (Kelvin)      0.04778     0.01000     0.00958
 Rotational constants (GHZ):           0.99565     0.20833     0.19960
 Zero-point vibrational energy     754576.4 (Joules/Mol)
                                  180.34809 (Kcal/Mol)
 Warning -- explicit consideration of  26 degrees of freedom as
           vibrations may cause significant error
 Vibrational temperatures:     35.25    58.22    64.68   118.09   172.27
          (Kelvin)            209.29   226.51   275.57   297.49   315.71
                              322.96   333.09   377.10   388.07   408.04
                              466.39   497.70   521.94   531.95   595.09
                              627.40   632.94   653.27   701.32   739.44
                              772.63   948.34   984.63  1023.51  1048.41
                             1083.27  1114.15  1176.96  1183.06  1294.30
                             1318.72  1339.68  1344.24  1356.49  1387.74
                             1413.01  1439.87  1443.57  1466.69  1500.14
                             1517.55  1561.10  1586.41  1593.11  1619.75
                             1681.39  1735.34  1771.83  1780.88  1812.04
                             1843.89  1882.94  1893.53  1958.76  1988.21
                             2031.11  2037.25  2042.87  2066.14  2108.97
                             2150.05  2160.14  2162.44  2167.59  2169.31
                             2178.05  2182.41  2186.99  2199.23  2222.33
                             2336.88  2370.09  2504.03  4392.49  4393.89
                             4405.89  4415.15  4484.48  4488.24  4489.73
                             4498.77  4504.37  4508.55  4514.27  4522.70
                             4536.94  4630.38  4662.79  4669.20  4682.74
                             4996.99

 Zero-point correction=                           0.287403 (Hartree/Particle)
 Thermal correction to Energy=                    0.304423
 Thermal correction to Enthalpy=                  0.305368
 Thermal correction to Gibbs Free Energy=         0.242060
 Sum of electronic and zero-point Energies=          -1096.119006
 Sum of electronic and thermal Energies=             -1096.101986
 Sum of electronic and thermal Enthalpies=           -1096.101042
 Sum of electronic and thermal Free Energies=        -1096.164350

                     E (Thermal)             CV                S
                      KCal/Mol        Cal/Mol-Kelvin    Cal/Mol-Kelvin
 Total                  191.029             64.380            133.242
 Electronic               0.000              0.000              0.000
 Translational            0.889              2.981             42.317
 Rotational               0.889              2.981             33.318
 Vibrational            189.251             58.419             57.608
 Vibration     1          0.593              1.985              6.231
 Vibration     2          0.594              1.981              5.236
 Vibration     3          0.595              1.979              5.028
 Vibration     4          0.600              1.961              3.841
 Vibration     5          0.609              1.933              3.105
 Vibration     6          0.617              1.908              2.731
 Vibration     7          0.621              1.894              2.580
 Vibration     8          0.634              1.852              2.213
 Vibration     9          0.641              1.830              2.072
 Vibration    10          0.647              1.811              1.964
 Vibration    11          0.649              1.804              1.923
 Vibration    12          0.653              1.793              1.867
 Vibration    13          0.669              1.742              1.648
 Vibration    14          0.674              1.729              1.598
 Vibration    15          0.682              1.704              1.512
 Vibration    16          0.709              1.627              1.289
 Vibration    17          0.724              1.584              1.185
 Vibration    18          0.737              1.549              1.110
 Vibration    19          0.742              1.534              1.081
 Vibration    20          0.777              1.441              0.914
 Vibration    21          0.797              1.392              0.839
 Vibration    22          0.800              1.383              0.827
 Vibration    23          0.812              1.352              0.784
 Vibration    24          0.843              1.278              0.690
 Vibration    25          0.869              1.219              0.624
 Vibration    26          0.892              1.168              0.572

 Optimization completed.
    -- Stationary point found.
 Normal termination of Gaussian 16 at Wed Apr 28 07:17:58 2021.
