 Gaussian 09, Revision D.01,

 -----------------
 #p b3lyp/6-31G(d)
 -----------------

 ---------------------------------------------
 SET_328_BBB29_conf1.geo_120_180_285.n.pdb.xyz
 ---------------------------------------------
 Symbolic Z-matrix:
 Charge =  0 Multiplicity = 1

 SCF Done:  E(RB3LYP) =  -1548.50462326     A.U. after   16 cycles
 Normal termination of Gaussian 09 at Sun Jan 24 23:15:12 2021.
 Gaussian 09:  AM64L-G09RevD.01 24-Apr-2013

 ----------------------------------------------------------------------
 #p b3lyp/6-31G(d) scrf=(iefpcm,read,solvent=Water) geom=allcheck guess
 =read
 ----------------------------------------------------------------------

 Structure from the checkpoint file:  "SET_328_BBB29_conf1.geo_120_180_285.n.pdb.xyz.mst.n.w.chk"
 ---------------------------------------------
 SET_328_BBB29_conf1.geo_120_180_285.n.pdb.xyz
 ---------------------------------------------
 Charge =  0 Multiplicity = 1

                         Standard orientation:
 ---------------------------------------------------------------------
 Center     Atomic      Atomic             Coordinates (Angstroms)
 Number     Number       Type             X           Y           Z
 ---------------------------------------------------------------------
      1          7           0        1.622444    4.580498    0.362415
      2          1           0        1.673241    5.583294    0.534505
      3          1           0        1.481582    4.497445   -0.643348
      4          6           0        0.445124    4.041779    1.061622
      5          1           0       -0.509707    4.372962    0.623287
      6          1           0        0.464414    4.420587    2.088812
      7          6           0        0.473555    2.512835    1.108397
      8          1           0       -0.383400    2.154221    1.689707
      9          1           0        1.383238    2.182910    1.624590
     10          6           0        0.440374    1.882348   -0.286572
     11          1           0        1.299915    2.218724   -0.855685
     12          1           0       -0.444226    2.226045   -0.833396
     13          7           0        0.458537    0.412134   -0.234665
     14          6           0       -0.743443   -0.267867   -0.038688
     15          6           0       -1.935201    0.224718   -0.566645
     16          1           0       -1.949242    1.142157   -1.143117
     17          6           0       -3.117801   -0.467986   -0.358582
     18         17           0       -4.607986    0.198345   -1.022608
     19          6           0       -3.163229   -1.672691    0.333936
     20          1           0       -4.098245   -2.198043    0.478587
     21          6           0       -1.968231   -2.178108    0.835762
     22          1           0       -1.967278   -3.115968    1.380648
     23          6           0       -0.778263   -1.478191    0.677001
     24         16           0        0.706358   -2.056085    1.473519
     25          6           0        1.884417   -1.535522    0.241361
     26          6           0        1.661303   -0.325130   -0.449867
     27          6           0        2.651872    0.086393   -1.374593
     28          1           0        2.506743    0.986424   -1.956250
     29          6           0        3.820073   -0.659401   -1.561537
     30          1           0        4.564009   -0.308012   -2.268159
     31          6           0        4.019522   -1.852614   -0.867176
     32          1           0        4.919906   -2.436280   -1.017816
     33          6           0        3.036777   -2.297337    0.020368
     34          1           0        3.165111   -3.228759    0.562699
 ---------------------------------------------------------------------

 SCF Done:  E(RB3LYP) =  -1548.51622031     A.U. after   11 cycles

 The electronic state is 1-A.
 Alpha  occ. eigenvalues -- -101.55439 -88.89733 -14.37077 -14.30456 -10.25663
 Alpha  occ. eigenvalues --  -10.24739 -10.24587 -10.22815 -10.22723 -10.22099
 Alpha  occ. eigenvalues --  -10.20644 -10.20349 -10.20249 -10.20141 -10.20031
 Alpha  occ. eigenvalues --  -10.19775 -10.19576 -10.19235 -10.17870  -9.47071
 Alpha  occ. eigenvalues --   -7.95785  -7.23452  -7.22508  -7.22475  -5.92284
 Alpha  occ. eigenvalues --   -5.91933  -5.91289  -0.97130  -0.89457  -0.87288
 Alpha  occ. eigenvalues --   -0.86161  -0.84901  -0.80041  -0.77253  -0.76780
 Alpha  occ. eigenvalues --   -0.74655  -0.73282  -0.69020  -0.67109  -0.63409
 Alpha  occ. eigenvalues --   -0.61545  -0.60665  -0.57640  -0.56693  -0.54359
 Alpha  occ. eigenvalues --   -0.51877  -0.48925  -0.48522  -0.48319  -0.47277
 Alpha  occ. eigenvalues --   -0.46229  -0.45800  -0.45022  -0.44222  -0.42960
 Alpha  occ. eigenvalues --   -0.41768  -0.41057  -0.40541  -0.39837  -0.38878
 Alpha  occ. eigenvalues --   -0.38498  -0.36781  -0.35834  -0.35562  -0.35314
 Alpha  occ. eigenvalues --   -0.34454  -0.34176  -0.32968  -0.31981  -0.30615
 Alpha  occ. eigenvalues --   -0.29591  -0.26418  -0.25546  -0.23554  -0.23044
 Alpha  occ. eigenvalues --   -0.19174
 Alpha virt. eigenvalues --   -0.02445  -0.01806  -0.00977   0.00309   0.02148
 Alpha virt. eigenvalues --    0.03610   0.07385   0.08829   0.11029   0.11503
 Alpha virt. eigenvalues --    0.12594   0.13662   0.13800   0.14073   0.14461

 Mulliken charges:
               1
     1  N   -0.778451
     2  H    0.331452
     3  H    0.330881
     4  C   -0.147174
     5  H    0.126911
     6  H    0.147157
     7  C   -0.234434
     8  H    0.142532
     9  H    0.142611
    10  C   -0.177233
    11  H    0.174859
    12  H    0.168747
    13  N   -0.596285
    14  C    0.329500
    15  C   -0.172932
    16  H    0.182275
    17  C   -0.091858
    18  Cl  -0.046969
    19  C   -0.135195
    20  H    0.171090
    21  C   -0.190056
    22  H    0.171885
    23  C   -0.123972
    24  S    0.133772
    25  C   -0.133199
    26  C    0.304280
    27  C   -0.179507
    28  H    0.165454
    29  C   -0.160264
    30  H    0.156752
    31  C   -0.139374
    32  H    0.154076
    33  C   -0.189971
    34  H    0.162639
 Sum of Mulliken charges =   0.00000

 Dipole moment (field-independent basis, Debye):
    X=              1.1024    Y=              2.8212    Z=             -1.5219  Tot=              3.3898
 Quadrupole moment (field-independent basis, Debye-Ang):
   XX=           -129.3333   YY=           -104.7230   ZZ=           -125.4345
   XY=             -0.9244   XZ=             -9.6702   YZ=             -6.0531

 Normal termination of Gaussian 09 at Sun Jan 24 23:19:00 2021.
