 Gaussian 09, Revision D.01,

 -----------------
 #p b3lyp/6-31G(d)
 -----------------

 ----------------------------------------------
 SET_328_BBB256_conf1.geo_075_180_090.n.pdb.xyz
 ----------------------------------------------
 Symbolic Z-matrix:
 Charge =  0 Multiplicity = 1

 SCF Done:  E(RB3LYP) =  -421.566907654     A.U. after   14 cycles
 Normal termination of Gaussian 09 at Sun Jan 24 22:58:26 2021.
 Gaussian 09:  AM64L-G09RevD.01 24-Apr-2013

 ----------------------------------------------------------------------
 #p b3lyp/6-31G(d) scrf=(iefpcm,read,solvent=Water) geom=allcheck guess
 =read
 ----------------------------------------------------------------------

 Structure from the checkpoint file:  "SET_328_BBB256_conf1.geo_075_180_090.n.pdb.xyz.mst.n.w.chk"
 ----------------------------------------------
 SET_328_BBB256_conf1.geo_075_180_090.n.pdb.xyz
 ----------------------------------------------
 Charge =  0 Multiplicity = 1

                         Standard orientation:
 ---------------------------------------------------------------------
 Center     Atomic      Atomic             Coordinates (Angstroms)
 Number     Number       Type             X           Y           Z
 ---------------------------------------------------------------------
      1          6           0        3.777957    0.655061   -0.257174
      2          1           0        3.370657    0.816974   -1.259977
      3          1           0        4.851755    0.476146   -0.359494
      4          1           0        3.631985    1.587759    0.314231
      5          7           0        3.146558   -0.510246    0.357972
      6          1           0        3.623442   -0.701073    1.235140
      7          6           0        1.730603   -0.294765    0.652575
      8          1           0        1.544817    0.689548    1.115477
      9          1           0        1.412680   -1.056290    1.372062
     10          6           0        0.864442   -0.411362   -0.611606
     11          1           0        1.000830   -1.407346   -1.042358
     12          1           0        1.210079    0.320065   -1.349857
     13          6           0       -0.595882   -0.165150   -0.329292
     14          7           0       -0.974998    1.116132   -0.162603
     15          6           0       -2.261523    1.362601    0.119441
     16          1           0       -2.531572    2.408297    0.243402
     17          6           0       -3.231384    0.369816    0.248185
     18          1           0       -4.259383    0.632132    0.473141
     19          6           0       -2.838229   -0.956332    0.075176
     20          1           0       -3.556770   -1.763786    0.161982
     21          6           0       -1.502731   -1.226351   -0.216032
     22          1           0       -1.158960   -2.244724   -0.358978
 ---------------------------------------------------------------------

 SCF Done:  E(RB3LYP) =  -421.576004938     A.U. after   11 cycles

 The electronic state is 1-A.
 Alpha  occ. eigenvalues --  -14.33116 -14.31294 -10.22837 -10.22268 -10.20587
 Alpha  occ. eigenvalues --  -10.20357 -10.19528 -10.19482 -10.19472 -10.18104
 Alpha  occ. eigenvalues --   -0.94176  -0.89494  -0.80078  -0.78687  -0.72530
 Alpha  occ. eigenvalues --   -0.66996  -0.62911  -0.61655  -0.57915  -0.51514
 Alpha  occ. eigenvalues --   -0.49299  -0.48155  -0.45787  -0.44592  -0.43512
 Alpha  occ. eigenvalues --   -0.41520  -0.40285  -0.39616  -0.38686  -0.36968
 Alpha  occ. eigenvalues --   -0.35803  -0.34572  -0.33352  -0.28544  -0.26046
 Alpha  occ. eigenvalues --   -0.25494  -0.22175
 Alpha virt. eigenvalues --   -0.02482  -0.00842   0.09626   0.10229   0.11845
 Alpha virt. eigenvalues --    0.13070   0.14609   0.15421   0.16203   0.16920
 Alpha virt. eigenvalues --    0.17806   0.17900   0.18923   0.19807   0.21476

 Mulliken charges:
               1
     1  C   -0.315747
     2  H    0.156448
     3  H    0.153942
     4  H    0.127987
     5  N   -0.581529
     6  H    0.336968
     7  C   -0.125853
     8  H    0.124175
     9  H    0.143344
    10  C   -0.322437
    11  H    0.150760
    12  H    0.156814
    13  C    0.297085
    14  N   -0.517084
    15  C    0.025368
    16  H    0.155432
    17  C   -0.154870
    18  H    0.159493
    19  C   -0.111570
    20  H    0.166633
    21  C   -0.181679
    22  H    0.156318
 Sum of Mulliken charges =   0.00000

 Dipole moment (field-independent basis, Debye):
    X=             -1.2323    Y=             -1.3263    Z=              1.3230  Tot=              2.2423
 Quadrupole moment (field-independent basis, Debye-Ang):
   XX=            -47.9758   YY=            -59.6287   ZZ=            -60.1033
   XY=              3.3560   XZ=              2.2265   YZ=             -0.3178

 Normal termination of Gaussian 09 at Sun Jan 24 22:59:17 2021.
