 Gaussian 09, Revision D.01,

 -----------------
 #p b3lyp/6-31G(d)
 -----------------

 ---------------------------------------------
 SET_328_BBB29_conf1.geo_285_180_300.n.pdb.xyz
 ---------------------------------------------
 Symbolic Z-matrix:
 Charge =  0 Multiplicity = 1

 SCF Done:  E(RB3LYP) =  -1548.51015420     A.U. after   16 cycles
 Normal termination of Gaussian 09 at Mon Mar 29 22:49:52 2021.
 Gaussian 09:  AM64L-G09RevD.01 24-Apr-2013

 ----------------------------------------------------------------------
 #p b3lyp/6-31G(d) scrf=(iefpcm,read,solvent=Water) geom=allcheck guess
 =read
 ----------------------------------------------------------------------

 Structure from the checkpoint file:  "SET_328_BBB29_conf1.geo_285_180_300.n.pdb.xyz.mst.n.w.chk"
 ---------------------------------------------
 SET_328_BBB29_conf1.geo_285_180_300.n.pdb.xyz
 ---------------------------------------------
 Charge =  0 Multiplicity = 1

                         Standard orientation:
 ---------------------------------------------------------------------
 Center     Atomic      Atomic             Coordinates (Angstroms)
 Number     Number       Type             X           Y           Z
 ---------------------------------------------------------------------
      1          7           0       -2.730003    3.096813    0.317747
      2          1           0       -3.191270    2.857821   -0.558637
      3          1           0       -3.356546    3.756485    0.783451
      4          6           0       -1.454907    3.764128    0.013214
      5          1           0       -1.124340    4.287053    0.917667
      6          1           0       -1.538462    4.523678   -0.778551
      7          6           0       -0.401046    2.727896   -0.389021
      8          1           0        0.468360    3.239672   -0.811188
      9          1           0       -0.803537    2.098194   -1.190200
     10          6           0        0.013070    1.856759    0.813145
     11          1           0       -0.857192    1.712369    1.455176
     12          1           0        0.765817    2.375256    1.410943
     13          7           0        0.547167    0.523742    0.502538
     14          6           0       -0.371313   -0.508994    0.238250
     15          6           0       -1.740635   -0.232896    0.063142
     16          1           0       -2.123445    0.778588    0.138622
     17          6           0       -2.630741   -1.275005   -0.188656
     18         17           0       -4.342718   -0.883937   -0.380796
     19          6           0       -2.224225   -2.597137   -0.307290
     20          1           0       -2.933023   -3.387644   -0.516138
     21          6           0       -0.866527   -2.870733   -0.135443
     22          1           0       -0.513031   -3.894107   -0.204493
     23          6           0        0.042260   -1.857081    0.160402
     24         16           0        1.707239   -2.308017    0.594898
     25          6           0        2.551017   -0.835551    0.055448
     26          6           0        1.904987    0.416798    0.124216
     27          6           0        2.671208    1.555433   -0.177243
     28          1           0        2.217328    2.534261   -0.141506
     29          6           0        4.018661    1.451008   -0.527723
     30          1           0        4.576406    2.355618   -0.743437
     31          6           0        4.633012    0.205481   -0.617561
     32          1           0        5.675588    0.118086   -0.901729
     33          6           0        3.886128   -0.937606   -0.334467
     34          1           0        4.341882   -1.919007   -0.389278
 ---------------------------------------------------------------------

 SCF Done:  E(RB3LYP) =  -1548.52036285     A.U. after   11 cycles

 The electronic state is 1-A.
 Alpha  occ. eigenvalues -- -101.55262 -88.89786 -14.37763 -14.30934 -10.25483
 Alpha  occ. eigenvalues --  -10.25102 -10.24483 -10.22957 -10.22679 -10.21864
 Alpha  occ. eigenvalues --  -10.20573 -10.20488 -10.19987 -10.19897 -10.19853
 Alpha  occ. eigenvalues --  -10.19414 -10.19358 -10.18996 -10.18165  -9.46884
 Alpha  occ. eigenvalues --   -7.95854  -7.23264  -7.22323  -7.22288  -5.92354
 Alpha  occ. eigenvalues --   -5.91996  -5.91357  -0.97417  -0.89146  -0.87593
 Alpha  occ. eigenvalues --   -0.86278  -0.84833  -0.79987  -0.77109  -0.76742
 Alpha  occ. eigenvalues --   -0.74595  -0.73381  -0.68994  -0.66983  -0.63523
 Alpha  occ. eigenvalues --   -0.61115  -0.60503  -0.59011  -0.56357  -0.54448
 Alpha  occ. eigenvalues --   -0.51494  -0.49034  -0.48466  -0.48094  -0.47387
 Alpha  occ. eigenvalues --   -0.46203  -0.45300  -0.44270  -0.43874  -0.43212
 Alpha  occ. eigenvalues --   -0.42723  -0.40389  -0.39925  -0.39620  -0.39120
 Alpha  occ. eigenvalues --   -0.38231  -0.37777  -0.36695  -0.35542  -0.35162
 Alpha  occ. eigenvalues --   -0.34169  -0.33992  -0.32939  -0.31785  -0.31328
 Alpha  occ. eigenvalues --   -0.29785  -0.26370  -0.25581  -0.23921  -0.23001
 Alpha  occ. eigenvalues --   -0.18783
 Alpha virt. eigenvalues --   -0.02614  -0.01601  -0.00888   0.01324   0.02258
 Alpha virt. eigenvalues --    0.03548   0.07433   0.09092   0.10958   0.12215
 Alpha virt. eigenvalues --    0.12872   0.13723   0.14226   0.14765   0.14972

 Mulliken charges:
               1
     1  N   -0.760046
     2  H    0.332441
     3  H    0.336316
     4  C   -0.143831
     5  H    0.148600
     6  H    0.133592
     7  C   -0.275370
     8  H    0.155905
     9  H    0.154493
    10  C   -0.176599
    11  H    0.183717
    12  H    0.174210
    13  N   -0.600755
    14  C    0.321856
    15  C   -0.194238
    16  H    0.212604
    17  C   -0.101816
    18  Cl  -0.051830
    19  C   -0.137795
    20  H    0.169470
    21  C   -0.193324
    22  H    0.170363
    23  C   -0.128166
    24  S    0.139031
    25  C   -0.136416
    26  C    0.325734
    27  C   -0.187169
    28  H    0.159739
    29  C   -0.164520
    30  H    0.154594
    31  C   -0.141014
    32  H    0.151822
    33  C   -0.192821
    34  H    0.161221
 Sum of Mulliken charges =   0.00000

 Dipole moment (field-independent basis, Debye):
    X=              0.4701    Y=              4.8613    Z=             -1.1351  Tot=              5.0142
 Quadrupole moment (field-independent basis, Debye-Ang):
   XX=           -121.5188   YY=           -102.4452   ZZ=           -129.3492
   XY=             -4.9535   XZ=             -1.2293   YZ=              1.2186

 Normal termination of Gaussian 09 at Mon Mar 29 22:53:38 2021.
