 Gaussian 09, Revision D.01,

 -----------------
 #p b3lyp/6-31G(d)
 -----------------

 ----------------------------------------------
 SET_328_BBB301_conf1.geo_165_105_045.n.pdb.xyz
 ----------------------------------------------
 Symbolic Z-matrix:
 Charge =  0 Multiplicity = 1

 SCF Done:  E(RB3LYP) =  -788.430615896     A.U. after   14 cycles
 Normal termination of Gaussian 09 at Mon Mar 29 22:50:11 2021.
 Gaussian 09:  AM64L-G09RevD.01 24-Apr-2013

 ----------------------------------------------------------------------
 #p b3lyp/6-31G(d) scrf=(iefpcm,read,solvent=Water) geom=allcheck guess
 =read
 ----------------------------------------------------------------------

 Structure from the checkpoint file:  "SET_328_BBB301_conf1.geo_165_105_045.n.pdb.xyz.mst.n.w.chk"
 ----------------------------------------------
 SET_328_BBB301_conf1.geo_165_105_045.n.pdb.xyz
 ----------------------------------------------
 Charge =  0 Multiplicity = 1

                         Standard orientation:
 ---------------------------------------------------------------------
 Center     Atomic      Atomic             Coordinates (Angstroms)
 Number     Number       Type             X           Y           Z
 ---------------------------------------------------------------------
      1          6           0        4.115016   -0.771875    1.377870
      2          1           0        4.178284   -1.729724    0.852333
      3          1           0        3.226323   -0.790932    2.015713
      4          1           0        4.987002   -0.681329    2.032522
      5          6           0        4.081518    0.391870    0.376585
      6          6           0        3.963077    1.732236    1.124480
      7          1           0        3.953881    2.569769    0.420015
      8          1           0        4.806066    1.876879    1.807567
      9          1           0        3.042598    1.778647    1.715639
     10          6           0        5.369917    0.379348   -0.456548
     11          1           0        5.468126   -0.563102   -1.003602
     12          1           0        6.249282    0.499463    0.184680
     13          1           0        5.374382    1.197298   -1.186210
     14          7           0        2.963129    0.186996   -0.581779
     15          1           0        3.061241    0.876820   -1.327656
     16          6           0        1.597459    0.273609   -0.059697
     17          1           0        1.274719    1.294317    0.189541
     18          1           0        1.533462   -0.324223    0.854165
     19          6           0        0.640294   -0.336015   -1.105868
     20          8           0        1.154192   -1.606011   -1.498129
     21          1           0        2.127788   -1.479674   -1.430282
     22          1           0        0.611351    0.344429   -1.973315
     23          6           0       -0.768478   -0.486427   -0.576024
     24          6           0       -1.726411    0.505598   -0.810952
     25          1           0       -1.462967    1.367061   -1.419362
     26          6           0       -3.024216    0.417372   -0.303558
     27          6           0       -4.062052    1.448827   -0.664882
     28          8           0       -4.862921    1.741986    0.496836
     29          1           0       -5.678394    2.178154    0.192898
     30          1           0       -4.710157    1.069235   -1.466224
     31          1           0       -3.574523    2.357426   -1.034434
     32          6           0       -3.368473   -0.697667    0.485845
     33          8           0       -4.615042   -0.839227    1.017822
     34          1           0       -5.047291    0.046293    0.955399
     35          6           0       -2.421993   -1.700659    0.726301
     36          1           0       -2.709250   -2.554788    1.331221
     37          6           0       -1.137896   -1.595380    0.196118
     38          1           0       -0.410237   -2.379988    0.371606
 ---------------------------------------------------------------------

 SCF Done:  E(RB3LYP) =  -788.452295887     A.U. after   11 cycles

 The electronic state is 1-A.
 Alpha  occ. eigenvalues --  -19.16331 -19.16011 -19.13046 -14.32065 -10.24575
 Alpha  occ. eigenvalues --  -10.24141 -10.23230 -10.22057 -10.20315 -10.19326
 Alpha  occ. eigenvalues --  -10.18996 -10.18733 -10.18611 -10.18365 -10.16986
 Alpha  occ. eigenvalues --  -10.16878 -10.16810  -1.05048  -1.02296  -1.00857
 Alpha  occ. eigenvalues --   -0.90415  -0.85239  -0.78522  -0.76917  -0.75361
 Alpha  occ. eigenvalues --   -0.69612  -0.68318  -0.68147  -0.67608  -0.62124
 Alpha  occ. eigenvalues --   -0.60782  -0.57021  -0.54926  -0.53518  -0.51609
 Alpha  occ. eigenvalues --   -0.49609  -0.48536  -0.47325  -0.46414  -0.45857
 Alpha  occ. eigenvalues --   -0.44265  -0.43843  -0.43311  -0.42524  -0.42087
 Alpha  occ. eigenvalues --   -0.41241  -0.40237  -0.38963  -0.38363  -0.37542
 Alpha  occ. eigenvalues --   -0.37039  -0.36761  -0.36220  -0.35957  -0.34709
 Alpha  occ. eigenvalues --   -0.33382  -0.32961  -0.32706  -0.32273  -0.31353
 Alpha  occ. eigenvalues --   -0.28802  -0.26365  -0.24812  -0.23182  -0.21205
 Alpha virt. eigenvalues --   -0.00589   0.00843   0.07602   0.08186   0.10818
 Alpha virt. eigenvalues --    0.11417   0.12693   0.12897   0.13378   0.13519
 Alpha virt. eigenvalues --    0.14272   0.14840   0.15372   0.16097   0.17005

 Mulliken charges:
               1
     1  C   -0.451362
     2  H    0.148117
     3  H    0.150212
     4  H    0.148344
     5  C    0.216972
     6  C   -0.455679
     7  H    0.143482
     8  H    0.146740
     9  H    0.150671
    10  C   -0.458215
    11  H    0.148830
    12  H    0.149694
    13  H    0.144942
    14  N   -0.608885
    15  H    0.330944
    16  C   -0.146061
    17  H    0.137371
    18  H    0.153282
    19  C    0.070724
    20  O   -0.693548
    21  H    0.412987
    22  H    0.121741
    23  C    0.140131
    24  C   -0.276618
    25  H    0.142294
    26  C    0.096279
    27  C   -0.120124
    28  O   -0.664514
    29  H    0.459023
    30  H    0.169295
    31  H    0.162634
    32  C    0.288607
    33  O   -0.698428
    34  H    0.445364
    35  C   -0.190599
    36  H    0.142842
    37  C   -0.200915
    38  H    0.143426
 Sum of Mulliken charges =   0.00000

 Dipole moment (field-independent basis, Debye):
    X=              0.4514    Y=              6.0941    Z=             -1.2074  Tot=              6.2289
 Quadrupole moment (field-independent basis, Debye-Ang):
   XX=            -74.6714   YY=           -101.6200   ZZ=           -105.7894
   XY=            -13.7057   XZ=              9.8473   YZ=             -8.6129

 Normal termination of Gaussian 09 at Mon Mar 29 22:53:26 2021.
