 Gaussian 09, Revision D.01,

 -----------------
 #p b3lyp/6-31G(d)
 -----------------

 ---------------------------------------------
 SET_328_BBB20_conf1.geo_090_075_180.n.pdb.xyz
 ---------------------------------------------
 Symbolic Z-matrix:
 Charge =  0 Multiplicity = 1

 SCF Done:  E(RB3LYP) =  -769.345502212     A.U. after   15 cycles
 Normal termination of Gaussian 09 at Mon Mar 29 22:47:58 2021.
 Gaussian 09:  AM64L-G09RevD.01 24-Apr-2013

 ----------------------------------------------------------------------
 #p b3lyp/6-31G(d) scrf=(iefpcm,read,solvent=Water) geom=allcheck guess
 =read
 ----------------------------------------------------------------------

 Structure from the checkpoint file:  "SET_328_BBB20_conf1.geo_090_075_180.n.pdb.xyz.mst.n.w.chk"
 ---------------------------------------------
 SET_328_BBB20_conf1.geo_090_075_180.n.pdb.xyz
 ---------------------------------------------
 Charge =  0 Multiplicity = 1

                         Standard orientation:
 ---------------------------------------------------------------------
 Center     Atomic      Atomic             Coordinates (Angstroms)
 Number     Number       Type             X           Y           Z
 ---------------------------------------------------------------------
      1          7           0       -3.354615    2.849328    1.462517
      2          1           0       -4.031243    2.121720    1.228102
      3          1           0       -3.638131    3.659436    0.914780
      4          6           0       -2.025704    2.417788    1.009697
      5          1           0       -1.745062    1.531063    1.588184
      6          1           0       -1.307150    3.203477    1.276063
      7          6           0       -1.909034    2.116173   -0.491845
      8          1           0       -2.218446    3.004062   -1.056917
      9          1           0       -2.610952    1.317402   -0.759266
     10          6           0       -0.492186    1.760872   -0.955460
     11          1           0        0.179558    2.573907   -0.667740
     12          1           0       -0.464604    1.708594   -2.054023
     13          7           0        0.038833    0.538602   -0.331737
     14          6           0       -0.746048   -0.646097   -0.482317
     15          6           0       -1.438494   -0.913502   -1.670309
     16          1           0       -1.358554   -0.223113   -2.503641
     17          6           0       -2.223096   -2.060473   -1.789495
     18          1           0       -2.752277   -2.253747   -2.717483
     19          6           0       -2.318393   -2.954983   -0.724266
     20          1           0       -2.926338   -3.848854   -0.810296
     21          6           0       -1.629388   -2.687686    0.461052
     22          1           0       -1.706295   -3.374539    1.299314
     23          6           0       -0.851572   -1.534280    0.602922
     24          6           0       -0.095442   -1.227607    1.865569
     25          1           0       -0.414362   -1.905504    2.663721
     26          1           0       -0.318206   -0.205014    2.192600
     27          6           0        1.417546   -1.383555    1.668824
     28          1           0        1.614857   -2.423327    1.375246
     29          1           0        1.917492   -1.251123    2.634290
     30          6           0        2.097791   -0.460888    0.668007
     31          6           0        3.499620   -0.485311    0.687514
     32          1           0        3.978974   -1.144647    1.406462
     33          6           0        4.285346    0.303233   -0.148128
     34          1           0        5.367834    0.257642   -0.090432
     35          6           0        3.650720    1.149753   -1.054485
     36          1           0        4.228499    1.773150   -1.730998
     37          6           0        2.260576    1.189716   -1.106117
     38          1           0        1.784363    1.831304   -1.836989
     39          6           0        1.456179    0.405615   -0.252237
 ---------------------------------------------------------------------

 SCF Done:  E(RB3LYP) =  -769.356127070     A.U. after   10 cycles

 The electronic state is 1-A.
 Alpha  occ. eigenvalues --  -14.34880 -14.30378 -10.22861 -10.22200 -10.21302
 Alpha  occ. eigenvalues --  -10.19846 -10.19482 -10.19170 -10.18896 -10.18770
 Alpha  occ. eigenvalues --  -10.18767 -10.18762 -10.18642 -10.18613 -10.18414
 Alpha  occ. eigenvalues --  -10.18411 -10.18335 -10.18188 -10.17608  -0.94878
 Alpha  occ. eigenvalues --   -0.87054  -0.85429  -0.84368  -0.79754  -0.76221
 Alpha  occ. eigenvalues --   -0.75438  -0.75039  -0.72235  -0.69737  -0.65875
 Alpha  occ. eigenvalues --   -0.64515  -0.60911  -0.60079  -0.58536  -0.57340
 Alpha  occ. eigenvalues --   -0.56220  -0.51546  -0.50668  -0.48931  -0.47699
 Alpha  occ. eigenvalues --   -0.46833  -0.46669  -0.45348  -0.44966  -0.43610
 Alpha  occ. eigenvalues --   -0.43276  -0.42244  -0.41362  -0.40477  -0.39956
 Alpha  occ. eigenvalues --   -0.38552  -0.38167  -0.37946  -0.37624  -0.36353
 Alpha  occ. eigenvalues --   -0.35697  -0.34468  -0.34255  -0.33916  -0.33380
 Alpha  occ. eigenvalues --   -0.32738  -0.32628  -0.28971  -0.24797  -0.24352
 Alpha  occ. eigenvalues --   -0.23766  -0.23289  -0.19665
 Alpha virt. eigenvalues --   -0.00704  -0.00003   0.00338   0.00827   0.09332
 Alpha virt. eigenvalues --    0.09406   0.10507   0.10807   0.11313   0.12288
 Alpha virt. eigenvalues --    0.13409   0.13903   0.14885   0.15383   0.16005

 Mulliken charges:
               1
     1  N   -0.770133
     2  H    0.322928
     3  H    0.322708
     4  C   -0.145657
     5  H    0.155909
     6  H    0.137258
     7  C   -0.284138
     8  H    0.141845
     9  H    0.144938
    10  C   -0.154384
    11  H    0.163115
    12  H    0.149474
    13  N   -0.572932
    14  C    0.208698
    15  C   -0.170469
    16  H    0.151850
    17  C   -0.169571
    18  H    0.147750
    19  C   -0.143720
    20  H    0.145078
    21  C   -0.233180
    22  H    0.143557
    23  C    0.152714
    24  C   -0.356934
    25  H    0.150567
    26  H    0.166969
    27  C   -0.343083
    28  H    0.160913
    29  H    0.160236
    30  C    0.147395
    31  C   -0.220157
    32  H    0.139069
    33  C   -0.150768
    34  H    0.141674
    35  C   -0.170107
    36  H    0.144930
    37  C   -0.196778
    38  H    0.152562
    39  C    0.229873
 Sum of Mulliken charges =   0.00000

 Dipole moment (field-independent basis, Debye):
    X=             -1.0149    Y=              0.0693    Z=             -1.8532  Tot=              2.1141
 Quadrupole moment (field-independent basis, Debye-Ang):
   XX=           -107.6197   YY=           -107.0746   ZZ=           -112.4282
   XY=              1.5556   XZ=              8.8483   YZ=            -12.6778

 Normal termination of Gaussian 09 at Mon Mar 29 22:52:55 2021.
