 Gaussian 09, Revision D.01,

 -----------------
 #p b3lyp/6-31G(d)
 -----------------

 ---------------------------------------------
 SET_328_BBB30_conf1.geo_060_075_270.n.pdb.xyz
 ---------------------------------------------
 Symbolic Z-matrix:
 Charge =  0 Multiplicity = 1

 SCF Done:  E(RB3LYP) =  -444.840242309     A.U. after   13 cycles
 Normal termination of Gaussian 09 at Sun Jan 24 23:12:30 2021.
 Gaussian 09:  AM64L-G09RevD.01 24-Apr-2013

 ----------------------------------------------------------------------
 #p b3lyp/6-31G(d) scrf=(iefpcm,read,solvent=Water) geom=allcheck guess
 =read
 ----------------------------------------------------------------------

 Structure from the checkpoint file:  "SET_328_BBB30_conf1.geo_060_075_270.n.pdb.xyz.mst.n.w.chk"
 ---------------------------------------------
 SET_328_BBB30_conf1.geo_060_075_270.n.pdb.xyz
 ---------------------------------------------
 Charge =  0 Multiplicity = 1

                         Standard orientation:
 ---------------------------------------------------------------------
 Center     Atomic      Atomic             Coordinates (Angstroms)
 Number     Number       Type             X           Y           Z
 ---------------------------------------------------------------------
      1          6           0        1.226442    2.016361   -0.681657
      2          1           0        1.531288    3.057466   -0.533518
      3          1           0        0.188838    1.913111   -0.339304
      4          1           0        1.242520    1.815024   -1.758875
      5          7           0        2.192162    1.141815   -0.021257
      6          1           0        2.212191    1.348014    0.979138
      7          6           0        1.995192   -0.299426   -0.211002
      8          6           0        3.322277   -1.012378    0.061014
      9          1           0        4.112172   -0.601786   -0.573845
     10          1           0        3.242665   -2.088287   -0.128920
     11          1           0        3.624956   -0.878306    1.104534
     12          1           0        1.740245   -0.437918   -1.269049
     13          6           0        0.877910   -0.953003    0.649349
     14          1           0        1.090640   -0.734087    1.703435
     15          1           0        0.977462   -2.039837    0.533299
     16          6           0       -0.548343   -0.558612    0.335778
     17          6           0       -1.144604   -0.920032   -0.882022
     18          1           0       -0.570670   -1.486725   -1.612176
     19          6           0       -2.463674   -0.566634   -1.169757
     20          1           0       -2.904308   -0.855600   -2.118177
     21          6           0       -3.217424    0.151564   -0.237410
     22          1           0       -4.243767    0.425900   -0.459121
     23          6           0       -2.642282    0.506577    0.983988
     24          1           0       -3.220108    1.058140    1.718826
     25          6           0       -1.320754    0.149835    1.265741
     26          1           0       -0.877703    0.426676    2.218421
 ---------------------------------------------------------------------

 SCF Done:  E(RB3LYP) =  -444.846592621     A.U. after   10 cycles

 The electronic state is 1-A.
 Alpha  occ. eigenvalues --  -14.30839 -10.20945 -10.19393 -10.19112 -10.18844
 Alpha  occ. eigenvalues --  -10.18826 -10.18666 -10.18536 -10.18511 -10.18023
 Alpha  occ. eigenvalues --  -10.16741  -0.89343  -0.85154  -0.77768  -0.74187
 Alpha  occ. eigenvalues --   -0.74016  -0.67325  -0.65071  -0.60357  -0.58920
 Alpha  occ. eigenvalues --   -0.57044  -0.50972  -0.46940  -0.46453  -0.45053
 Alpha  occ. eigenvalues --   -0.43772  -0.42953  -0.41708  -0.41555  -0.39543
 Alpha  occ. eigenvalues --   -0.38120  -0.37327  -0.36382  -0.35565  -0.34449
 Alpha  occ. eigenvalues --   -0.33941  -0.32609  -0.32201  -0.25014  -0.24750
 Alpha  occ. eigenvalues --   -0.20741
 Alpha virt. eigenvalues --   -0.00258   0.00085   0.09110   0.10457   0.11297
 Alpha virt. eigenvalues --    0.12677   0.14347   0.15113   0.15690   0.16042
 Alpha virt. eigenvalues --    0.16812   0.17373   0.17855   0.18243   0.19159

 Mulliken charges:
               1
     1  C   -0.311313
     2  H    0.144929
     3  H    0.142317
     4  H    0.147471
     5  N   -0.583951
     6  H    0.321663
     7  C    0.040099
     8  C   -0.445193
     9  H    0.144693
    10  H    0.144376
    11  H    0.143506
    12  H    0.135557
    13  C   -0.357118
    14  H    0.143888
    15  H    0.152360
    16  C    0.174988
    17  C   -0.197161
    18  H    0.141657
    19  C   -0.150103
    20  H    0.146415
    21  C   -0.155381
    22  H    0.145376
    23  C   -0.147868
    24  H    0.146200
    25  C   -0.207418
    26  H    0.140012
 Sum of Mulliken charges =   0.00000

 Dipole moment (field-independent basis, Debye):
    X=             -0.7185    Y=             -0.3258    Z=              0.7577  Tot=              1.0939
 Quadrupole moment (field-independent basis, Debye-Ang):
   XX=            -70.1351   YY=            -67.9063   ZZ=            -62.8260
   XY=             -4.0832   XZ=              3.1968   YZ=              3.8856

 Normal termination of Gaussian 09 at Sun Jan 24 23:13:34 2021.
