 Gaussian 09, Revision D.01,

 -----------------
 #p b3lyp/6-31G(d)
 -----------------

 ----------------------------------------------
 SET_328_BBB292_conf1.geo_105_165_120.n.pdb.xyz
 ----------------------------------------------
 Symbolic Z-matrix:
 Charge =  0 Multiplicity = 1

 SCF Done:  E(RB3LYP) =  -705.222143541     A.U. after   15 cycles
 Normal termination of Gaussian 09 at Mon Mar 29 22:44:40 2021.
 Gaussian 09:  AM64L-G09RevD.01 24-Apr-2013

 ----------------------------------------------------------------------
 #p b3lyp/6-31G(d) scrf=(iefpcm,read,solvent=Water) geom=allcheck guess
 =read
 ----------------------------------------------------------------------

 Structure from the checkpoint file:  "SET_328_BBB292_conf1.geo_105_165_120.n.pdb.xyz.mst.n.w.chk"
 ----------------------------------------------
 SET_328_BBB292_conf1.geo_105_165_120.n.pdb.xyz
 ----------------------------------------------
 Charge =  0 Multiplicity = 1

                         Standard orientation:
 ---------------------------------------------------------------------
 Center     Atomic      Atomic             Coordinates (Angstroms)
 Number     Number       Type             X           Y           Z
 ---------------------------------------------------------------------
      1          7           0        1.926350    1.300814    0.978741
      2          1           0        1.224212    1.277599    1.717168
      3          1           0        1.614599    1.986502    0.290481
      4          6           0        2.084581   -0.020782    0.355530
      5          6           0        3.567505   -0.190907   -0.023222
      6          8           0        4.361915    0.725074    0.530363
      7          1           0        3.718115    1.321653    1.020944
      8          8           0        3.993639   -1.084177   -0.734992
      9          1           0        1.897883   -0.774676    1.130338
     10          6           0        1.167870   -0.320637   -0.848336
     11          1           0        1.495807   -1.271534   -1.276527
     12          1           0        1.332947    0.447715   -1.611986
     13          6           0       -0.298071   -0.380561   -0.482985
     14          6           0       -1.126333    0.736976   -0.668397
     15          1           0       -0.721518    1.644068   -1.108145
     16          6           0       -2.471518    0.695882   -0.306406
     17          8           0       -3.353060    1.733888   -0.453011
     18          1           0       -2.913909    2.493621   -0.875007
     19          6           0       -3.016179   -0.472966    0.254717
     20          8           0       -4.334323   -0.524170    0.609252
     21          1           0       -4.740581    0.334873    0.389997
     22          6           0       -2.200523   -1.585909    0.440223
     23          1           0       -2.633191   -2.483367    0.865676
     24          6           0       -0.852678   -1.539180    0.074470
     25          1           0       -0.232108   -2.418577    0.219407
 ---------------------------------------------------------------------

 SCF Done:  E(RB3LYP) =  -705.254861832     A.U. after   11 cycles

 The electronic state is 1-A.
 Alpha  occ. eigenvalues --  -19.18126 -19.18034 -19.17306 -19.13289 -14.33655
 Alpha  occ. eigenvalues --  -10.31390 -10.24891 -10.24520 -10.23362 -10.19449
 Alpha  occ. eigenvalues --  -10.19255 -10.18966 -10.18732 -10.18491  -1.09434
 Alpha  occ. eigenvalues --   -1.06975  -1.04167  -1.01055  -0.90221  -0.85101
 Alpha  occ. eigenvalues --   -0.77584  -0.74226  -0.72040  -0.65603  -0.63560
 Alpha  occ. eigenvalues --   -0.59018  -0.58217  -0.54591  -0.53513  -0.53284
 Alpha  occ. eigenvalues --   -0.49169  -0.47962  -0.46920  -0.45174  -0.43814
 Alpha  occ. eigenvalues --   -0.43168  -0.43079  -0.42702  -0.40537  -0.39831
 Alpha  occ. eigenvalues --   -0.38483  -0.38055  -0.36451  -0.35805  -0.34676
 Alpha  occ. eigenvalues --   -0.33891  -0.32035  -0.30981  -0.29218  -0.25600
 Alpha  occ. eigenvalues --   -0.23987  -0.20655
 Alpha virt. eigenvalues --    0.00267   0.00572   0.01891   0.07663   0.08502
 Alpha virt. eigenvalues --    0.10749   0.11757   0.13665   0.14173   0.15368
 Alpha virt. eigenvalues --    0.16490   0.17185   0.17850   0.18446   0.19689

 Mulliken charges:
               1
     1  N   -0.805764
     2  H    0.369169
     3  H    0.357976
     4  C   -0.072831
     5  C    0.622824
     6  O   -0.607032
     7  H    0.453229
     8  O   -0.544394
     9  H    0.198615
    10  C   -0.372572
    11  H    0.170490
    12  H    0.162158
    13  C    0.160853
    14  C   -0.276104
    15  H    0.151925
    16  C    0.303768
    17  O   -0.696183
    18  H    0.467520
    19  C    0.308552
    20  O   -0.683951
    21  H    0.455996
    22  C   -0.197844
    23  H    0.147821
    24  C   -0.216507
    25  H    0.142284
 Sum of Mulliken charges =   0.00000

 Dipole moment (field-independent basis, Debye):
    X=             -4.9107    Y=              6.2135    Z=              1.0215  Tot=              7.9854
 Quadrupole moment (field-independent basis, Debye-Ang):
   XX=           -116.9711   YY=            -70.0877   ZZ=            -79.5461
   XY=             -1.3263   XZ=              9.5032   YZ=             -5.5532

 Normal termination of Gaussian 09 at Mon Mar 29 22:46:19 2021.
