 Gaussian 09, Revision D.01,

 -----------------
 #p b3lyp/6-31G(d)
 -----------------

 ---------------------------------------------
 SET_328_BBB30_conf1.geo_075_060_195.n.pdb.xyz
 ---------------------------------------------
 Symbolic Z-matrix:
 Charge =  0 Multiplicity = 1

 SCF Done:  E(RB3LYP) =  -444.845151103     A.U. after   14 cycles
 Normal termination of Gaussian 09 at Mon Mar 29 22:51:09 2021.
 Gaussian 09:  AM64L-G09RevD.01 24-Apr-2013

 ----------------------------------------------------------------------
 #p b3lyp/6-31G(d) scrf=(iefpcm,read,solvent=Water) geom=allcheck guess
 =read
 ----------------------------------------------------------------------

 Structure from the checkpoint file:  "SET_328_BBB30_conf1.geo_075_060_195.n.pdb.xyz.mst.n.w.chk"
 ---------------------------------------------
 SET_328_BBB30_conf1.geo_075_060_195.n.pdb.xyz
 ---------------------------------------------
 Charge =  0 Multiplicity = 1

                         Standard orientation:
 ---------------------------------------------------------------------
 Center     Atomic      Atomic             Coordinates (Angstroms)
 Number     Number       Type             X           Y           Z
 ---------------------------------------------------------------------
      1          6           0       -2.704336    1.731351    0.785482
      2          1           0       -2.414457    1.564784    1.837583
      3          1           0       -3.756096    1.445900    0.685302
      4          1           0       -2.629899    2.803132    0.575631
      5          7           0       -1.882839    0.995200   -0.173614
      6          1           0       -0.946392    1.391015   -0.140120
      7          6           0       -1.778520   -0.441302    0.116994
      8          6           0       -3.100359   -1.148906   -0.201866
      9          1           0       -3.930394   -0.720296    0.367607
     10          1           0       -3.039221   -2.214538    0.046901
     11          1           0       -3.337177   -1.053786   -1.266648
     12          1           0       -1.550051   -0.607949    1.188116
     13          6           0       -0.627455   -1.054860   -0.712264
     14          1           0       -0.829156   -0.861125   -1.772817
     15          1           0       -0.656506   -2.141406   -0.571861
     16          6           0        0.748820   -0.536698   -0.354096
     17          6           0        1.394057   -0.970392    0.814247
     18          1           0        0.903814   -1.697414    1.456097
     19          6           0        2.656505   -0.488096    1.159691
     20          1           0        3.138296   -0.840329    2.066656
     21          6           0        3.302177    0.441050    0.338469
     22          1           0        4.285509    0.814365    0.604673
     23          6           0        2.673804    0.879510   -0.828505
     24          1           0        3.167548    1.597255   -1.476073
     25          6           0        1.409372    0.392015   -1.168654
     26          1           0        0.929673    0.731964   -2.082742
 ---------------------------------------------------------------------

 SCF Done:  E(RB3LYP) =  -444.850417492     A.U. after   10 cycles

 The electronic state is 1-A.
 Alpha  occ. eigenvalues --  -14.31100 -10.21061 -10.19641 -10.19468 -10.19037
 Alpha  occ. eigenvalues --  -10.19022 -10.18890 -10.18817 -10.18784 -10.18324
 Alpha  occ. eigenvalues --  -10.16912  -0.89826  -0.85411  -0.78088  -0.74358
 Alpha  occ. eigenvalues --   -0.73935  -0.67933  -0.65435  -0.60465  -0.58767
 Alpha  occ. eigenvalues --   -0.56215  -0.50999  -0.48702  -0.46421  -0.45738
 Alpha  occ. eigenvalues --   -0.44314  -0.43103  -0.41766  -0.41120  -0.38913
 Alpha  occ. eigenvalues --   -0.38488  -0.37441  -0.37108  -0.35642  -0.34666
 Alpha  occ. eigenvalues --   -0.33670  -0.33009  -0.32134  -0.25244  -0.24412
 Alpha  occ. eigenvalues --   -0.22158
 Alpha virt. eigenvalues --   -0.00503  -0.00172   0.09327   0.09878   0.12073
 Alpha virt. eigenvalues --    0.12867   0.13388   0.15012   0.15598   0.15949
 Alpha virt. eigenvalues --    0.16777   0.17460   0.18013   0.18705   0.19039

 Mulliken charges:
               1
     1  C   -0.312896
     2  H    0.126905
     3  H    0.155848
     4  H    0.152512
     5  N   -0.590261
     6  H    0.323368
     7  C    0.062697
     8  C   -0.452161
     9  H    0.152525
    10  H    0.146545
    11  H    0.145517
    12  H    0.110515
    13  C   -0.355854
    14  H    0.148355
    15  H    0.155218
    16  C    0.148514
    17  C   -0.196321
    18  H    0.143665
    19  C   -0.149427
    20  H    0.148783
    21  C   -0.152766
    22  H    0.148118
    23  C   -0.148511
    24  H    0.148936
    25  C   -0.204364
    26  H    0.144540
 Sum of Mulliken charges =   0.00000

 Dipole moment (field-independent basis, Debye):
    X=              0.5664    Y=             -0.1464    Z=              1.0809  Tot=              1.2291
 Quadrupole moment (field-independent basis, Debye-Ang):
   XX=            -65.9091   YY=            -65.5494   ZZ=            -66.2647
   XY=              3.2618   XZ=             -1.1330   YZ=             -1.4404

 Normal termination of Gaussian 09 at Mon Mar 29 22:52:16 2021.
