 Gaussian 09, Revision D.01,

 -----------------
 #p b3lyp/6-31G(d)
 -----------------

 ----------------------------------------------
 SET_328_BBB301_conf1.geo_165_120_105.n.pdb.xyz
 ----------------------------------------------
 Symbolic Z-matrix:
 Charge =  0 Multiplicity = 1

 SCF Done:  E(RB3LYP) =  -788.425575452     A.U. after   14 cycles
 Normal termination of Gaussian 09 at Mon Jan 25 16:27:24 2021.
 Gaussian 09:  AM64L-G09RevD.01 24-Apr-2013

 ----------------------------------------------------------------------
 #p b3lyp/6-31G(d) scrf=(iefpcm,read,solvent=Water) geom=allcheck guess
 =read
 ----------------------------------------------------------------------

 Structure from the checkpoint file:  "SET_328_BBB301_conf1.geo_165_120_105.n.pdb.xyz.mst.n.w.chk"
 ----------------------------------------------
 SET_328_BBB301_conf1.geo_165_120_105.n.pdb.xyz
 ----------------------------------------------
 Charge =  0 Multiplicity = 1

                         Standard orientation:
 ---------------------------------------------------------------------
 Center     Atomic      Atomic             Coordinates (Angstroms)
 Number     Number       Type             X           Y           Z
 ---------------------------------------------------------------------
      1          6           0       -3.996127    1.648369   -1.188005
      2          1           0       -4.728916    2.407912   -0.897137
      3          1           0       -4.283367    1.258409   -2.170617
      4          1           0       -3.025972    2.145482   -1.289712
      5          6           0       -3.942501    0.510457   -0.149671
      6          6           0       -3.571966    1.074468    1.230234
      7          1           0       -4.323782    1.801426    1.550054
      8          1           0       -2.603896    1.584278    1.214501
      9          1           0       -3.528501    0.274712    1.976270
     10          6           0       -5.315678   -0.171183   -0.070418
     11          1           0       -5.303410   -0.978683    0.667572
     12          1           0       -5.599359   -0.598033   -1.039156
     13          1           0       -6.088647    0.548658    0.217092
     14          7           0       -2.974639   -0.548385   -0.540705
     15          1           0       -3.288319   -0.946520   -1.422371
     16          6           0       -1.553580   -0.196175   -0.656206
     17          1           0       -1.379933    0.878320   -0.792109
     18          1           0       -1.148114   -0.703547   -1.536470
     19          6           0       -0.768486   -0.704057    0.583708
     20          8           0       -1.213169   -2.021182    0.882017
     21          1           0       -2.163102   -1.993461    0.618648
     22          1           0       -0.984409   -0.034777    1.430025
     23          6           0        0.723081   -0.693388    0.336000
     24          6           0        1.481995    0.448609    0.622091
     25          1           0        0.997696    1.314603    1.069106
     26          6           0        2.849722    0.512244    0.360381
     27          6           0        3.678362    1.735857    0.673900
     28          8           0        4.349369    2.267657   -0.468839
     29          1           0        4.949156    1.563074   -0.773412
     30          1           0        4.405213    1.500929    1.465034
     31          1           0        3.031263    2.531161    1.051488
     32          6           0        3.475039   -0.611843   -0.206415
     33          8           0        4.821576   -0.501849   -0.436299
     34          1           0        5.158219   -1.313505   -0.853396
     35          6           0        2.741075   -1.763711   -0.498341
     36          1           0        3.237141   -2.628013   -0.930467
     37          6           0        1.371454   -1.796229   -0.227791
     38          1           0        0.796964   -2.691242   -0.441831
 ---------------------------------------------------------------------

 SCF Done:  E(RB3LYP) =  -788.447554123     A.U. after   10 cycles

 The electronic state is 1-A.
 Alpha  occ. eigenvalues --  -19.18222 -19.13609 -19.12955 -14.32170 -10.24993
 Alpha  occ. eigenvalues --  -10.23031 -10.22934 -10.22126 -10.20511 -10.19099
 Alpha  occ. eigenvalues --  -10.19028 -10.18952 -10.18846 -10.18734 -10.17037
 Alpha  occ. eigenvalues --  -10.16968 -10.16869  -1.06107  -1.00803  -1.00722
 Alpha  occ. eigenvalues --   -0.90337  -0.85425  -0.78410  -0.76744  -0.75539
 Alpha  occ. eigenvalues --   -0.69913  -0.68345  -0.68021  -0.67143  -0.63136
 Alpha  occ. eigenvalues --   -0.61215  -0.56589  -0.54418  -0.54224  -0.50887
 Alpha  occ. eigenvalues --   -0.49737  -0.47833  -0.47319  -0.46945  -0.45536
 Alpha  occ. eigenvalues --   -0.44600  -0.43839  -0.42909  -0.42389  -0.41871
 Alpha  occ. eigenvalues --   -0.40731  -0.40611  -0.39126  -0.38675  -0.38320
 Alpha  occ. eigenvalues --   -0.37470  -0.36376  -0.36145  -0.35553  -0.34146
 Alpha  occ. eigenvalues --   -0.33566  -0.33293  -0.32507  -0.32369  -0.31550
 Alpha  occ. eigenvalues --   -0.26595  -0.26361  -0.25026  -0.23433  -0.21482
 Alpha virt. eigenvalues --   -0.00567   0.00686   0.07249   0.08553   0.09653
 Alpha virt. eigenvalues --    0.11380   0.12318   0.12638   0.13053   0.13509
 Alpha virt. eigenvalues --    0.13899   0.14207   0.15796   0.16094   0.16383

 Mulliken charges:
               1
     1  C   -0.453882
     2  H    0.147254
     3  H    0.143275
     4  H    0.150667
     5  C    0.207540
     6  C   -0.453652
     7  H    0.150368
     8  H    0.150341
     9  H    0.151076
    10  C   -0.453897
    11  H    0.148477
    12  H    0.144703
    13  H    0.148610
    14  N   -0.606092
    15  H    0.340138
    16  C   -0.161008
    17  H    0.145133
    18  H    0.150031
    19  C    0.089276
    20  O   -0.696544
    21  H    0.412061
    22  H    0.123214
    23  C    0.137277
    24  C   -0.275188
    25  H    0.141383
    26  C    0.110372
    27  C   -0.116337
    28  O   -0.674427
    29  H    0.431612
    30  H    0.144011
    31  H    0.156712
    32  C    0.292324
    33  O   -0.685352
    34  H    0.465247
    35  C   -0.201804
    36  H    0.154530
    37  C   -0.204533
    38  H    0.147084
 Sum of Mulliken charges =   0.00000

 Dipole moment (field-independent basis, Debye):
    X=             -1.6491    Y=             -1.4231    Z=             -2.4909  Tot=              3.3090
 Quadrupole moment (field-independent basis, Debye-Ang):
   XX=            -82.4675   YY=           -108.5910   ZZ=           -101.7796
   XY=            -19.7517   XZ=              0.3242   YZ=             11.3140

 Normal termination of Gaussian 09 at Mon Jan 25 16:30:22 2021.
