 Gaussian 09, Revision D.01,

 -----------------
 #p b3lyp/6-31G(d)
 -----------------

 ---------------------------------------------
 SET_328_BBB30_conf1.geo_240_075_270.n.pdb.xyz
 ---------------------------------------------
 Symbolic Z-matrix:
 Charge =  0 Multiplicity = 1

 SCF Done:  E(RB3LYP) =  -444.840257657     A.U. after   14 cycles
 Normal termination of Gaussian 09 at Mon Mar 29 22:52:24 2021.
 Gaussian 09:  AM64L-G09RevD.01 24-Apr-2013

 ----------------------------------------------------------------------
 #p b3lyp/6-31G(d) scrf=(iefpcm,read,solvent=Water) geom=allcheck guess
 =read
 ----------------------------------------------------------------------

 Structure from the checkpoint file:  "SET_328_BBB30_conf1.geo_240_075_270.n.pdb.xyz.mst.n.w.chk"
 ---------------------------------------------
 SET_328_BBB30_conf1.geo_240_075_270.n.pdb.xyz
 ---------------------------------------------
 Charge =  0 Multiplicity = 1

                         Standard orientation:
 ---------------------------------------------------------------------
 Center     Atomic      Atomic             Coordinates (Angstroms)
 Number     Number       Type             X           Y           Z
 ---------------------------------------------------------------------
      1          6           0        1.232829    2.025293   -0.707817
      2          1           0        1.357827    1.841153   -1.779979
      3          1           0        1.510792    3.066795   -0.515112
      4          1           0        0.165682    1.909406   -0.472059
      5          7           0        2.139360    1.149108    0.031323
      6          1           0        2.056283    1.332909    1.032644
      7          6           0        1.990974   -0.291631   -0.213904
      8          6           0        3.330611   -0.982022    0.064732
      9          1           0        3.274692   -2.054168   -0.145015
     10          1           0        3.616552   -0.860698    1.116910
     11          1           0        4.122516   -0.545672   -0.550196
     12          1           0        1.760032   -0.401062   -1.280599
     13          6           0        0.879405   -1.005428    0.604258
     14          1           0        1.087941   -0.846720    1.669006
     15          1           0        0.984441   -2.081587    0.423686
     16          6           0       -0.545539   -0.592145    0.318166
     17          6           0       -1.282783    0.136945    1.259068
     18          1           0       -0.814665    0.401341    2.201996
     19          6           0       -2.599587    0.525162    1.001656
     20          1           0       -3.150584    1.091213    1.744891
     21          6           0       -3.205960    0.180530   -0.208186
     22          1           0       -4.229107    0.477230   -0.411371
     23          6           0       -2.485890   -0.558121   -1.152344
     24          1           0       -2.951234   -0.838926   -2.091519
     25          6           0       -1.171226   -0.940982   -0.888320
     26          1           0       -0.623684   -1.520577   -1.626391
 ---------------------------------------------------------------------

 SCF Done:  E(RB3LYP) =  -444.846583255     A.U. after   10 cycles

 The electronic state is 1-A.
 Alpha  occ. eigenvalues --  -14.30860 -10.20978 -10.19354 -10.19175 -10.18850
 Alpha  occ. eigenvalues --  -10.18831 -10.18687 -10.18532 -10.18493 -10.18014
 Alpha  occ. eigenvalues --  -10.16717  -0.89284  -0.85177  -0.77803  -0.74191
 Alpha  occ. eigenvalues --   -0.74021  -0.67304  -0.65114  -0.60362  -0.58938
 Alpha  occ. eigenvalues --   -0.57080  -0.50983  -0.46978  -0.46477  -0.45078
 Alpha  occ. eigenvalues --   -0.43855  -0.42840  -0.41644  -0.41569  -0.39597
 Alpha  occ. eigenvalues --   -0.38012  -0.37382  -0.36495  -0.35611  -0.34496
 Alpha  occ. eigenvalues --   -0.33867  -0.32647  -0.32242  -0.25023  -0.24691
 Alpha  occ. eigenvalues --   -0.20776
 Alpha virt. eigenvalues --   -0.00268   0.00075   0.09035   0.10534   0.11299
 Alpha virt. eigenvalues --    0.12589   0.14387   0.15270   0.15685   0.15882
 Alpha virt. eigenvalues --    0.16843   0.17305   0.17878   0.18210   0.19174

 Mulliken charges:
               1
     1  C   -0.311156
     2  H    0.148777
     3  H    0.145299
     4  H    0.140708
     5  N   -0.586208
     6  H    0.321936
     7  C    0.043304
     8  C   -0.442657
     9  H    0.143561
    10  H    0.142502
    11  H    0.144066
    12  H    0.135763
    13  C   -0.360483
    14  H    0.144307
    15  H    0.151915
    16  C    0.177042
    17  C   -0.207208
    18  H    0.139930
    19  C   -0.148155
    20  H    0.146405
    21  C   -0.155067
    22  H    0.145653
    23  C   -0.150080
    24  H    0.146494
    25  C   -0.198013
    26  H    0.141365
 Sum of Mulliken charges =   0.00000

 Dipole moment (field-independent basis, Debye):
    X=             -0.8010    Y=             -0.3498    Z=              0.6142  Tot=              1.0683
 Quadrupole moment (field-independent basis, Debye-Ang):
   XX=            -70.4156   YY=            -67.9037   ZZ=            -62.6668
   XY=             -4.3168   XZ=              2.6164   YZ=              3.7119

 Normal termination of Gaussian 09 at Mon Mar 29 22:53:28 2021.
