 Gaussian 09, Revision D.01,

 -----------------
 #p b3lyp/6-31G(d)
 -----------------

 ---------------------------------------------
 SET_328_BBB30_conf1.geo_255_060_195.n.pdb.xyz
 ---------------------------------------------
 Symbolic Z-matrix:
 Charge =  0 Multiplicity = 1

 SCF Done:  E(RB3LYP) =  -444.845007795     A.U. after   14 cycles
 Normal termination of Gaussian 09 at Sun Jan 24 23:15:48 2021.
 Gaussian 09:  AM64L-G09RevD.01 24-Apr-2013

 ----------------------------------------------------------------------
 #p b3lyp/6-31G(d) scrf=(iefpcm,read,solvent=Water) geom=allcheck guess
 =read
 ----------------------------------------------------------------------

 Structure from the checkpoint file:  "SET_328_BBB30_conf1.geo_255_060_195.n.pdb.xyz.mst.n.w.chk"
 ---------------------------------------------
 SET_328_BBB30_conf1.geo_255_060_195.n.pdb.xyz
 ---------------------------------------------
 Charge =  0 Multiplicity = 1

                         Standard orientation:
 ---------------------------------------------------------------------
 Center     Atomic      Atomic             Coordinates (Angstroms)
 Number     Number       Type             X           Y           Z
 ---------------------------------------------------------------------
      1          6           0       -2.717221    1.739838    0.735169
      2          1           0       -2.641581    2.809638    0.517599
      3          1           0       -2.445217    1.583493    1.793099
      4          1           0       -3.764116    1.449389    0.618327
      5          7           0       -1.875151    0.995756   -0.200784
      6          1           0       -0.937092    1.394418   -0.153373
      7          6           0       -1.777176   -0.432194    0.120344
      8          6           0       -3.097009   -1.144373   -0.185852
      9          1           0       -3.925903   -0.706643    0.377283
     10          1           0       -3.031086   -2.202191    0.081371
     11          1           0       -3.333091   -1.066877   -1.252051
     12          1           0       -1.557438   -0.575085    1.196856
     13          6           0       -0.626882   -1.072041   -0.681438
     14          1           0       -0.821657   -0.910594   -1.747826
     15          1           0       -0.662596   -2.153504   -0.505484
     16          6           0        0.748579   -0.545684   -0.333138
     17          6           0        1.430714    0.321031   -1.198092
     18          1           0        0.965508    0.604806   -2.137533
     19          6           0        2.696313    0.815762   -0.871674
     20          1           0        3.207227    1.483710   -1.557204
     21          6           0        3.303493    0.446709    0.329231
     22          1           0        4.287352    0.826043    0.584786
     23          6           0        2.635809   -0.419658    1.200190
     24          1           0        3.102172   -0.716770    2.134458
     25          6           0        1.372854   -0.909707    0.869638
     26          1           0        0.866731   -1.588234    1.548913
 ---------------------------------------------------------------------

 SCF Done:  E(RB3LYP) =  -444.850341604     A.U. after   10 cycles

 The electronic state is 1-A.
 Alpha  occ. eigenvalues --  -14.31133 -10.20974 -10.19625 -10.19437 -10.19025
 Alpha  occ. eigenvalues --  -10.19005 -10.18875 -10.18806 -10.18763 -10.18275
 Alpha  occ. eigenvalues --  -10.16855  -0.89879  -0.85405  -0.78121  -0.74355
 Alpha  occ. eigenvalues --   -0.73957  -0.67964  -0.65443  -0.60480  -0.58765
 Alpha  occ. eigenvalues --   -0.56162  -0.51017  -0.48777  -0.46384  -0.45744
 Alpha  occ. eigenvalues --   -0.44368  -0.43127  -0.41775  -0.41123  -0.38944
 Alpha  occ. eigenvalues --   -0.38460  -0.37496  -0.37095  -0.35605  -0.34688
 Alpha  occ. eigenvalues --   -0.33699  -0.32980  -0.32104  -0.25232  -0.24407
 Alpha  occ. eigenvalues --   -0.22195
 Alpha virt. eigenvalues --   -0.00490  -0.00156   0.09312   0.09894   0.12060
 Alpha virt. eigenvalues --    0.12880   0.13342   0.14997   0.15610   0.15964
 Alpha virt. eigenvalues --    0.16834   0.17497   0.18043   0.18687   0.19036

 Mulliken charges:
               1
     1  C   -0.313339
     2  H    0.152319
     3  H    0.127014
     4  H    0.156753
     5  N   -0.589569
     6  H    0.323260
     7  C    0.061678
     8  C   -0.452382
     9  H    0.152677
    10  H    0.147295
    11  H    0.145265
    12  H    0.109943
    13  C   -0.354593
    14  H    0.147955
    15  H    0.155172
    16  C    0.148068
    17  C   -0.204215
    18  H    0.144331
    19  C   -0.148379
    20  H    0.148730
    21  C   -0.152606
    22  H    0.147952
    23  C   -0.149655
    24  H    0.148660
    25  C   -0.196114
    26  H    0.143779
 Sum of Mulliken charges =   0.00000

 Dipole moment (field-independent basis, Debye):
    X=              0.5341    Y=             -0.1291    Z=              1.1119  Tot=              1.2403
 Quadrupole moment (field-independent basis, Debye-Ang):
   XX=            -65.8039   YY=            -65.9171   ZZ=            -65.9649
   XY=              3.2950   XZ=             -1.3353   YZ=             -1.2735

 Normal termination of Gaussian 09 at Sun Jan 24 23:16:51 2021.
