 Gaussian 09, Revision D.01,

 -----------------
 #p b3lyp/6-31G(d)
 -----------------

 ---------------------------------------------
 SET_328_BBB20_conf1.geo_270_180_300.n.pdb.xyz
 ---------------------------------------------
 Symbolic Z-matrix:
 Charge =  0 Multiplicity = 1

 SCF Done:  E(RB3LYP) =  -769.340303696     A.U. after   15 cycles
 Normal termination of Gaussian 09 at Mon Mar 29 22:48:06 2021.
 Gaussian 09:  AM64L-G09RevD.01 24-Apr-2013

 ----------------------------------------------------------------------
 #p b3lyp/6-31G(d) scrf=(iefpcm,read,solvent=Water) geom=allcheck guess
 =read
 ----------------------------------------------------------------------

 Structure from the checkpoint file:  "SET_328_BBB20_conf1.geo_270_180_300.n.pdb.xyz.mst.n.w.chk"
 ---------------------------------------------
 SET_328_BBB20_conf1.geo_270_180_300.n.pdb.xyz
 ---------------------------------------------
 Charge =  0 Multiplicity = 1

                         Standard orientation:
 ---------------------------------------------------------------------
 Center     Atomic      Atomic             Coordinates (Angstroms)
 Number     Number       Type             X           Y           Z
 ---------------------------------------------------------------------
      1          7           0        3.927384   -2.192456    0.638769
      2          1           0        4.755222   -2.762116    0.795997
      3          1           0        3.734788   -1.760426    1.540430
      4          6           0        2.809592   -3.078638    0.269417
      5          1           0        2.440846   -3.687253    1.110902
      6          1           0        3.179330   -3.781780   -0.484527
      7          6           0        1.641289   -2.295103   -0.340907
      8          1           0        0.903982   -3.014162   -0.708787
      9          1           0        2.004640   -1.736919   -1.209070
     10          6           0        0.979018   -1.343543    0.673570
     11          1           0        1.758026   -0.842217    1.253898
     12          1           0        0.390427   -1.935814    1.381598
     13          7           0        0.098010   -0.278745    0.158081
     14          6           0        0.648806    0.999828   -0.095948
     15          6           0        2.021761    1.065350   -0.438081
     16          1           0        2.599873    0.152141   -0.496973
     17          6           0        2.664663    2.268766   -0.708627
     18          1           0        3.717211    2.260025   -0.969205
     19          6           0        1.953880    3.466877   -0.656109
     20          1           0        2.434926    4.416226   -0.868704
     21          6           0        0.611455    3.418886   -0.294212
     22          1           0        0.052292    4.347827   -0.206141
     23          6           0       -0.065315    2.225339    0.004111
     24          6           0       -1.499492    2.386466    0.476629
     25          1           0       -2.179535    2.483927   -0.380685
     26          1           0       -1.562054    3.337410    1.015930
     27          6           0       -2.027926    1.260059    1.374344
     28          1           0       -2.946352    1.592162    1.867601
     29          1           0       -1.296621    1.041948    2.161631
     30          6           0       -2.317002    0.038227    0.555250
     31          6           0       -3.630933   -0.389451    0.344593
     32          1           0       -4.434625    0.148630    0.841054
     33          6           0       -3.920584   -1.486790   -0.466296
     34          1           0       -4.947929   -1.809347   -0.604208
     35          6           0       -2.874119   -2.156627   -1.101197
     36          1           0       -3.075393   -3.002723   -1.751465
     37          6           0       -1.559150   -1.727686   -0.917804
     38          1           0       -0.757007   -2.231876   -1.439859
     39          6           0       -1.260909   -0.638169   -0.083293
 ---------------------------------------------------------------------

 SCF Done:  E(RB3LYP) =  -769.350296226     A.U. after   10 cycles

 The electronic state is 1-A.
 Alpha  occ. eigenvalues --  -14.35137 -14.30526 -10.23048 -10.22424 -10.21424
 Alpha  occ. eigenvalues --  -10.20229 -10.19262 -10.19254 -10.18885 -10.18769
 Alpha  occ. eigenvalues --  -10.18715 -10.18703 -10.18646 -10.18424 -10.18411
 Alpha  occ. eigenvalues --  -10.18297 -10.17939 -10.17858 -10.17547  -0.94695
 Alpha  occ. eigenvalues --   -0.87178  -0.85423  -0.84248  -0.79759  -0.76109
 Alpha  occ. eigenvalues --   -0.75338  -0.75200  -0.72253  -0.69941  -0.66026
 Alpha  occ. eigenvalues --   -0.64619  -0.60556  -0.59524  -0.58556  -0.57885
 Alpha  occ. eigenvalues --   -0.56227  -0.51785  -0.50325  -0.48547  -0.47647
 Alpha  occ. eigenvalues --   -0.47181  -0.46887  -0.45823  -0.45038  -0.43054
 Alpha  occ. eigenvalues --   -0.42944  -0.42554  -0.41463  -0.41126  -0.39793
 Alpha  occ. eigenvalues --   -0.39090  -0.38581  -0.37766  -0.36649  -0.36199
 Alpha  occ. eigenvalues --   -0.35875  -0.34553  -0.34398  -0.33681  -0.33199
 Alpha  occ. eigenvalues --   -0.32817  -0.32543  -0.28566  -0.24936  -0.24320
 Alpha  occ. eigenvalues --   -0.23916  -0.23493  -0.19044
 Alpha virt. eigenvalues --   -0.00706  -0.00179   0.00347   0.01325   0.08376
 Alpha virt. eigenvalues --    0.10121   0.10745   0.10873   0.11895   0.12889
 Alpha virt. eigenvalues --    0.13920   0.14246   0.14594   0.15205   0.15451

 Mulliken charges:
               1
     1  N   -0.771190
     2  H    0.332540
     3  H    0.329530
     4  C   -0.151396
     5  H    0.126374
     6  H    0.146432
     7  C   -0.254548
     8  H    0.144403
     9  H    0.148548
    10  C   -0.159432
    11  H    0.161553
    12  H    0.158003
    13  N   -0.591608
    14  C    0.249991
    15  C   -0.207647
    16  H    0.158274
    17  C   -0.170629
    18  H    0.142662
    19  C   -0.154847
    20  H    0.138540
    21  C   -0.230453
    22  H    0.137765
    23  C    0.143593
    24  C   -0.344740
    25  H    0.158784
    26  H    0.158334
    27  C   -0.351138
    28  H    0.152582
    29  H    0.157643
    30  C    0.152516
    31  C   -0.229558
    32  H    0.143327
    33  C   -0.144029
    34  H    0.146412
    35  C   -0.165984
    36  H    0.147961
    37  C   -0.170888
    38  H    0.154800
    39  C    0.207524
 Sum of Mulliken charges =   0.00000

 Dipole moment (field-independent basis, Debye):
    X=              0.0040    Y=             -2.4773    Z=              2.1445  Tot=              3.2766
 Quadrupole moment (field-independent basis, Debye-Ang):
   XX=           -101.8170   YY=           -100.6624   ZZ=           -111.9012
   XY=             -9.4164   XZ=              4.1587   YZ=              0.5890

 Normal termination of Gaussian 09 at Mon Mar 29 22:52:36 2021.
