 Gaussian 09, Revision D.01,

 -----------------
 #p b3lyp/6-31G(d)
 -----------------

 ----------------------------------------------
 SET_328_BBB272_conf1.geo_120_300_180.n.pdb.xyz
 ----------------------------------------------
 Symbolic Z-matrix:
 Charge =  0 Multiplicity = 1

 SCF Done:  E(RB3LYP) =  -648.682384601     A.U. after   15 cycles

 1\1\GINC-PIRINEUS32\SP\RB3LYP\6-31G(d)\C9H8O4\UBAFAR01\25-Jan-2021\0\\
 #p b3lyp/6-31G(d)\\SET_328_BBB272_conf1.geo_120_300_180.n.pdb.xyz\\0,1
 \C,0,-1.922,1.838,2.217\H,0,-2.675,1.047,2.254\H,0,-2.315,2.639,1.585\
 H,0,-1.729,2.223,3.218\C,0,-0.648,1.312,1.625\O,0,0.455,1.397,2.093\O,
 0,-0.908,0.686,0.429\C,0,0.144,0.185,-0.336\C,0,0.069,-1.151,-0.753\C,
 0,-1.039,-2.083,-0.372\O,0,-1.443,-2.111,0.909\H,0,-0.873,-1.567,1.481
 \O,0,-1.564,-2.825,-1.174\C,0,1.046,-1.633,-1.636\H,0,0.972,-2.658,-1.
 979\C,0,2.094,-0.819,-2.051\H,0,2.853,-1.21,-2.718\C,0,2.154,0.507,-1.

 Normal termination of Gaussian 09 at Mon Jan 25 16:23:38 2021.
 Gaussian 09:  AM64L-G09RevD.01 24-Apr-2013

 ----------------------------------------------------------------------
 #p b3lyp/6-31G(d) scrf=(iefpcm,read,solvent=Water) geom=allcheck guess
 =read
 ----------------------------------------------------------------------

 Structure from the checkpoint file:  "SET_328_BBB272_conf1.geo_120_300_180.n.pdb.xyz.mst.n.w.chk"
 ----------------------------------------------
 SET_328_BBB272_conf1.geo_120_300_180.n.pdb.xyz
 ----------------------------------------------
 Charge =  0 Multiplicity = 1

                         Standard orientation:
 ---------------------------------------------------------------------
 Center     Atomic      Atomic             Coordinates (Angstroms)
 Number     Number       Type             X           Y           Z
 ---------------------------------------------------------------------
      1          6           0        3.529714    0.294589   -0.472912
      2          1           0        3.375377    1.374600   -0.534691
      3          1           0        3.701121   -0.073290   -1.488175
      4          1           0        4.396857    0.071798    0.148298
      5          6           0        2.313785   -0.369571    0.102087
      6          8           0        2.278586   -1.137031    1.025463
      7          8           0        1.190954    0.029549   -0.583367
      8          6           0       -0.049207   -0.522295   -0.266508
      9          6           0       -1.106027    0.358497    0.001349
     10          6           0       -0.963609    1.848597    0.029041
     11          8           0        0.086114    2.381694    0.676227
     12          1           0        0.598197    1.706018    1.155031
     13          8           0       -1.773483    2.585085   -0.491616
     14          6           0       -2.390586   -0.172931    0.185838
     15          1           0       -3.211585    0.510609    0.366069
     16          6           0       -2.604060   -1.546411    0.152599
     17          1           0       -3.598235   -1.944793    0.316184
     18          6           0       -1.536041   -2.406896   -0.108682
     19          1           0       -1.696493   -3.478017   -0.151757
     20          6           0       -0.259099   -1.897754   -0.332431
     21          1           0        0.568183   -2.556260   -0.566909
 ---------------------------------------------------------------------

 SCF Done:  E(RB3LYP) =  -648.700252281     A.U. after   11 cycles

 The electronic state is 1-A.
 Alpha  occ. eigenvalues --  -19.21648 -19.20145 -19.15836 -19.14508 -10.33873
 Alpha  occ. eigenvalues --  -10.33432 -10.27338 -10.22094 -10.20960 -10.20790
 Alpha  occ. eigenvalues --  -10.20656 -10.20189 -10.19831  -1.12759  -1.10955
 Alpha  occ. eigenvalues --   -1.04407  -1.02557  -0.87512  -0.78751  -0.77608
 Alpha  occ. eigenvalues --   -0.74336  -0.66016  -0.65139  -0.61866  -0.58968
 Alpha  occ. eigenvalues --   -0.54938  -0.50644  -0.50328  -0.49577  -0.48088
 Alpha  occ. eigenvalues --   -0.46464  -0.46021  -0.44622  -0.44272  -0.42038
 Alpha  occ. eigenvalues --   -0.41381  -0.40373  -0.39428  -0.37942  -0.37306
 Alpha  occ. eigenvalues --   -0.36301  -0.33650  -0.32317  -0.29693  -0.29194
 Alpha  occ. eigenvalues --   -0.26509  -0.25856
 Alpha virt. eigenvalues --   -0.04673  -0.02132   0.00106   0.03047   0.07887
 Alpha virt. eigenvalues --    0.08974   0.12756   0.13884   0.14686   0.14795
 Alpha virt. eigenvalues --    0.16955   0.17387   0.18576   0.19165   0.22358

 Mulliken charges:
               1
     1  C   -0.527210
     2  H    0.201217
     3  H    0.209306
     4  H    0.192785
     5  C    0.607408
     6  O   -0.481732
     7  O   -0.527206
     8  C    0.310783
     9  C    0.013744
    10  C    0.551660
    11  O   -0.584061
    12  H    0.465766
    13  O   -0.500529
    14  C   -0.177708
    15  H    0.171566
    16  C   -0.137567
    17  H    0.165534
    18  C   -0.144186
    19  H    0.170348
    20  C   -0.154121
    21  H    0.174202
 Sum of Mulliken charges =   0.00000

 Dipole moment (field-independent basis, Debye):
    X=              2.4392    Y=             -3.9546    Z=              0.1737  Tot=              4.6496
 Quadrupole moment (field-independent basis, Debye-Ang):
   XX=            -62.7583   YY=            -82.1470   ZZ=            -75.0498
   XY=             14.1292   XZ=             -7.6834   YZ=              7.0678

 1\1\GINC-PIRINEUS32\SP\RB3LYP\6-31G(d)\C9H8O4\UBAFAR01\25-Jan-2021\0\\
 #p b3lyp/6-31G(d) scrf=(iefpcm,read,solvent=Water) geom=allcheck guess
 =read\\SET_328_BBB272_conf1.geo_120_300_180.n.pdb.xyz\\0,1\C,0,-1.922,
 1.838,2.217\H,0,-2.675,1.047,2.254\H,0,-2.315,2.639,1.585\H,0,-1.729,2
 .223,3.218\C,0,-0.648,1.312,1.625\O,0,0.455,1.397,2.093\O,0,-0.908,0.6
 86,0.429\C,0,0.144,0.185,-0.336\C,0,0.069,-1.151,-0.753\C,0,-1.039,-2.
 083,-0.372\O,0,-1.443,-2.111,0.909\H,0,-0.873,-1.567,1.481\O,0,-1.564,
 -2.825,-1.174\C,0,1.046,-1.633,-1.636\H,0,0.972,-2.658,-1.979\C,0,2.09

 Normal termination of Gaussian 09 at Mon Jan 25 16:24:43 2021.
