 Gaussian 09, Revision D.01,

 -----------------
 #p b3lyp/6-31G(d)
 -----------------

 ---------------------------------------------
 SET_328_BBB30_conf1.geo_105_180_195.n.pdb.xyz
 ---------------------------------------------
 Symbolic Z-matrix:
 Charge =  0 Multiplicity = 1

 SCF Done:  E(RB3LYP) =  -444.843208584     A.U. after   14 cycles
 Normal termination of Gaussian 09 at Sun Jan 24 23:12:31 2021.
 Gaussian 09:  AM64L-G09RevD.01 24-Apr-2013

 ----------------------------------------------------------------------
 #p b3lyp/6-31G(d) scrf=(iefpcm,read,solvent=Water) geom=allcheck guess
 =read
 ----------------------------------------------------------------------

 Structure from the checkpoint file:  "SET_328_BBB30_conf1.geo_105_180_195.n.pdb.xyz.mst.n.w.chk"
 ---------------------------------------------
 SET_328_BBB30_conf1.geo_105_180_195.n.pdb.xyz
 ---------------------------------------------
 Charge =  0 Multiplicity = 1

                         Standard orientation:
 ---------------------------------------------------------------------
 Center     Atomic      Atomic             Coordinates (Angstroms)
 Number     Number       Type             X           Y           Z
 ---------------------------------------------------------------------
      1          6           0       -4.048515    0.465571    0.357001
      2          1           0       -3.834239    1.387521    0.925003
      3          1           0       -4.237697   -0.331645    1.082193
      4          1           0       -4.967357    0.621104   -0.214260
      5          7           0       -2.973495    0.078512   -0.556047
      6          1           0       -2.937978    0.777366   -1.300137
      7          6           0       -1.652090    0.039052    0.085444
      8          6           0       -1.563559   -1.137947    1.060213
      9          1           0       -2.316807   -1.058534    1.847898
     10          1           0       -0.580851   -1.168754    1.536325
     11          1           0       -1.723099   -2.083611    0.529542
     12          1           0       -1.473085    0.968437    0.658613
     13          6           0       -0.579383   -0.047125   -1.019090
     14          1           0       -0.759349    0.768816   -1.731001
     15          1           0       -0.720734   -0.984836   -1.566129
     16          6           0        0.842173    0.035303   -0.514575
     17          6           0        1.664087   -1.097257   -0.499618
     18          1           0        1.268577   -2.039982   -0.865926
     19          6           0        2.978043   -1.030294   -0.029205
     20          1           0        3.597310   -1.921868   -0.029549
     21          6           0        3.492584    0.180649    0.436460
     22          1           0        4.512710    0.237207    0.801341
     23          6           0        2.684981    1.321701    0.423754
     24          1           0        3.078306    2.268553    0.777725
     25          6           0        1.373608    1.248247   -0.049692
     26          1           0        0.757188    2.143237   -0.063463
 ---------------------------------------------------------------------

 SCF Done:  E(RB3LYP) =  -444.849686229     A.U. after   10 cycles

 The electronic state is 1-A.
 Alpha  occ. eigenvalues --  -14.31159 -10.20944 -10.19533 -10.19440 -10.18944
 Alpha  occ. eigenvalues --  -10.18912 -10.18786 -10.18708 -10.18650 -10.18248
 Alpha  occ. eigenvalues --  -10.16707  -0.89770  -0.85387  -0.78218  -0.74227
 Alpha  occ. eigenvalues --   -0.73402  -0.68374  -0.65262  -0.60397  -0.58588
 Alpha  occ. eigenvalues --   -0.56117  -0.50923  -0.48662  -0.46192  -0.45726
 Alpha  occ. eigenvalues --   -0.44209  -0.43482  -0.41697  -0.40584  -0.39209
 Alpha  occ. eigenvalues --   -0.38686  -0.37969  -0.36443  -0.35275  -0.34443
 Alpha  occ. eigenvalues --   -0.33398  -0.33145  -0.32209  -0.25114  -0.24237
 Alpha  occ. eigenvalues --   -0.22211
 Alpha virt. eigenvalues --   -0.00345  -0.00030   0.08991   0.10011   0.12093
 Alpha virt. eigenvalues --    0.12478   0.14021   0.14815   0.15551   0.16469
 Alpha virt. eigenvalues --    0.16789   0.17342   0.17666   0.18192   0.19246

 Mulliken charges:
               1
     1  C   -0.312603
     2  H    0.126469
     3  H    0.155749
     4  H    0.152933
     5  N   -0.589907
     6  H    0.327484
     7  C    0.066676
     8  C   -0.455050
     9  H    0.151527
    10  H    0.150428
    11  H    0.143198
    12  H    0.110770
    13  C   -0.367353
    14  H    0.152103
    15  H    0.149799
    16  C    0.166215
    17  C   -0.202898
    18  H    0.142455
    19  C   -0.149867
    20  H    0.147576
    21  C   -0.153333
    22  H    0.146912
    23  C   -0.151073
    24  H    0.147678
    25  C   -0.198803
    26  H    0.142916
 Sum of Mulliken charges =   0.00000

 Dipole moment (field-independent basis, Debye):
    X=             -0.0846    Y=              1.3801    Z=              0.0984  Tot=              1.3861
 Quadrupole moment (field-independent basis, Debye-Ang):
   XX=            -64.1257   YY=            -63.4605   ZZ=            -68.8996
   XY=             -4.9200   XZ=              1.3321   YZ=             -0.4459

 Normal termination of Gaussian 09 at Sun Jan 24 23:13:33 2021.
