 Gaussian 09, Revision D.01,

 -----------------
 #p b3lyp/6-31G(d)
 -----------------

 ----------------------------------------------
 SET_328_BBB321_conf1.geo_165_210_060.n.pdb.xyz
 ----------------------------------------------
 Symbolic Z-matrix:
 Charge =  0 Multiplicity = 1

 SCF Done:  E(RB3LYP) =  -1212.31189255     A.U. after   16 cycles
 Normal termination of Gaussian 09 at Thu Jan 28 04:44:13 2021.
 Gaussian 09:  AM64L-G09RevD.01 24-Apr-2013

 ----------------------------------------------------------------------
 #p b3lyp/6-31G(d) scrf=(iefpcm,read,solvent=Water) geom=allcheck guess
 =read
 ----------------------------------------------------------------------

 Structure from the checkpoint file:  "SET_328_BBB321_conf1.geo_165_210_060.n.pdb.xyz.mst.n.w.chk"
 ----------------------------------------------
 SET_328_BBB321_conf1.geo_165_210_060.n.pdb.xyz
 ----------------------------------------------
 Charge =  0 Multiplicity = 1

                         Standard orientation:
 ---------------------------------------------------------------------
 Center     Atomic      Atomic             Coordinates (Angstroms)
 Number     Number       Type             X           Y           Z
 ---------------------------------------------------------------------
      1          6           0       -6.307925   -0.854266    0.203434
      2          1           0       -6.685335   -1.073696   -0.800725
      3          1           0       -6.778899    0.065683    0.554311
      4          1           0       -6.595226   -1.680822    0.856370
      5          6           0       -4.794338   -0.769374    0.156849
      6          8           0       -4.091028   -1.780987    0.163591
      7          7           0       -4.300405    0.505817    0.083026
      8          1           0       -4.989877    1.249530    0.083204
      9          6           0       -2.962595    0.937581   -0.019801
     10          6           0       -2.744661    2.320969   -0.127419
     11          6           0       -1.448672    2.813830   -0.222107
     12          6           0       -0.354831    1.946870   -0.213576
     13          1           0        0.654199    2.329100   -0.290784
     14          1           0       -1.288680    3.883167   -0.303890
     15          1           0       -3.589815    3.001709   -0.133532
     16          6           0       -1.870587    0.065490   -0.008965
     17          1           0       -2.053512   -0.993568    0.087427
     18          6           0       -0.560411    0.563572   -0.110245
     19          6           0        0.592989   -0.357958   -0.108984
     20          7           0        1.874656    0.165933   -0.013335
     21          6           0        0.526889   -1.721903   -0.201648
     22          1           0       -0.347034   -2.348334   -0.300115
     23         16           0        2.120476   -2.413557   -0.169866
     24          6           0        2.803687   -0.771318   -0.029861
     25          7           0        4.149679   -0.684029    0.041079
     26          6           0        4.751960    0.498794    0.155784
     27          7           0        4.128041    1.685611    0.272374
     28          1           0        4.653774    2.550188    0.240922
     29          1           0        3.117305    1.695661    0.163296
     30          7           0        6.112888    0.503039    0.133641
     31          1           0        6.600665    1.309786    0.503178
     32          1           0        6.559996   -0.391908    0.291202
 ---------------------------------------------------------------------

 SCF Done:  E(RB3LYP) =  -1212.34589188     A.U. after   12 cycles

 The electronic state is 1-A.
 Alpha  occ. eigenvalues --  -88.90219 -19.12337 -14.37568 -14.35151 -14.34980
 Alpha  occ. eigenvalues --  -14.32468 -14.31195 -10.30782 -10.29912 -10.27749
 Alpha  occ. eigenvalues --  -10.23930 -10.22461 -10.20735 -10.20426 -10.19341
 Alpha  occ. eigenvalues --  -10.19230 -10.18753 -10.18657 -10.18566  -7.96407
 Alpha  occ. eigenvalues --   -5.92796  -5.92463  -5.92087  -1.03999  -0.99835
 Alpha  occ. eigenvalues --   -0.95527  -0.94201  -0.87954  -0.87687  -0.85113
 Alpha  occ. eigenvalues --   -0.78897  -0.77522  -0.75915  -0.72229  -0.71028
 Alpha  occ. eigenvalues --   -0.64278  -0.63648  -0.61216  -0.58435  -0.57957
 Alpha  occ. eigenvalues --   -0.56531  -0.54544  -0.52601  -0.51193  -0.49331
 Alpha  occ. eigenvalues --   -0.48260  -0.48046  -0.47123  -0.45233  -0.44719
 Alpha  occ. eigenvalues --   -0.43807  -0.43491  -0.42566  -0.40901  -0.40733
 Alpha  occ. eigenvalues --   -0.40190  -0.39846  -0.39155  -0.37470  -0.36416
 Alpha  occ. eigenvalues --   -0.35961  -0.34272  -0.31808  -0.29589  -0.28326
 Alpha  occ. eigenvalues --   -0.28149  -0.27492  -0.26945  -0.25830  -0.24909
 Alpha  occ. eigenvalues --   -0.22357  -0.19502
 Alpha virt. eigenvalues --   -0.03395  -0.01705  -0.00580   0.02389   0.03832
 Alpha virt. eigenvalues --    0.07101   0.08775   0.09225   0.09973   0.10196
 Alpha virt. eigenvalues --    0.11498   0.12959   0.13628   0.14183   0.14679

 Mulliken charges:
               1
     1  C   -0.542688
     2  H    0.197365
     3  H    0.177525
     4  H    0.185503
     5  C    0.600636
     6  O   -0.557024
     7  N   -0.710702
     8  H    0.388524
     9  C    0.341156
    10  C   -0.206394
    11  C   -0.156427
    12  C   -0.199189
    13  H    0.154932
    14  H    0.152723
    15  H    0.157295
    16  C   -0.248646
    17  H    0.173465
    18  C    0.097325
    19  C    0.276641
    20  N   -0.585629
    21  C   -0.430414
    22  H    0.197826
    23  S    0.181342
    24  C    0.305553
    25  N   -0.617956
    26  C    0.664307
    27  N   -0.784195
    28  H    0.390819
    29  H    0.399254
    30  N   -0.772680
    31  H    0.387074
    32  H    0.382682
 Sum of Mulliken charges =   0.00000

 Dipole moment (field-independent basis, Debye):
    X=              1.0529    Y=              8.6065    Z=              0.9696  Tot=              8.7247
 Quadrupole moment (field-independent basis, Debye-Ang):
   XX=            -38.7735   YY=           -107.9848   ZZ=           -121.2163
   XY=              7.6087   XZ=              8.3872   YZ=              1.3662

 Normal termination of Gaussian 09 at Thu Jan 28 04:47:30 2021.
