 Gaussian 09, Revision D.01,

 -----------------
 #p b3lyp/6-31G(d)
 -----------------

 ----------------------------------------------
 SET_328_BBB292_conf1.geo_255_060_255.n.pdb.xyz
 ----------------------------------------------
 Symbolic Z-matrix:
 Charge =  0 Multiplicity = 1

 SCF Done:  E(RB3LYP) =  -705.207577786     A.U. after   15 cycles
 Normal termination of Gaussian 09 at Mon Jan 25 16:25:43 2021.
 Gaussian 09:  AM64L-G09RevD.01 24-Apr-2013

 ----------------------------------------------------------------------
 #p b3lyp/6-31G(d) scrf=(iefpcm,read,solvent=Water) geom=allcheck guess
 =read
 ----------------------------------------------------------------------

 Structure from the checkpoint file:  "SET_328_BBB292_conf1.geo_255_060_255.n.pdb.xyz.mst.n.w.chk"
 ----------------------------------------------
 SET_328_BBB292_conf1.geo_255_060_255.n.pdb.xyz
 ----------------------------------------------
 Charge =  0 Multiplicity = 1

                         Standard orientation:
 ---------------------------------------------------------------------
 Center     Atomic      Atomic             Coordinates (Angstroms)
 Number     Number       Type             X           Y           Z
 ---------------------------------------------------------------------
      1          7           0       -3.755321   -0.928866   -0.416586
      2          1           0       -4.447007   -0.815218    0.323584
      3          1           0       -3.780777   -1.915857   -0.663518
      4          6           0       -2.424393   -0.632545    0.117758
      5          6           0       -2.361668    0.836558    0.523008
      6          8           0       -1.707880    1.000901    1.686227
      7          1           0       -1.653702    1.963497    1.868669
      8          8           0       -2.812923    1.762582   -0.123509
      9          1           0       -2.157561   -1.226022    1.003270
     10          6           0       -1.375028   -0.907488   -0.988219
     11          1           0       -1.614369   -0.261630   -1.838953
     12          1           0       -1.531913   -1.941420   -1.313163
     13          6           0        0.062647   -0.718279   -0.563366
     14          6           0        0.739228    0.476746   -0.852310
     15          1           0        0.228755    1.265530   -1.397479
     16          6           0        2.061686    0.676612   -0.457327
     17          8           0        2.763272    1.819223   -0.716596
     18          1           0        2.192182    2.442722   -1.200485
     19          6           0        2.740601   -0.339595    0.243400
     20          8           0        4.036450   -0.089312    0.594063
     21          1           0        4.393803   -0.865783    1.059136
     22          6           0        2.072470   -1.528140    0.533129
     23          1           0        2.594631   -2.312157    1.071110
     24          6           0        0.747691   -1.717784    0.130997
     25          1           0        0.252457   -2.655266    0.360030
 ---------------------------------------------------------------------

 SCF Done:  E(RB3LYP) =  -705.245906021     A.U. after   11 cycles

 The electronic state is 1-A.
 Alpha  occ. eigenvalues --  -19.19355 -19.17305 -19.17269 -19.13996 -14.31285
 Alpha  occ. eigenvalues --  -10.31873 -10.24617 -10.24507 -10.22555 -10.19225
 Alpha  occ. eigenvalues --  -10.19147 -10.18766 -10.18622 -10.18296  -1.10225
 Alpha  occ. eigenvalues --   -1.06291  -1.04158  -1.01252  -0.88874  -0.84923
 Alpha  occ. eigenvalues --   -0.77464  -0.73922  -0.71860  -0.66939  -0.63075
 Alpha  occ. eigenvalues --   -0.59609  -0.56985  -0.54078  -0.52960  -0.50650
 Alpha  occ. eigenvalues --   -0.49065  -0.48105  -0.46403  -0.45787  -0.43695
 Alpha  occ. eigenvalues --   -0.43207  -0.42591  -0.42323  -0.40488  -0.39351
 Alpha  occ. eigenvalues --   -0.38376  -0.37212  -0.36142  -0.35920  -0.34486
 Alpha  occ. eigenvalues --   -0.33939  -0.32105  -0.31320  -0.27567  -0.24546
 Alpha  occ. eigenvalues --   -0.23645  -0.20464
 Alpha virt. eigenvalues --    0.00033   0.01047   0.01448   0.08690   0.09455
 Alpha virt. eigenvalues --    0.10181   0.10588   0.10610   0.13773   0.14896
 Alpha virt. eigenvalues --    0.16480   0.17645   0.18316   0.19652   0.20611

 Mulliken charges:
               1
     1  N   -0.774496
     2  H    0.337893
     3  H    0.337001
     4  C   -0.018866
     5  C    0.599725
     6  O   -0.582110
     7  H    0.456382
     8  O   -0.525079
     9  H    0.147570
    10  C   -0.369312
    11  H    0.162190
    12  H    0.164390
    13  C    0.160770
    14  C   -0.276876
    15  H    0.148397
    16  C    0.312408
    17  O   -0.678731
    18  H    0.457880
    19  C    0.302184
    20  O   -0.676597
    21  H    0.457383
    22  C   -0.215714
    23  H    0.152690
    24  C   -0.219334
    25  H    0.140252
 Sum of Mulliken charges =   0.00000

 Dipole moment (field-independent basis, Debye):
    X=             -0.0229    Y=             -3.1033    Z=              2.5226  Tot=              3.9993
 Quadrupole moment (field-independent basis, Debye-Ang):
   XX=            -85.3591   YY=            -67.7972   ZZ=            -77.5210
   XY=              2.6786   XZ=             -4.2345   YZ=             -1.5696

 Normal termination of Gaussian 09 at Mon Jan 25 16:27:21 2021.
