 Gaussian 09, Revision D.01,

 -----------------
 #p b3lyp/6-31G(d)
 -----------------

 ----------------------------------------------
 SET_328_BBB301_conf1.geo_165_120_315.n.pdb.xyz
 ----------------------------------------------
 Symbolic Z-matrix:
 Charge =  0 Multiplicity = 1

 SCF Done:  E(RB3LYP) =  -788.430290734     A.U. after   14 cycles
 Normal termination of Gaussian 09 at Mon Jan 25 16:27:10 2021.
 Gaussian 09:  AM64L-G09RevD.01 24-Apr-2013

 ----------------------------------------------------------------------
 #p b3lyp/6-31G(d) scrf=(iefpcm,read,solvent=Water) geom=allcheck guess
 =read
 ----------------------------------------------------------------------

 Structure from the checkpoint file:  "SET_328_BBB301_conf1.geo_165_120_315.n.pdb.xyz.mst.n.w.chk"
 ----------------------------------------------
 SET_328_BBB301_conf1.geo_165_120_315.n.pdb.xyz
 ----------------------------------------------
 Charge =  0 Multiplicity = 1

                         Standard orientation:
 ---------------------------------------------------------------------
 Center     Atomic      Atomic             Coordinates (Angstroms)
 Number     Number       Type             X           Y           Z
 ---------------------------------------------------------------------
      1          6           0        5.379852   -0.408019    0.462184
      2          1           0        6.266645   -0.361921   -0.174934
      3          1           0        5.401247   -1.360715    1.002467
      4          1           0        5.435338    0.403988    1.194944
      5          6           0        4.104335   -0.286831   -0.380466
      6          6           0        4.112587    1.058084   -1.117399
      7          1           0        5.002341    1.132370   -1.750197
      8          1           0        4.126964    1.886561   -0.401429
      9          1           0        3.238113    1.177867   -1.763561
     10          6           0        4.044116   -1.441658   -1.391793
     11          1           0        4.906909   -1.416559   -2.065023
     12          1           0        3.138977   -1.386395   -2.005202
     13          1           0        4.046002   -2.407350   -0.875102
     14          7           0        2.968114   -0.321536    0.571559
     15          1           0        3.081206   -1.141062    1.169853
     16          6           0        1.616118   -0.346819    0.008099
     17          1           0        1.317502   -1.320334   -0.403481
     18          1           0        1.562888    0.385371   -0.800229
     19          6           0        0.626021    0.080341    1.113163
     20          8           0        1.131732    1.259529    1.728470
     21          1           0        2.105395    1.135377    1.653965
     22          1           0        0.568436   -0.736669    1.850451
     23          6           0       -0.762054    0.324012    0.568346
     24          6           0       -1.713618   -0.700154    0.562617
     25          1           0       -1.460166   -1.665771    0.995263
     26          6           0       -2.985803   -0.527358    0.013312
     27          6           0       -3.954523   -1.675990   -0.063880
     28          8           0       -5.267410   -1.214878    0.302814
     29          1           0       -5.909332   -1.879265   -0.003454
     30          1           0       -3.631204   -2.483178    0.601914
     31          1           0       -3.981722   -2.079904   -1.085052
     32          6           0       -3.326926    0.731668   -0.517697
     33          8           0       -4.555783    0.975152   -1.053770
     34          1           0       -5.154599    0.252538   -0.745836
     35          6           0       -2.391589    1.770599   -0.505282
     36          1           0       -2.680497    2.734321   -0.908666
     37          6           0       -1.119674    1.563584    0.023504
     38          1           0       -0.398602    2.374313    0.044036
 ---------------------------------------------------------------------

 SCF Done:  E(RB3LYP) =  -788.452118467     A.U. after   11 cycles

 The electronic state is 1-A.
 Alpha  occ. eigenvalues --  -19.16179 -19.16118 -19.12923 -14.32134 -10.24534
 Alpha  occ. eigenvalues --  -10.24043 -10.23151 -10.21994 -10.20320 -10.19285
 Alpha  occ. eigenvalues --  -10.18987 -10.18693 -10.18580 -10.18319 -10.16980
 Alpha  occ. eigenvalues --  -10.16880 -10.16802  -1.04996  -1.02274  -1.00884
 Alpha  occ. eigenvalues --   -0.90551  -0.85259  -0.78570  -0.76921  -0.75411
 Alpha  occ. eigenvalues --   -0.69663  -0.68342  -0.68165  -0.67606  -0.62144
 Alpha  occ. eigenvalues --   -0.60758  -0.57004  -0.54970  -0.53449  -0.51635
 Alpha  occ. eigenvalues --   -0.49625  -0.48551  -0.47412  -0.46502  -0.45891
 Alpha  occ. eigenvalues --   -0.44255  -0.43808  -0.43394  -0.42465  -0.42035
 Alpha  occ. eigenvalues --   -0.41314  -0.40319  -0.39113  -0.37975  -0.37614
 Alpha  occ. eigenvalues --   -0.37009  -0.36781  -0.36302  -0.36053  -0.34670
 Alpha  occ. eigenvalues --   -0.33395  -0.32989  -0.32540  -0.32279  -0.31405
 Alpha  occ. eigenvalues --   -0.28723  -0.26294  -0.24813  -0.23287  -0.21216
 Alpha virt. eigenvalues --   -0.00581   0.00882   0.07578   0.08188   0.10758
 Alpha virt. eigenvalues --    0.11460   0.12638   0.12829   0.13335   0.13627
 Alpha virt. eigenvalues --    0.14446   0.14856   0.16001   0.16178   0.16485

 Mulliken charges:
               1
     1  C   -0.458063
     2  H    0.150401
     3  H    0.145234
     4  H    0.148656
     5  C    0.215460
     6  C   -0.450861
     7  H    0.148383
     8  H    0.148152
     9  H    0.150366
    10  C   -0.454147
    11  H    0.146619
    12  H    0.150525
    13  H    0.143221
    14  N   -0.609786
    15  H    0.332501
    16  C   -0.147791
    17  H    0.138755
    18  H    0.154351
    19  C    0.073202
    20  O   -0.694284
    21  H    0.412913
    22  H    0.121503
    23  C    0.138485
    24  C   -0.277261
    25  H    0.142102
    26  C    0.100136
    27  C   -0.123733
    28  O   -0.662923
    29  H    0.457515
    30  H    0.161527
    31  H    0.167433
    32  C    0.289589
    33  O   -0.698111
    34  H    0.444830
    35  C   -0.189864
    36  H    0.142518
    37  C   -0.201858
    38  H    0.144304
 Sum of Mulliken charges =   0.00000

 Dipole moment (field-independent basis, Debye):
    X=              1.2009    Y=             -6.8131    Z=             -1.8420  Tot=              7.1592
 Quadrupole moment (field-independent basis, Debye-Ang):
   XX=            -79.5990   YY=            -96.0585   ZZ=           -109.1419
   XY=             16.7313   XZ=              2.0729   YZ=             -3.3394

 Normal termination of Gaussian 09 at Mon Jan 25 16:30:10 2021.
