 Gaussian 09, Revision D.01,

 -----------------
 #p b3lyp/6-31G(d)
 -----------------

 ----------------------------------------------
 SET_328_BBB324_conf1.geo_180_315_180.n.pdb.xyz
 ----------------------------------------------
 Symbolic Z-matrix:
 Charge =  0 Multiplicity = 1

 SCF Done:  E(RB3LYP) =  -1692.24044332     A.U. after   17 cycles
 Normal termination of Gaussian 09 at Thu Jan 28 05:00:13 2021.
 Gaussian 09:  AM64L-G09RevD.01 24-Apr-2013

 ----------------------------------------------------------------------
 #p b3lyp/6-31G(d) scrf=(iefpcm,read,solvent=Water) geom=allcheck guess
 =read
 ----------------------------------------------------------------------

 Structure from the checkpoint file:  "SET_328_BBB324_conf1.geo_180_315_180.n.pdb.xyz.mst.n.w.chk"
 ----------------------------------------------
 SET_328_BBB324_conf1.geo_180_315_180.n.pdb.xyz
 ----------------------------------------------
 Charge =  0 Multiplicity = 1

                         Standard orientation:
 ---------------------------------------------------------------------
 Center     Atomic      Atomic             Coordinates (Angstroms)
 Number     Number       Type             X           Y           Z
 ---------------------------------------------------------------------
      1          6           0        0.269115   -2.294611   -1.091124
      2          1           0        0.863708   -2.908776   -1.761743
      3          1           0       -0.443653   -1.703641   -1.674733
      4          1           0       -0.283222   -2.931810   -0.395996
      5          7           0        1.171947   -1.426301   -0.344068
      6          6           0        0.575771   -0.511892    0.634247
      7          1           0        1.185507   -0.502628    1.542235
      8          1           0       -0.414236   -0.880665    0.894554
      9          6           0        0.470761    0.858321    0.060332
     10          6           0       -0.556177    1.689038   -0.338411
     11          6           0       -1.986315    1.450709   -0.238664
     12          7           0       -2.881915    2.317482   -0.660562
     13          8           0       -4.106733    1.678926   -0.371798
     14          6           0       -3.805106    0.503137    0.193939
     15          7           0       -2.524145    0.301502    0.307270
     16          6           0       -4.915359   -0.440993    0.568990
     17          6           0       -4.685374   -1.010500    1.977113
     18          1           0       -3.709263   -1.492939    2.055758
     19          1           0       -5.462855   -1.749835    2.189776
     20          1           0       -4.745590   -0.210531    2.717894
     21          8           0       -6.132104    0.288709    0.507699
     22          1           0       -6.826826   -0.393284    0.403636
     23          6           0       -4.958754   -1.569754   -0.489303
     24          8           0       -6.117811   -2.344494   -0.211737
     25          1           0       -6.501924   -2.628436   -1.056320
     26          1           0       -4.048328   -2.176965   -0.428831
     27          1           0       -5.013937   -1.119327   -1.486089
     28          7           0       -0.048009    2.860104   -0.879838
     29          6           0        1.254920    2.740796   -0.809105
     30          1           0        1.979819    3.461108   -1.155298
     31          7           0        1.631657    1.542826   -0.251400
     32          6           0        2.944259    1.114789    0.086353
     33          6           0        3.842791    2.071431    0.565318
     34          1           0        3.521497    3.101204    0.655935
     35          6           0        5.121790    1.688210    0.946016
     36          1           0        5.820131    2.427519    1.321078
     37          6           0        5.496910    0.346892    0.888189
     38          1           0        6.475815    0.028064    1.222287
     39          6           0        4.595438   -0.592494    0.399812
     40         17           0        5.115915   -2.271041    0.399499
     41          6           0        3.305897   -0.242603   -0.038600
     42          6           0        2.451393   -1.259132   -0.770017
     43          8           0        2.938436   -1.889227   -1.712408
 ---------------------------------------------------------------------

 SCF Done:  E(RB3LYP) =  -1692.27140920     A.U. after   12 cycles

 The electronic state is 1-A.
 Alpha  occ. eigenvalues -- -101.55883 -19.25562 -19.15757 -19.15129 -19.12834
 Alpha  occ. eigenvalues --  -14.42075 -14.39419 -14.38200 -14.35141 -14.33970
 Alpha  occ. eigenvalues --  -10.30732 -10.30248 -10.27307 -10.27261 -10.26947
 Alpha  occ. eigenvalues --  -10.26813 -10.26086 -10.24596 -10.24319 -10.24179
 Alpha  occ. eigenvalues --  -10.23537 -10.23394 -10.21656 -10.21567 -10.21460
 Alpha  occ. eigenvalues --  -10.21445 -10.18083  -9.47510  -7.23918  -7.22947
 Alpha  occ. eigenvalues --   -7.22885  -1.17178  -1.05299  -1.04433  -1.04377
 Alpha  occ. eigenvalues --   -1.01542  -0.95366  -0.95118  -0.92648  -0.89941
 Alpha  occ. eigenvalues --   -0.88087  -0.84673  -0.80020  -0.78711  -0.78239
 Alpha  occ. eigenvalues --   -0.75295  -0.73193  -0.71150  -0.69422  -0.67877
 Alpha  occ. eigenvalues --   -0.66313  -0.65809  -0.63332  -0.60141  -0.59046
 Alpha  occ. eigenvalues --   -0.57776  -0.57140  -0.54409  -0.53312  -0.53007
 Alpha  occ. eigenvalues --   -0.51569  -0.50776  -0.50037  -0.49236  -0.48621
 Alpha  occ. eigenvalues --   -0.48356  -0.47464  -0.47047  -0.46212  -0.45261
 Alpha  occ. eigenvalues --   -0.44946  -0.43330  -0.43212  -0.42761  -0.42139
 Alpha  occ. eigenvalues --   -0.41999  -0.41756  -0.40650  -0.39715  -0.39614
 Alpha  occ. eigenvalues --   -0.39254  -0.38588  -0.37994  -0.37838  -0.36357
 Alpha  occ. eigenvalues --   -0.36180  -0.34967  -0.34575  -0.33811  -0.32411
 Alpha  occ. eigenvalues --   -0.31725  -0.31175  -0.30086  -0.29769  -0.28950
 Alpha  occ. eigenvalues --   -0.28077  -0.27205  -0.26123  -0.26027  -0.25325
 Alpha  occ. eigenvalues --   -0.23790
 Alpha virt. eigenvalues --   -0.04893  -0.04421  -0.03335  -0.00205   0.01393
 Alpha virt. eigenvalues --    0.02088   0.02702   0.06606   0.08963   0.09832
 Alpha virt. eigenvalues --    0.10634   0.10834   0.11938   0.12177   0.13082

 Mulliken charges:
               1
     1  C   -0.328593
     2  H    0.193783
     3  H    0.179487
     4  H    0.181622
     5  N   -0.391687
     6  C   -0.266189
     7  H    0.208638
     8  H    0.222279
     9  C    0.334505
    10  C    0.121667
    11  C    0.434427
    12  N   -0.276381
    13  O   -0.373959
    14  C    0.623400
    15  N   -0.564221
    16  C    0.207160
    17  C   -0.462110
    18  H    0.167123
    19  H    0.169759
    20  H    0.166295
    21  O   -0.686399
    22  H    0.435949
    23  C   -0.042073
    24  O   -0.658953
    25  H    0.457620
    26  H    0.152261
    27  H    0.162935
    28  N   -0.561467
    29  C    0.227363
    30  H    0.208985
    31  N   -0.558955
    32  C    0.292640
    33  C   -0.153714
    34  H    0.186976
    35  C   -0.140293
    36  H    0.181776
    37  C   -0.126587
    38  H    0.184181
    39  C   -0.133838
    40  Cl  -0.008502
    41  C    0.053070
    42  C    0.544229
    43  O   -0.564210
 Sum of Mulliken charges =   0.00000

 Dipole moment (field-independent basis, Debye):
    X=              0.6609    Y=             -2.7686    Z=              3.2178  Tot=              4.2961
 Quadrupole moment (field-independent basis, Debye-Ang):
   XX=           -138.2130   YY=           -169.6513   ZZ=           -161.3787
   XY=             55.1405   XZ=             22.4881   YZ=              7.0854

 Normal termination of Gaussian 09 at Thu Jan 28 05:08:31 2021.
