 Gaussian 09, Revision D.01,

 -----------------
 #p b3lyp/6-31G(d)
 -----------------

 ----------------------------------------------
 SET_328_BBB268_conf1.geo_225_240_255.n.pdb.xyz
 ----------------------------------------------
 Symbolic Z-matrix:
 Charge =  0 Multiplicity = 1

 SCF Done:  E(RB3LYP) =  -976.175451777     A.U. after   16 cycles
 Normal termination of Gaussian 09 at Sun Jan 24 23:13:48 2021.
 Gaussian 09:  AM64L-G09RevD.01 24-Apr-2013

 ----------------------------------------------------------------------
 #p b3lyp/6-31G(d) scrf=(iefpcm,read,solvent=Water) geom=allcheck guess
 =read
 ----------------------------------------------------------------------

 Structure from the checkpoint file:  "SET_328_BBB268_conf1.geo_225_240_255.n.pdb.xyz.mst.n.w.chk"
 ----------------------------------------------
 SET_328_BBB268_conf1.geo_225_240_255.n.pdb.xyz
 ----------------------------------------------
 Charge =  0 Multiplicity = 1

                         Standard orientation:
 ---------------------------------------------------------------------
 Center     Atomic      Atomic             Coordinates (Angstroms)
 Number     Number       Type             X           Y           Z
 ---------------------------------------------------------------------
      1          6           0        1.644802    4.333327    1.217077
      2          1           0        1.962642    3.726925    2.061961
      3          1           0        0.882997    5.048069    1.544702
      4          1           0        2.498846    4.893689    0.821989
      5          7           0        1.103723    3.454509    0.187937
      6          6           0        0.657372    4.125659   -1.023680
      7          1           0        1.493013    4.660889   -1.487001
      8          1           0       -0.123572    4.854538   -0.783844
      9          1           0        0.258911    3.416525   -1.742516
     10          6           0        1.019981    2.117246    0.418413
     11          8           0        1.391149    1.602069    1.479907
     12          6           0        0.439155    1.250596   -0.713761
     13          1           0        1.005453    1.428763   -1.636182
     14          1           0       -0.580156    1.582598   -0.920559
     15          6           0        0.411280   -0.201729   -0.385538
     16          6           0       -0.623280   -1.090420   -0.101985
     17          6           0       -2.075396   -0.836012   -0.085180
     18          6           0       -2.704599    0.013594   -1.011288
     19          6           0       -4.081220    0.221584   -0.971747
     20          6           0       -4.885974   -0.415397   -0.017287
     21          6           0       -6.376619   -0.192761    0.025071
     22          1           0       -6.620859    0.860985    0.195051
     23          1           0       -6.834161   -0.777839    0.826406
     24          1           0       -6.851602   -0.482178   -0.917529
     25          6           0       -4.258626   -1.275962    0.892868
     26          6           0       -2.882086   -1.485212    0.861538
     27          1           0       -2.418714   -2.153383    1.578288
     28          1           0       -4.861737   -1.785157    1.638875
     29          1           0       -4.539033    0.880803   -1.704433
     30          1           0       -2.120545    0.491804   -1.789648
     31          7           0       -0.140413   -2.339671    0.207334
     32          6           0        1.185802   -2.245716    0.104646
     33          6           0        2.199852   -3.212058    0.291203
     34          1           0        1.910117   -4.217123    0.573563
     35          6           0        3.513237   -2.855753    0.114910
     36          1           0        4.297543   -3.592229    0.256401
     37          6           0        3.876626   -1.524038   -0.255410
     38          6           0        5.321684   -1.143826   -0.446696
     39          1           0        5.897688   -1.303313    0.471703
     40          1           0        5.418146   -0.092884   -0.730392
     41          1           0        5.788945   -1.751697   -1.229298
     42          6           0        2.886005   -0.597019   -0.430842
     43          1           0        3.078129    0.430279   -0.705279
     44          7           0        1.568231   -0.951013   -0.260328
 ---------------------------------------------------------------------

 SCF Done:  E(RB3LYP) =  -976.191890104     A.U. after   11 cycles

 The electronic state is 1-A.
 Alpha  occ. eigenvalues --  -19.11568 -14.41250 -14.36981 -14.31463 -10.29239
 Alpha  occ. eigenvalues --  -10.24990 -10.23379 -10.22280 -10.21763 -10.21703
 Alpha  occ. eigenvalues --  -10.20934 -10.20921 -10.20725 -10.20164 -10.20006
 Alpha  occ. eigenvalues --  -10.19979 -10.19832 -10.19190 -10.18844 -10.18789
 Alpha  occ. eigenvalues --  -10.18719 -10.18495 -10.17943  -1.03673  -1.02948
 Alpha  occ. eigenvalues --   -0.93538  -0.90817  -0.85802  -0.84112  -0.79708
 Alpha  occ. eigenvalues --   -0.77474  -0.76752  -0.74462  -0.72913  -0.71591
 Alpha  occ. eigenvalues --   -0.70697  -0.68792  -0.67458  -0.62650  -0.61928
 Alpha  occ. eigenvalues --   -0.60809  -0.59473  -0.56674  -0.54731  -0.51825
 Alpha  occ. eigenvalues --   -0.50714  -0.49811  -0.49531  -0.48041  -0.47562
 Alpha  occ. eigenvalues --   -0.46441  -0.46330  -0.46097  -0.45123  -0.44754
 Alpha  occ. eigenvalues --   -0.42507  -0.42219  -0.41841  -0.41661  -0.41552
 Alpha  occ. eigenvalues --   -0.40572  -0.40298  -0.40072  -0.40032  -0.39032
 Alpha  occ. eigenvalues --   -0.38338  -0.37934  -0.37722  -0.36255  -0.36106
 Alpha  occ. eigenvalues --   -0.35800  -0.34412  -0.33780  -0.32972  -0.31501
 Alpha  occ. eigenvalues --   -0.28203  -0.26280  -0.25775  -0.25279  -0.24335
 Alpha  occ. eigenvalues --   -0.22136  -0.20467
 Alpha virt. eigenvalues --   -0.03625  -0.01196  -0.00466   0.01165   0.02303
 Alpha virt. eigenvalues --    0.07245   0.08940   0.10341   0.10796   0.11823
 Alpha virt. eigenvalues --    0.12206   0.12797   0.13285   0.13645   0.13996

 Mulliken charges:
               1
     1  C   -0.323552
     2  H    0.186600
     3  H    0.170366
     4  H    0.169867
     5  N   -0.405906
     6  C   -0.322277
     7  H    0.175550
     8  H    0.175917
     9  H    0.193387
    10  C    0.618750
    11  O   -0.585205
    12  C   -0.515900
    13  H    0.203467
    14  H    0.211321
    15  C    0.336403
    16  C    0.080012
    17  C    0.087826
    18  C   -0.198817
    19  C   -0.205438
    20  C    0.170100
    21  C   -0.534947
    22  H    0.170463
    23  H    0.164773
    24  H    0.170691
    25  C   -0.208485
    26  C   -0.179711
    27  H    0.145969
    28  H    0.143229
    29  H    0.143682
    30  H    0.154835
    31  N   -0.635748
    32  C    0.529925
    33  C   -0.204529
    34  H    0.166161
    35  C   -0.164169
    36  H    0.158427
    37  C    0.103899
    38  C   -0.531969
    39  H    0.174437
    40  H    0.169876
    41  H    0.174008
    42  C    0.015104
    43  H    0.186597
    44  N   -0.534990
 Sum of Mulliken charges =   0.00000

 Dipole moment (field-independent basis, Debye):
    X=              2.3784    Y=              6.5505    Z=             -4.5486  Tot=              8.3220
 Quadrupole moment (field-independent basis, Debye-Ang):
   XX=           -106.3026   YY=           -115.3051   ZZ=           -135.9345
   XY=             -5.8493   XZ=             -5.3516   YZ=             -9.3676

 Normal termination of Gaussian 09 at Sun Jan 24 23:20:12 2021.
