 Gaussian 09, Revision D.01,

 -----------------
 #p b3lyp/6-31G(d)
 -----------------

 ----------------------------------------------
 SET_328_BBB321_conf1.geo_165_150_255.n.pdb.xyz
 ----------------------------------------------
 Symbolic Z-matrix:
 Charge =  0 Multiplicity = 1

 SCF Done:  E(RB3LYP) =  -1212.31177201     A.U. after   16 cycles
 Normal termination of Gaussian 09 at Thu Jan 28 04:44:09 2021.
 Gaussian 09:  AM64L-G09RevD.01 24-Apr-2013

 ----------------------------------------------------------------------
 #p b3lyp/6-31G(d) scrf=(iefpcm,read,solvent=Water) geom=allcheck guess
 =read
 ----------------------------------------------------------------------

 Structure from the checkpoint file:  "SET_328_BBB321_conf1.geo_165_150_255.n.pdb.xyz.mst.n.w.chk"
 ----------------------------------------------
 SET_328_BBB321_conf1.geo_165_150_255.n.pdb.xyz
 ----------------------------------------------
 Charge =  0 Multiplicity = 1

                         Standard orientation:
 ---------------------------------------------------------------------
 Center     Atomic      Atomic             Coordinates (Angstroms)
 Number     Number       Type             X           Y           Z
 ---------------------------------------------------------------------
      1          6           0       -6.429228    1.177967    0.236326
      2          1           0       -6.009642    2.184418    0.274845
      3          1           0       -7.016307    1.002692    1.141352
      4          1           0       -7.110040    1.109410   -0.615242
      5          6           0       -5.385062    0.084762    0.112634
      6          8           0       -5.710402   -1.102570    0.053310
      7          7           0       -4.091150    0.527613    0.075561
      8          1           0       -3.962896    1.530419    0.135770
      9          6           0       -2.900056   -0.221927   -0.026108
     10          6           0       -2.880090   -1.623054   -0.143239
     11          6           0       -1.651247   -2.276584   -0.233506
     12          6           0       -0.448862   -1.573711   -0.211889
     13          1           0        0.499193   -2.090431   -0.287762
     14          1           0       -1.636823   -3.358318   -0.323529
     15          1           0       -3.810631   -2.167186   -0.157972
     16          6           0       -1.691330    0.487347   -0.002297
     17          1           0       -1.712639    1.567841    0.099391
     18          6           0       -0.459013   -0.173941   -0.098197
     19          6           0        0.809742    0.581448   -0.082062
     20          7           0        2.007957   -0.114763   -0.019892
     21          6           0        0.927825    1.943584   -0.133905
     22          1           0        0.144208    2.680812   -0.201743
     23         16           0        2.600406    2.411595   -0.099922
     24          6           0        3.055073    0.688014   -0.017893
     25          7           0        4.377249    0.414088    0.038651
     26          6           0        4.812597   -0.840981    0.129889
     27          7           0        4.035323   -1.939877    0.125923
     28          1           0        3.027989   -1.802697    0.150098
     29          1           0        4.430352   -2.852591    0.319716
     30          7           0        6.155310   -1.020881    0.265220
     31          1           0        6.547639   -1.927065    0.036172
     32          1           0        6.731411   -0.223056    0.024401
 ---------------------------------------------------------------------

 SCF Done:  E(RB3LYP) =  -1212.34592071     A.U. after   12 cycles

 The electronic state is 1-A.
 Alpha  occ. eigenvalues --  -88.90295 -19.12234 -14.37657 -14.35160 -14.34981
 Alpha  occ. eigenvalues --  -14.32526 -14.31219 -10.30789 -10.29913 -10.27805
 Alpha  occ. eigenvalues --  -10.24032 -10.22558 -10.20793 -10.20600 -10.19410
 Alpha  occ. eigenvalues --  -10.19219 -10.18759 -10.18623 -10.18601  -7.96481
 Alpha  occ. eigenvalues --   -5.92871  -5.92537  -5.92160  -1.03955  -0.99847
 Alpha  occ. eigenvalues --   -0.95593  -0.94218  -0.87949  -0.87701  -0.85120
 Alpha  occ. eigenvalues --   -0.78983  -0.77445  -0.76017  -0.72324  -0.70964
 Alpha  occ. eigenvalues --   -0.64444  -0.62580  -0.62335  -0.58939  -0.58000
 Alpha  occ. eigenvalues --   -0.55644  -0.54037  -0.53505  -0.51305  -0.49420
 Alpha  occ. eigenvalues --   -0.48646  -0.47346  -0.47101  -0.45233  -0.44768
 Alpha  occ. eigenvalues --   -0.43820  -0.43621  -0.42614  -0.41009  -0.40577
 Alpha  occ. eigenvalues --   -0.40338  -0.39903  -0.39185  -0.37525  -0.36387
 Alpha  occ. eigenvalues --   -0.35938  -0.34236  -0.31664  -0.29688  -0.28315
 Alpha  occ. eigenvalues --   -0.28274  -0.27526  -0.26978  -0.25822  -0.24891
 Alpha  occ. eigenvalues --   -0.22398  -0.19567
 Alpha virt. eigenvalues --   -0.03466  -0.01771  -0.00555   0.02331   0.03638
 Alpha virt. eigenvalues --    0.07294   0.08610   0.09133   0.09884   0.10279
 Alpha virt. eigenvalues --    0.11501   0.13021   0.13561   0.13951   0.14504

 Mulliken charges:
               1
     1  C   -0.542688
     2  H    0.175014
     3  H    0.192342
     4  H    0.192189
     5  C    0.604802
     6  O   -0.562011
     7  N   -0.709891
     8  H    0.389200
     9  C    0.341263
    10  C   -0.179665
    11  C   -0.166533
    12  C   -0.195217
    13  H    0.155388
    14  H    0.150820
    15  H    0.169521
    16  C   -0.276394
    17  H    0.158927
    18  C    0.105231
    19  C    0.276885
    20  N   -0.584920
    21  C   -0.431312
    22  H    0.198837
    23  S    0.183282
    24  C    0.305371
    25  N   -0.617402
    26  C    0.663577
    27  N   -0.784149
    28  H    0.399883
    29  H    0.390820
    30  N   -0.772563
    31  H    0.387008
    32  H    0.382384
 Sum of Mulliken charges =   0.00000

 Dipole moment (field-independent basis, Debye):
    X=              4.6072    Y=             -0.3991    Z=              0.0497  Tot=              4.6247
 Quadrupole moment (field-independent basis, Debye-Ang):
   XX=            -83.0715   YY=            -99.0913   ZZ=           -121.7363
   XY=            -53.0949   XZ=             -3.6829   YZ=              0.0208

 Normal termination of Gaussian 09 at Thu Jan 28 04:47:32 2021.
