 Gaussian 09, Revision D.01,

 -----------------
 #p b3lyp/6-31G(d)
 -----------------

 ----------------------------------------------
 SET_328_BBB301_conf1.geo_075_090_045.n.pdb.xyz
 ----------------------------------------------
 Symbolic Z-matrix:
 Charge =  0 Multiplicity = 1

 SCF Done:  E(RB3LYP) =  -788.432653658     A.U. after   14 cycles
 Normal termination of Gaussian 09 at Mon Mar 29 22:48:29 2021.
 Gaussian 09:  AM64L-G09RevD.01 24-Apr-2013

 ----------------------------------------------------------------------
 #p b3lyp/6-31G(d) scrf=(iefpcm,read,solvent=Water) geom=allcheck guess
 =read
 ----------------------------------------------------------------------

 Structure from the checkpoint file:  "SET_328_BBB301_conf1.geo_075_090_045.n.pdb.xyz.mst.n.w.chk"
 ----------------------------------------------
 SET_328_BBB301_conf1.geo_075_090_045.n.pdb.xyz
 ----------------------------------------------
 Charge =  0 Multiplicity = 1

                         Standard orientation:
 ---------------------------------------------------------------------
 Center     Atomic      Atomic             Coordinates (Angstroms)
 Number     Number       Type             X           Y           Z
 ---------------------------------------------------------------------
      1          6           0        3.792662    0.765047    1.879654
      2          1           0        3.935202   -0.258367    2.239847
      3          1           0        2.970477    1.214910    2.446938
      4          1           0        4.701058    1.337097    2.093207
      5          6           0        3.486390    0.768864    0.373985
      6          6           0        3.285753    2.217575   -0.109683
      7          1           0        3.054016    2.250509   -1.179453
      8          1           0        4.187487    2.813568    0.054846
      9          1           0        2.460813    2.696845    0.429359
     10          6           0        4.652976    0.118442   -0.381767
     11          1           0        5.582329    0.661481   -0.183966
     12          1           0        4.493673    0.124849   -1.462607
     13          1           0        4.787419   -0.920112   -0.063564
     14          7           0        2.263917   -0.053970    0.192888
     15          1           0        1.543695    0.307508    0.819725
     16          6           0        1.702518   -0.141710   -1.154560
     17          1           0        2.515194   -0.357632   -1.851872
     18          1           0        1.202985    0.774967   -1.497621
     19          6           0        0.716805   -1.327942   -1.189099
     20          8           0        1.366236   -2.466350   -0.641291
     21          1           0        1.958149   -2.078235    0.042513
     22          1           0        0.498787   -1.552970   -2.238851
     23          6           0       -0.597649   -1.012071   -0.485420
     24          6           0       -1.516556   -0.133209   -1.070226
     25          1           0       -1.299594    0.306275   -2.041526
     26          6           0       -2.724816    0.193874   -0.455913
     27          6           0       -3.737658    1.070465   -1.152818
     28          8           0       -4.418941    1.964255   -0.251983
     29          1           0       -3.755618    2.588826    0.097243
     30          1           0       -4.537366    0.464611   -1.589353
     31          1           0       -3.261757    1.629515   -1.964266
     32          6           0       -3.016142   -0.358673    0.808210
     33          8           0       -4.174184   -0.062009    1.464484
     34          1           0       -4.556228    0.729931    1.016551
     35          6           0       -2.112338   -1.242616    1.403929
     36          1           0       -2.356547   -1.665037    2.372496
     37          6           0       -0.919943   -1.569419    0.755233
     38          1           0       -0.228498   -2.269668    1.211305
 ---------------------------------------------------------------------

 SCF Done:  E(RB3LYP) =  -788.451967072     A.U. after   10 cycles

 The electronic state is 1-A.
 Alpha  occ. eigenvalues --  -19.16625 -19.16045 -19.13306 -14.32098 -10.24496
 Alpha  occ. eigenvalues --  -10.24130 -10.23309 -10.22074 -10.20418 -10.19247
 Alpha  occ. eigenvalues --  -10.18931 -10.18624 -10.18459 -10.18298 -10.16982
 Alpha  occ. eigenvalues --  -10.16872 -10.16830  -1.05134  -1.02444  -1.01240
 Alpha  occ. eigenvalues --   -0.90551  -0.85148  -0.78583  -0.76603  -0.75154
 Alpha  occ. eigenvalues --   -0.69918  -0.68330  -0.68183  -0.67852  -0.62191
 Alpha  occ. eigenvalues --   -0.60754  -0.57632  -0.54975  -0.54272  -0.50352
 Alpha  occ. eigenvalues --   -0.49737  -0.47960  -0.47571  -0.46447  -0.45334
 Alpha  occ. eigenvalues --   -0.44748  -0.44105  -0.43306  -0.42585  -0.41914
 Alpha  occ. eigenvalues --   -0.41372  -0.40720  -0.39560  -0.38268  -0.37859
 Alpha  occ. eigenvalues --   -0.37464  -0.36451  -0.36142  -0.34824  -0.34632
 Alpha  occ. eigenvalues --   -0.34323  -0.33514  -0.32964  -0.32184  -0.31055
 Alpha  occ. eigenvalues --   -0.28756  -0.26648  -0.24832  -0.23075  -0.21320
 Alpha virt. eigenvalues --   -0.00608   0.00973   0.07636   0.08489   0.11057
 Alpha virt. eigenvalues --    0.11585   0.12190   0.12382   0.13427   0.13904
 Alpha virt. eigenvalues --    0.14089   0.14522   0.15286   0.15823   0.16944

 Mulliken charges:
               1
     1  C   -0.458013
     2  H    0.148856
     3  H    0.145184
     4  H    0.149481
     5  C    0.218489
     6  C   -0.456220
     7  H    0.150201
     8  H    0.147222
     9  H    0.143335
    10  C   -0.452486
    11  H    0.148398
    12  H    0.151078
    13  H    0.148370
    14  N   -0.609559
    15  H    0.327116
    16  C   -0.150330
    17  H    0.158553
    18  H    0.141021
    19  C    0.062414
    20  O   -0.686229
    21  H    0.414876
    22  H    0.144652
    23  C    0.130756
    24  C   -0.270152
    25  H    0.141240
    26  C    0.080657
    27  C   -0.122877
    28  O   -0.656886
    29  H    0.453165
    30  H    0.180574
    31  H    0.168648
    32  C    0.286831
    33  O   -0.700208
    34  H    0.443167
    35  C   -0.190448
    36  H    0.141622
    37  C   -0.211861
    38  H    0.139366
 Sum of Mulliken charges =   0.00000

 Dipole moment (field-independent basis, Debye):
    X=              2.1972    Y=              5.8139    Z=             -1.4027  Tot=              6.3715
 Quadrupole moment (field-independent basis, Debye-Ang):
   XX=           -108.9766   YY=           -106.9963   ZZ=           -100.0151
   XY=             -1.7544   XZ=              8.0751   YZ=             -2.5000

 Normal termination of Gaussian 09 at Mon Mar 29 22:51:35 2021.
