 Gaussian 09, Revision D.01,

 -----------------
 #p b3lyp/6-31G(d)
 -----------------

 ----------------------------------------------
 SET_328_BBB321_conf1.geo_180_210_225.n.pdb.xyz
 ----------------------------------------------
 Symbolic Z-matrix:
 Charge =  0 Multiplicity = 1

 SCF Done:  E(RB3LYP) =  -1212.31156443     A.U. after   16 cycles
 Normal termination of Gaussian 09 at Thu Jan 28 04:43:36 2021.
 Gaussian 09:  AM64L-G09RevD.01 24-Apr-2013

 ----------------------------------------------------------------------
 #p b3lyp/6-31G(d) scrf=(iefpcm,read,solvent=Water) geom=allcheck guess
 =read
 ----------------------------------------------------------------------

 Structure from the checkpoint file:  "SET_328_BBB321_conf1.geo_180_210_225.n.pdb.xyz.mst.n.w.chk"
 ----------------------------------------------
 SET_328_BBB321_conf1.geo_180_210_225.n.pdb.xyz
 ----------------------------------------------
 Charge =  0 Multiplicity = 1

                         Standard orientation:
 ---------------------------------------------------------------------
 Center     Atomic      Atomic             Coordinates (Angstroms)
 Number     Number       Type             X           Y           Z
 ---------------------------------------------------------------------
      1          6           0        6.416837    1.191930    0.193966
      2          1           0        6.603894    1.591479   -0.808825
      3          1           0        7.349862    0.778966    0.576750
      4          1           0        6.095991    2.019924    0.831676
      5          6           0        5.385699    0.082579    0.115478
      6          8           0        5.711636   -1.103557    0.037666
      7          7           0        4.087669    0.519059    0.109953
      8          1           0        3.955574    1.523214    0.176730
      9          6           0        2.900340   -0.229940   -0.005380
     10          6           0        2.879028   -1.629300   -0.136481
     11          6           0        1.651096   -2.279208   -0.239429
     12          6           0        0.449814   -1.575306   -0.215948
     13          1           0       -0.497875   -2.091207   -0.301230
     14          1           0        1.636086   -3.359496   -0.339867
     15          1           0        3.809820   -2.174310   -0.153055
     16          6           0        1.693274    0.478897    0.019887
     17          1           0        1.721222    1.558118    0.134377
     18          6           0        0.461105   -0.176994   -0.088651
     19          6           0       -0.804788    0.580289   -0.074216
     20          7           0       -2.004012   -0.114562   -0.006474
     21          6           0       -0.923171    1.942527   -0.130572
     22          1           0       -0.140528    2.681043   -0.202780
     23         16           0       -2.594173    2.412150   -0.099037
     24          6           0       -3.052209    0.688025   -0.010197
     25          7           0       -4.374440    0.417145    0.041946
     26          6           0       -4.813673   -0.837334    0.121237
     27          7           0       -6.162515   -1.023465    0.079782
     28          1           0       -6.539693   -1.895816    0.433462
     29          1           0       -6.724570   -0.200681    0.259794
     30          7           0       -4.038301   -1.933411    0.213672
     31          1           0       -4.442551   -2.861024    0.175486
     32          1           0       -3.032482   -1.806513    0.130434
 ---------------------------------------------------------------------

 SCF Done:  E(RB3LYP) =  -1212.34579650     A.U. after   12 cycles

 The electronic state is 1-A.
 Alpha  occ. eigenvalues --  -88.90272 -19.12409 -14.37529 -14.35200 -14.34979
 Alpha  occ. eigenvalues --  -14.32525 -14.31235 -10.30812 -10.29944 -10.27814
 Alpha  occ. eigenvalues --  -10.23969 -10.22545 -10.20784 -10.20550 -10.19319
 Alpha  occ. eigenvalues --  -10.19166 -10.18749 -10.18567 -10.18551  -7.96458
 Alpha  occ. eigenvalues --   -5.92848  -5.92514  -5.92138  -1.04016  -0.99843
 Alpha  occ. eigenvalues --   -0.95560  -0.94205  -0.87949  -0.87727  -0.85131
 Alpha  occ. eigenvalues --   -0.78965  -0.77456  -0.76051  -0.72296  -0.70948
 Alpha  occ. eigenvalues --   -0.64454  -0.62553  -0.62310  -0.58930  -0.58000
 Alpha  occ. eigenvalues --   -0.55622  -0.54029  -0.53467  -0.51304  -0.49420
 Alpha  occ. eigenvalues --   -0.48629  -0.47345  -0.47120  -0.45265  -0.44766
 Alpha  occ. eigenvalues --   -0.43833  -0.43521  -0.42672  -0.41052  -0.40675
 Alpha  occ. eigenvalues --   -0.40180  -0.39890  -0.39141  -0.37494  -0.36392
 Alpha  occ. eigenvalues --   -0.36030  -0.34215  -0.31761  -0.29715  -0.28380
 Alpha  occ. eigenvalues --   -0.28218  -0.27515  -0.26963  -0.25853  -0.24884
 Alpha  occ. eigenvalues --   -0.22308  -0.19551
 Alpha virt. eigenvalues --   -0.03437  -0.01694  -0.00531   0.02337   0.03513
 Alpha virt. eigenvalues --    0.07224   0.08729   0.09131   0.09983   0.10235
 Alpha virt. eigenvalues --    0.11539   0.13043   0.13680   0.14079   0.14641

 Mulliken charges:
               1
     1  C   -0.543286
     2  H    0.197576
     3  H    0.182991
     4  H    0.181725
     5  C    0.595217
     6  O   -0.556749
     7  N   -0.705802
     8  H    0.389581
     9  C    0.344774
    10  C   -0.179825
    11  C   -0.166359
    12  C   -0.195890
    13  H    0.154409
    14  H    0.150403
    15  H    0.168537
    16  C   -0.278111
    17  H    0.158128
    18  C    0.105974
    19  C    0.276193
    20  N   -0.585070
    21  C   -0.431128
    22  H    0.198668
    23  S    0.182370
    24  C    0.305291
    25  N   -0.617273
    26  C    0.664651
    27  N   -0.772586
    28  H    0.386836
    29  H    0.382318
    30  N   -0.784535
    31  H    0.391564
    32  H    0.399411
 Sum of Mulliken charges =   0.00000

 Dipole moment (field-independent basis, Debye):
    X=             -4.5564    Y=             -0.2705    Z=              1.2374  Tot=              4.7292
 Quadrupole moment (field-independent basis, Debye-Ang):
   XX=            -83.7087   YY=            -99.0228   ZZ=           -121.2607
   XY=             52.9083   XZ=             -6.7624   YZ=             -0.7408

 Normal termination of Gaussian 09 at Thu Jan 28 04:46:39 2021.
