 Gaussian 09, Revision D.01,

 -----------------
 #p b3lyp/6-31G(d)
 -----------------

 ---------------------------------------------
 SET_328_BBB30_conf1.geo_285_180_195.n.pdb.xyz
 ---------------------------------------------
 Symbolic Z-matrix:
 Charge =  0 Multiplicity = 1

 SCF Done:  E(RB3LYP) =  -444.843214801     A.U. after   14 cycles
 Normal termination of Gaussian 09 at Sun Jan 24 23:15:47 2021.
 Gaussian 09:  AM64L-G09RevD.01 24-Apr-2013

 ----------------------------------------------------------------------
 #p b3lyp/6-31G(d) scrf=(iefpcm,read,solvent=Water) geom=allcheck guess
 =read
 ----------------------------------------------------------------------

 Structure from the checkpoint file:  "SET_328_BBB30_conf1.geo_285_180_195.n.pdb.xyz.mst.n.w.chk"
 ---------------------------------------------
 SET_328_BBB30_conf1.geo_285_180_195.n.pdb.xyz
 ---------------------------------------------
 Charge =  0 Multiplicity = 1

                         Standard orientation:
 ---------------------------------------------------------------------
 Center     Atomic      Atomic             Coordinates (Angstroms)
 Number     Number       Type             X           Y           Z
 ---------------------------------------------------------------------
      1          6           0       -4.041657   -0.469220   -0.373937
      2          1           0       -3.814408   -1.359036   -0.986966
      3          1           0       -4.245565    0.358717   -1.059208
      4          1           0       -4.956157   -0.666548    0.190942
      5          7           0       -2.970265   -0.110933    0.553569
      6          1           0       -2.924512   -0.839479    1.262361
      7          6           0       -1.651508   -0.029883   -0.087017
      8          6           0       -1.579973    1.180886   -1.016541
      9          1           0       -2.330568    1.119440   -1.808489
     10          1           0       -0.596880    1.244407   -1.490630
     11          1           0       -1.753965    2.104580   -0.450893
     12          1           0       -1.460807   -0.934591   -0.694010
     13          6           0       -0.579371    0.028657    1.017916
     14          1           0       -0.761453   -0.807184    1.705524
     15          1           0       -0.723818    0.951877    1.591803
     16          6           0        0.843220   -0.043368    0.513350
     17          6           0        1.379123   -1.251077    0.040164
     18          1           0        0.765884   -2.148470    0.051154
     19          6           0        2.689517   -1.318040   -0.434279
     20          1           0        3.085715   -2.263209   -0.792645
     21          6           0        3.492686   -0.175324   -0.441763
     22          1           0        4.513682   -0.226485   -0.807131
     23          6           0        2.975133    1.032290    0.030306
     24          1           0        3.591439    1.925416    0.035139
     25          6           0        1.662444    1.092637    0.502524
     26          1           0        1.265580    2.031754    0.873732
 ---------------------------------------------------------------------

 SCF Done:  E(RB3LYP) =  -444.849695462     A.U. after   10 cycles

 The electronic state is 1-A.
 Alpha  occ. eigenvalues --  -14.31119 -10.20903 -10.19557 -10.19431 -10.18939
 Alpha  occ. eigenvalues --  -10.18907 -10.18788 -10.18705 -10.18653 -10.18264
 Alpha  occ. eigenvalues --  -10.16712  -0.89864  -0.85403  -0.78234  -0.74251
 Alpha  occ. eigenvalues --   -0.73434  -0.68396  -0.65278  -0.60383  -0.58601
 Alpha  occ. eigenvalues --   -0.56132  -0.50936  -0.48718  -0.46210  -0.45755
 Alpha  occ. eigenvalues --   -0.44195  -0.43498  -0.41711  -0.40576  -0.39244
 Alpha  occ. eigenvalues --   -0.38682  -0.37938  -0.36465  -0.35291  -0.34420
 Alpha  occ. eigenvalues --   -0.33401  -0.33142  -0.32249  -0.25132  -0.24239
 Alpha  occ. eigenvalues --   -0.22228
 Alpha virt. eigenvalues --   -0.00341  -0.00037   0.08994   0.10030   0.12084
 Alpha virt. eigenvalues --    0.12480   0.14089   0.14822   0.15581   0.16482
 Alpha virt. eigenvalues --    0.16787   0.17319   0.17672   0.18202   0.19260

 Mulliken charges:
               1
     1  C   -0.313085
     2  H    0.126416
     3  H    0.155785
     4  H    0.152970
     5  N   -0.589375
     6  H    0.328120
     7  C    0.066667
     8  C   -0.454996
     9  H    0.151697
    10  H    0.150127
    11  H    0.142921
    12  H    0.110845
    13  C   -0.367506
    14  H    0.151803
    15  H    0.149518
    16  C    0.165589
    17  C   -0.199011
    18  H    0.142748
    19  C   -0.150424
    20  H    0.147728
    21  C   -0.153547
    22  H    0.146820
    23  C   -0.149722
    24  H    0.147713
    25  C   -0.202051
    26  H    0.142249
 Sum of Mulliken charges =   0.00000

 Dipole moment (field-independent basis, Debye):
    X=             -0.0687    Y=             -1.3729    Z=             -0.1583  Tot=              1.3837
 Quadrupole moment (field-independent basis, Debye-Ang):
   XX=            -64.2078   YY=            -63.2700   ZZ=            -69.0659
   XY=              4.9028   XZ=             -1.1137   YZ=             -0.4328

 Normal termination of Gaussian 09 at Sun Jan 24 23:16:48 2021.
