 Gaussian 09, Revision D.01,

 -----------------
 #p b3lyp/6-31G(d)
 -----------------

 ----------------------------------------------
 SET_328_BBB268_conf1.geo_180_270_255.n.pdb.xyz
 ----------------------------------------------
 Symbolic Z-matrix:
 Charge =  0 Multiplicity = 1

 SCF Done:  E(RB3LYP) =  -976.175625756     A.U. after   16 cycles
 Normal termination of Gaussian 09 at Sun Jan 24 23:13:47 2021.
 Gaussian 09:  AM64L-G09RevD.01 24-Apr-2013

 ----------------------------------------------------------------------
 #p b3lyp/6-31G(d) scrf=(iefpcm,read,solvent=Water) geom=allcheck guess
 =read
 ----------------------------------------------------------------------

 Structure from the checkpoint file:  "SET_328_BBB268_conf1.geo_180_270_255.n.pdb.xyz.mst.n.w.chk"
 ----------------------------------------------
 SET_328_BBB268_conf1.geo_180_270_255.n.pdb.xyz
 ----------------------------------------------
 Charge =  0 Multiplicity = 1

                         Standard orientation:
 ---------------------------------------------------------------------
 Center     Atomic      Atomic             Coordinates (Angstroms)
 Number     Number       Type             X           Y           Z
 ---------------------------------------------------------------------
      1          6           0        1.486103    4.364796    1.229700
      2          1           0        1.808541    3.759680    2.072671
      3          1           0        0.700440    5.056215    1.551452
      4          1           0        2.330189    4.951589    0.849472
      5          7           0        0.981251    3.479200    0.188605
      6          6           0        0.497682    4.149711   -1.009907
      7          1           0        1.302364    4.746927   -1.453640
      8          1           0       -0.328991    4.822806   -0.756247
      9          1           0        0.147864    3.436603   -1.752911
     10          6           0        0.970615    2.138135    0.401859
     11          8           0        1.381222    1.631926    1.453034
     12          6           0        0.422266    1.250236   -0.731640
     13          1           0        0.995790    1.439148   -1.647585
     14          1           0       -0.602274    1.552083   -0.952090
     15          6           0        0.429293   -0.201971   -0.393785
     16          6           0       -0.588844   -1.105988   -0.104294
     17          6           0       -2.044508   -0.876608   -0.088072
     18          6           0       -2.689925   -0.050878   -1.025448
     19          6           0       -4.068914    0.137243   -0.984619
     20          6           0       -4.860789   -0.494892   -0.018108
     21          6           0       -6.351778   -0.272904    0.036094
     22          1           0       -6.590087    0.720923    0.432506
     23          1           0       -6.836309   -1.011242    0.679830
     24          1           0       -6.802181   -0.337108   -0.960268
     25          6           0       -4.220796   -1.335349    0.901194
     26          6           0       -2.840938   -1.524333    0.869825
     27          1           0       -2.367560   -2.179691    1.593303
     28          1           0       -4.813671   -1.845894    1.654079
     29          1           0       -4.539131    0.775517   -1.727491
     30          1           0       -2.115407    0.421928   -1.814442
     31          7           0       -0.083462   -2.344871    0.212216
     32          6           0        1.240244   -2.227976    0.108295
     33          6           0        2.269899   -3.175740    0.303632
     34          1           0        1.994617   -4.182498    0.592069
     35          6           0        3.577289   -2.800062    0.127135
     36          1           0        4.372208   -3.522711    0.275762
     37          6           0        3.918971   -1.465442   -0.251032
     38          6           0        5.357929   -1.065550   -0.440045
     39          1           0        5.837240   -1.673518   -1.214508
     40          1           0        5.931376   -1.206682    0.482218
     41          1           0        5.440330   -0.016165   -0.734050
     42          6           0        2.913652   -0.554895   -0.435295
     43          1           0        3.092136    0.473367   -0.716688
     44          7           0        1.600500   -0.928882   -0.265197
 ---------------------------------------------------------------------

 SCF Done:  E(RB3LYP) =  -976.191986508     A.U. after   11 cycles

 The electronic state is 1-A.
 Alpha  occ. eigenvalues --  -19.11523 -14.41253 -14.36977 -14.31448 -10.29206
 Alpha  occ. eigenvalues --  -10.24971 -10.23382 -10.22286 -10.21774 -10.21739
 Alpha  occ. eigenvalues --  -10.20904 -10.20894 -10.20708 -10.20134 -10.20020
 Alpha  occ. eigenvalues --  -10.19951 -10.19822 -10.19186 -10.18878 -10.18769
 Alpha  occ. eigenvalues --  -10.18720 -10.18470 -10.17970  -1.03663  -1.02933
 Alpha  occ. eigenvalues --   -0.93524  -0.90793  -0.85805  -0.84102  -0.79702
 Alpha  occ. eigenvalues --   -0.77438  -0.76742  -0.74461  -0.72881  -0.71605
 Alpha  occ. eigenvalues --   -0.70692  -0.68781  -0.67450  -0.62637  -0.61908
 Alpha  occ. eigenvalues --   -0.60793  -0.59471  -0.56670  -0.54693  -0.51838
 Alpha  occ. eigenvalues --   -0.50691  -0.49802  -0.49528  -0.48020  -0.47524
 Alpha  occ. eigenvalues --   -0.46440  -0.46314  -0.46093  -0.45134  -0.44733
 Alpha  occ. eigenvalues --   -0.42507  -0.42193  -0.41839  -0.41669  -0.41550
 Alpha  occ. eigenvalues --   -0.40528  -0.40292  -0.40056  -0.39998  -0.39015
 Alpha  occ. eigenvalues --   -0.38354  -0.37946  -0.37724  -0.36222  -0.36083
 Alpha  occ. eigenvalues --   -0.35804  -0.34404  -0.33789  -0.32957  -0.31503
 Alpha  occ. eigenvalues --   -0.28189  -0.26262  -0.25739  -0.25280  -0.24333
 Alpha  occ. eigenvalues --   -0.22128  -0.20465
 Alpha virt. eigenvalues --   -0.03614  -0.01194  -0.00458   0.01174   0.02361
 Alpha virt. eigenvalues --    0.07223   0.08968   0.10357   0.10763   0.11867
 Alpha virt. eigenvalues --    0.12228   0.12794   0.13294   0.13662   0.13968

 Mulliken charges:
               1
     1  C   -0.324059
     2  H    0.187341
     3  H    0.169944
     4  H    0.169405
     5  N   -0.405235
     6  C   -0.323226
     7  H    0.175929
     8  H    0.176175
     9  H    0.193213
    10  C    0.618794
    11  O   -0.585318
    12  C   -0.512035
    13  H    0.203701
    14  H    0.209037
    15  C    0.335224
    16  C    0.080654
    17  C    0.086929
    18  C   -0.198547
    19  C   -0.205784
    20  C    0.169805
    21  C   -0.533959
    22  H    0.172400
    23  H    0.164965
    24  H    0.167869
    25  C   -0.207114
    26  C   -0.180374
    27  H    0.145967
    28  H    0.143254
    29  H    0.143577
    30  H    0.154964
    31  N   -0.635401
    32  C    0.529687
    33  C   -0.204167
    34  H    0.165818
    35  C   -0.163711
    36  H    0.158335
    37  C    0.103765
    38  C   -0.532024
    39  H    0.174013
    40  H    0.174552
    41  H    0.169623
    42  C    0.014665
    43  H    0.187117
    44  N   -0.535769
 Sum of Mulliken charges =   0.00000

 Dipole moment (field-independent basis, Debye):
    X=              2.1231    Y=              6.6074    Z=             -4.4804  Tot=              8.2607
 Quadrupole moment (field-independent basis, Debye-Ang):
   XX=           -106.4009   YY=           -115.6621   ZZ=           -135.5860
   XY=             -6.3275   XZ=             -5.4033   YZ=             -9.4102

 Normal termination of Gaussian 09 at Sun Jan 24 23:20:11 2021.
