 Gaussian 09, Revision D.01,

 -----------------
 #p b3lyp/6-31G(d)
 -----------------

 ----------------------------------------------
 SET_328_BBB256_conf1.geo_180_300_120.n.pdb.xyz
 ----------------------------------------------
 Symbolic Z-matrix:
 Charge =  0 Multiplicity = 1

 SCF Done:  E(RB3LYP) =  -421.566683022     A.U. after   14 cycles
 Normal termination of Gaussian 09 at Mon Mar 29 22:42:41 2021.
 Gaussian 09:  AM64L-G09RevD.01 24-Apr-2013

 ----------------------------------------------------------------------
 #p b3lyp/6-31G(d) scrf=(iefpcm,read,solvent=Water) geom=allcheck guess
 =read
 ----------------------------------------------------------------------

 Structure from the checkpoint file:  "SET_328_BBB256_conf1.geo_180_300_120.n.pdb.xyz.mst.n.w.chk"
 ----------------------------------------------
 SET_328_BBB256_conf1.geo_180_300_120.n.pdb.xyz
 ----------------------------------------------
 Charge =  0 Multiplicity = 1

                         Standard orientation:
 ---------------------------------------------------------------------
 Center     Atomic      Atomic             Coordinates (Angstroms)
 Number     Number       Type             X           Y           Z
 ---------------------------------------------------------------------
      1          6           0        3.427445   -0.787371   -0.918706
      2          1           0        4.329475   -0.327007   -0.478267
      3          1           0        3.275201   -0.332995   -1.904307
      4          1           0        3.627121   -1.852212   -1.068009
      5          7           0        2.222504   -0.621760   -0.111284
      6          1           0        2.348504   -1.129905    0.764859
      7          6           0        1.963971    0.781765    0.207920
      8          1           0        1.791405    1.317099   -0.734164
      9          1           0        2.826972    1.272287    0.691175
     10          6           0        0.740610    0.939606    1.121292
     11          1           0        0.636534    2.002957    1.366889
     12          1           0        0.915645    0.406908    2.060384
     13          6           0       -0.544649    0.427452    0.518822
     14          7           0       -1.030517   -0.730542    1.000327
     15          6           0       -2.166552   -1.209174    0.470325
     16          1           0       -2.528064   -2.145783    0.885539
     17          6           0       -2.873424   -0.576887   -0.549573
     18          1           0       -3.788126   -1.011382   -0.937246
     19          6           0       -2.371161    0.627510   -1.043844
     20          1           0       -2.889214    1.162338   -1.834032
     21          6           0       -1.194447    1.135511   -0.502191
     22          1           0       -0.780120    2.073324   -0.860395
 ---------------------------------------------------------------------

 SCF Done:  E(RB3LYP) =  -421.576516268     A.U. after   10 cycles

 The electronic state is 1-A.
 Alpha  occ. eigenvalues --  -14.32995 -14.31234 -10.22764 -10.22125 -10.20528
 Alpha  occ. eigenvalues --  -10.20491 -10.19518 -10.19445 -10.19387 -10.18344
 Alpha  occ. eigenvalues --   -0.94044  -0.89464  -0.79979  -0.78634  -0.72760
 Alpha  occ. eigenvalues --   -0.66071  -0.63013  -0.61951  -0.58612  -0.51361
 Alpha  occ. eigenvalues --   -0.48673  -0.47605  -0.45690  -0.44684  -0.43999
 Alpha  occ. eigenvalues --   -0.41718  -0.39840  -0.39451  -0.38778  -0.37079
 Alpha  occ. eigenvalues --   -0.34976  -0.34667  -0.34243  -0.28527  -0.25911
 Alpha  occ. eigenvalues --   -0.25251  -0.22079
 Alpha virt. eigenvalues --   -0.02214  -0.00943   0.09438   0.10645   0.12679
 Alpha virt. eigenvalues --    0.12724   0.14301   0.15311   0.16456   0.16877
 Alpha virt. eigenvalues --    0.17901   0.18066   0.18760   0.18913   0.20800

 Mulliken charges:
               1
     1  C   -0.306004
     2  H    0.126058
     3  H    0.151245
     4  H    0.152647
     5  N   -0.576257
     6  H    0.329185
     7  C   -0.115903
     8  H    0.144966
     9  H    0.122997
    10  C   -0.354575
    11  H    0.160764
    12  H    0.153819
    13  C    0.322882
    14  N   -0.521987
    15  C    0.022986
    16  H    0.154376
    17  C   -0.154437
    18  H    0.158653
    19  C   -0.113863
    20  H    0.165736
    21  C   -0.178371
    22  H    0.155082
 Sum of Mulliken charges =   0.00000

 Dipole moment (field-independent basis, Debye):
    X=              0.1630    Y=              1.8157    Z=             -1.0395  Tot=              2.0985
 Quadrupole moment (field-independent basis, Debye-Ang):
   XX=            -49.4445   YY=            -57.0385   ZZ=            -60.4793
   XY=              0.5421   XZ=              5.5269   YZ=             -1.1407

 Normal termination of Gaussian 09 at Mon Mar 29 22:43:27 2021.
