 Gaussian 09, Revision D.01,

 -----------------
 #p b3lyp/6-31G(d)
 -----------------

 ----------------------------------------------
 SET_328_BBB301_conf1.geo_165_285_315.n.pdb.xyz
 ----------------------------------------------
 Symbolic Z-matrix:
 Charge =  0 Multiplicity = 1

 SCF Done:  E(RB3LYP) =  -788.431280429     A.U. after   14 cycles
 Normal termination of Gaussian 09 at Mon Mar 29 22:50:29 2021.
 Gaussian 09:  AM64L-G09RevD.01 24-Apr-2013

 ----------------------------------------------------------------------
 #p b3lyp/6-31G(d) scrf=(iefpcm,read,solvent=Water) geom=allcheck guess
 =read
 ----------------------------------------------------------------------

 Structure from the checkpoint file:  "SET_328_BBB301_conf1.geo_165_285_315.n.pdb.xyz.mst.n.w.chk"
 ----------------------------------------------
 SET_328_BBB301_conf1.geo_165_285_315.n.pdb.xyz
 ----------------------------------------------
 Charge =  0 Multiplicity = 1

                         Standard orientation:
 ---------------------------------------------------------------------
 Center     Atomic      Atomic             Coordinates (Angstroms)
 Number     Number       Type             X           Y           Z
 ---------------------------------------------------------------------
      1          6           0        4.163088   -0.191095   -1.826578
      2          1           0        3.227163   -0.126764   -2.391193
      3          1           0        4.469799   -1.242816   -1.799686
      4          1           0        4.925003    0.367781   -2.379223
      5          6           0        3.992409    0.366910   -0.400639
      6          6           0        5.313357    0.225316    0.374033
      7          1           0        5.609230   -0.825580    0.451164
      8          1           0        5.210956    0.626813    1.387402
      9          1           0        6.118737    0.764250   -0.132937
     10          6           0        3.592734    1.850062   -0.458046
     11          1           0        3.406093    2.234866    0.547912
     12          1           0        2.691460    2.011632   -1.059004
     13          1           0        4.396784    2.438800   -0.909054
     14          7           0        2.972850   -0.389522    0.371317
     15          1           0        3.326673   -1.335895    0.515304
     16          6           0        1.625256   -0.489152   -0.196352
     17          1           0        1.544340   -1.170240   -1.053959
     18          1           0        1.310529    0.503812   -0.528240
     19          6           0        0.670885   -0.944572    0.925198
     20          8           0        0.905613   -0.132237    2.068480
     21          1           0        1.864839    0.072442    1.989902
     22          1           0        0.905305   -1.997515    1.159295
     23          6           0       -0.776632   -0.862570    0.506022
     24          6           0       -1.501772    0.323295    0.659454
     25          1           0       -1.020852    1.169680    1.139037
     26          6           0       -2.827592    0.438182    0.242603
     27          6           0       -3.613360    1.694953    0.517025
     28          8           0       -4.390774    2.026976   -0.649230
     29          1           0       -5.074179    2.665197   -0.378821
     30          1           0       -2.931685    2.514505    0.772217
     31          1           0       -4.287239    1.542100    1.373420
     32          6           0       -3.442571   -0.667235   -0.379442
     33          8           0       -4.731346   -0.621038   -0.818821
     34          1           0       -4.990328    0.331306   -0.857151
     35          6           0       -2.729264   -1.858706   -0.542122
     36          1           0       -3.221990   -2.702202   -1.016676
     37          6           0       -1.413972   -1.954832   -0.091166
     38          1           0       -0.873932   -2.888481   -0.212301
 ---------------------------------------------------------------------

 SCF Done:  E(RB3LYP) =  -788.452313820     A.U. after   11 cycles

 The electronic state is 1-A.
 Alpha  occ. eigenvalues --  -19.16150 -19.16144 -19.12971 -14.32143 -10.24557
 Alpha  occ. eigenvalues --  -10.24051 -10.23178 -10.22113 -10.20326 -10.19263
 Alpha  occ. eigenvalues --  -10.18927 -10.18670 -10.18554 -10.18371 -10.17003
 Alpha  occ. eigenvalues --  -10.16905 -10.16841  -1.04987  -1.02216  -1.00969
 Alpha  occ. eigenvalues --   -0.90458  -0.85252  -0.78540  -0.76967  -0.75225
 Alpha  occ. eigenvalues --   -0.69711  -0.68327  -0.68259  -0.67486  -0.62168
 Alpha  occ. eigenvalues --   -0.60658  -0.56890  -0.55038  -0.53583  -0.51610
 Alpha  occ. eigenvalues --   -0.49956  -0.47918  -0.47391  -0.46730  -0.45412
 Alpha  occ. eigenvalues --   -0.44697  -0.43689  -0.43272  -0.42516  -0.41915
 Alpha  occ. eigenvalues --   -0.41480  -0.40133  -0.39023  -0.38307  -0.37482
 Alpha  occ. eigenvalues --   -0.37267  -0.36747  -0.36244  -0.35723  -0.34714
 Alpha  occ. eigenvalues --   -0.33404  -0.33148  -0.32555  -0.32249  -0.31365
 Alpha  occ. eigenvalues --   -0.28711  -0.26304  -0.24842  -0.23237  -0.21220
 Alpha virt. eigenvalues --   -0.00557   0.00885   0.07587   0.08246   0.10738
 Alpha virt. eigenvalues --    0.11549   0.12516   0.12934   0.13543   0.13609
 Alpha virt. eigenvalues --    0.14332   0.14951   0.15646   0.16109   0.16587

 Mulliken charges:
               1
     1  C   -0.456142
     2  H    0.150949
     3  H    0.143305
     4  H    0.146834
     5  C    0.217962
     6  C   -0.457826
     7  H    0.145512
     8  H    0.148591
     9  H    0.150062
    10  C   -0.453496
    11  H    0.148980
    12  H    0.150643
    13  H    0.149026
    14  N   -0.610943
    15  H    0.331986
    16  C   -0.145802
    17  H    0.138488
    18  H    0.154497
    19  C    0.073259
    20  O   -0.692678
    21  H    0.413675
    22  H    0.120479
    23  C    0.135037
    24  C   -0.266234
    25  H    0.142720
    26  C    0.100586
    27  C   -0.122690
    28  O   -0.663537
    29  H    0.457246
    30  H    0.161578
    31  H    0.166771
    32  C    0.290113
    33  O   -0.697598
    34  H    0.444707
    35  C   -0.191281
    36  H    0.143288
    37  C   -0.211129
    38  H    0.143062
 Sum of Mulliken charges =   0.00000

 Dipole moment (field-independent basis, Debye):
    X=              1.8651    Y=              2.4013    Z=             -0.7723  Tot=              3.1371
 Quadrupole moment (field-independent basis, Debye-Ang):
   XX=            -81.8781   YY=            -90.8426   ZZ=           -111.7353
   XY=            -21.2064   XZ=             -8.3165   YZ=              2.7766

 Normal termination of Gaussian 09 at Mon Mar 29 22:53:39 2021.
