 Gaussian 09, Revision D.01,

 -----------------
 #p b3lyp/6-31G(d)
 -----------------

 ---------------------------------------------
 SET_328_BBB20_conf1.geo_060_180_180.n.pdb.xyz
 ---------------------------------------------
 Symbolic Z-matrix:
 Charge =  0 Multiplicity = 1

 SCF Done:  E(RB3LYP) =  -769.344642567     A.U. after   15 cycles
 Normal termination of Gaussian 09 at Mon Mar 29 22:47:24 2021.
 Gaussian 09:  AM64L-G09RevD.01 24-Apr-2013

 ----------------------------------------------------------------------
 #p b3lyp/6-31G(d) scrf=(iefpcm,read,solvent=Water) geom=allcheck guess
 =read
 ----------------------------------------------------------------------

 Structure from the checkpoint file:  "SET_328_BBB20_conf1.geo_060_180_180.n.pdb.xyz.mst.n.w.chk"
 ---------------------------------------------
 SET_328_BBB20_conf1.geo_060_180_180.n.pdb.xyz
 ---------------------------------------------
 Charge =  0 Multiplicity = 1

                         Standard orientation:
 ---------------------------------------------------------------------
 Center     Atomic      Atomic             Coordinates (Angstroms)
 Number     Number       Type             X           Y           Z
 ---------------------------------------------------------------------
      1          7           0        4.620082   -2.120467    0.999915
      2          1           0        5.082057   -1.315720    0.574614
      3          1           0        5.257006   -2.902149    0.845901
      4          6           0        3.372158   -2.380536    0.267131
      5          1           0        2.952820   -3.321507    0.642527
      6          1           0        3.520422   -2.516510   -0.818058
      7          6           0        2.370760   -1.248430    0.497718
      8          1           0        2.815579   -0.303773    0.167391
      9          1           0        2.174492   -1.152054    1.570552
     10          6           0        1.053727   -1.490002   -0.240241
     11          1           0        0.615081   -2.422814    0.119354
     12          1           0        1.245330   -1.629357   -1.316085
     13          7           0        0.063364   -0.433979    0.012764
     14          6           0        0.459853    0.902240   -0.306385
     15          6           0        1.255244    1.179470   -1.425449
     16          1           0        1.559729    0.369766   -2.078683
     17          6           0        1.651745    2.487069   -1.704077
     18          1           0        2.266794    2.687145   -2.575213
     19          6           0        1.250749    3.530992   -0.869195
     20          1           0        1.554922    4.550213   -1.081438
     21          6           0        0.462490    3.252182    0.249073
     22          1           0        0.158118    4.058012    0.912255
     23          6           0        0.071804    1.945273    0.552026
     24          6           0       -0.767409    1.614522    1.751367
     25          1           0       -0.827921    2.483364    2.414283
     26          1           0       -0.293871    0.802899    2.317585
     27          6           0       -2.190540    1.201596    1.357092
     28          1           0       -2.654785    2.049322    0.836385
     29          1           0       -2.781659    1.056751    2.268957
     30          6           0       -2.353990   -0.041887    0.494989
     31          6           0       -3.672677   -0.487191    0.320405
     32          1           0       -4.465359    0.076664    0.805805
     33          6           0       -3.999540   -1.617165   -0.423468
     34          1           0       -5.032896   -1.929688   -0.522278
     35          6           0       -2.973285   -2.336639   -1.032232
     36          1           0       -3.190150   -3.216953   -1.627694
     37          6           0       -1.655223   -1.912821   -0.888421
     38          1           0       -0.873602   -2.465015   -1.394281
     39          6           0       -1.313571   -0.778252   -0.125438
 ---------------------------------------------------------------------

 SCF Done:  E(RB3LYP) =  -769.355264001     A.U. after   10 cycles

 The electronic state is 1-A.
 Alpha  occ. eigenvalues --  -14.34872 -14.30373 -10.22842 -10.22170 -10.21299
 Alpha  occ. eigenvalues --  -10.20137 -10.19513 -10.19101 -10.18895 -10.18769
 Alpha  occ. eigenvalues --  -10.18753 -10.18748 -10.18632 -10.18609 -10.18434
 Alpha  occ. eigenvalues --  -10.18354 -10.18342 -10.18189 -10.17636  -0.94892
 Alpha  occ. eigenvalues --   -0.87058  -0.85439  -0.84381  -0.79757  -0.76504
 Alpha  occ. eigenvalues --   -0.75444  -0.75042  -0.72288  -0.69922  -0.65718
 Alpha  occ. eigenvalues --   -0.64514  -0.60717  -0.59819  -0.58574  -0.57141
 Alpha  occ. eigenvalues --   -0.56507  -0.51467  -0.50785  -0.48498  -0.47477
 Alpha  occ. eigenvalues --   -0.46949  -0.46678  -0.45335  -0.45265  -0.43834
 Alpha  occ. eigenvalues --   -0.43450  -0.42734  -0.42166  -0.41325  -0.39647
 Alpha  occ. eigenvalues --   -0.38549  -0.38193  -0.37784  -0.36515  -0.35800
 Alpha  occ. eigenvalues --   -0.35493  -0.34943  -0.34281  -0.33724  -0.33298
 Alpha  occ. eigenvalues --   -0.33066  -0.32656  -0.28830  -0.24790  -0.24358
 Alpha  occ. eigenvalues --   -0.23731  -0.23432  -0.19702
 Alpha virt. eigenvalues --   -0.00718   0.00018   0.00344   0.00816   0.08763
 Alpha virt. eigenvalues --    0.09810   0.10673   0.10908   0.11358   0.12974
 Alpha virt. eigenvalues --    0.13518   0.14000   0.14673   0.14928   0.15445

 Mulliken charges:
               1
     1  N   -0.778548
     2  H    0.323605
     3  H    0.328072
     4  C   -0.133600
     5  H    0.140688
     6  H    0.122725
     7  C   -0.267125
     8  H    0.147068
     9  H    0.144531
    10  C   -0.148863
    11  H    0.163603
    12  H    0.147417
    13  N   -0.577608
    14  C    0.210021
    15  C   -0.170942
    16  H    0.151297
    17  C   -0.169893
    18  H    0.147731
    19  C   -0.144312
    20  H    0.144895
    21  C   -0.233467
    22  H    0.143334
    23  C    0.152334
    24  C   -0.347177
    25  H    0.149862
    26  H    0.158929
    27  C   -0.343344
    28  H    0.160802
    29  H    0.160146
    30  C    0.147015
    31  C   -0.219991
    32  H    0.139223
    33  C   -0.150252
    34  H    0.141645
    35  C   -0.169942
    36  H    0.145227
    37  C   -0.196749
    38  H    0.152476
    39  C    0.229166
 Sum of Mulliken charges =   0.00000

 Dipole moment (field-independent basis, Debye):
    X=              1.4762    Y=             -0.4014    Z=             -1.5469  Tot=              2.1755
 Quadrupole moment (field-independent basis, Debye-Ang):
   XX=           -101.6702   YY=           -102.5754   ZZ=           -114.2040
   XY=             -4.4530   XZ=            -12.0579   YZ=              7.2506

 Normal termination of Gaussian 09 at Mon Mar 29 22:51:26 2021.
