 Gaussian 09, Revision D.01,

 -----------------
 #p b3lyp/6-31G(d)
 -----------------

 ----------------------------------------------
 SET_328_BBB301_conf1.geo_150_285_255.n.pdb.xyz
 ----------------------------------------------
 Symbolic Z-matrix:
 Charge =  0 Multiplicity = 1

 SCF Done:  E(RB3LYP) =  -788.427034481     A.U. after   14 cycles
 Normal termination of Gaussian 09 at Mon Mar 29 22:50:09 2021.
 Gaussian 09:  AM64L-G09RevD.01 24-Apr-2013

 ----------------------------------------------------------------------
 #p b3lyp/6-31G(d) scrf=(iefpcm,read,solvent=Water) geom=allcheck guess
 =read
 ----------------------------------------------------------------------

 Structure from the checkpoint file:  "SET_328_BBB301_conf1.geo_150_285_255.n.pdb.xyz.mst.n.w.chk"
 ----------------------------------------------
 SET_328_BBB301_conf1.geo_150_285_255.n.pdb.xyz
 ----------------------------------------------
 Charge =  0 Multiplicity = 1

                         Standard orientation:
 ---------------------------------------------------------------------
 Center     Atomic      Atomic             Coordinates (Angstroms)
 Number     Number       Type             X           Y           Z
 ---------------------------------------------------------------------
      1          6           0        4.072357   -0.072913   -1.869307
      2          1           0        4.351578   -1.130360   -1.938260
      3          1           0        4.824055    0.511635   -2.408957
      4          1           0        3.114201    0.055487   -2.380982
      5          6           0        3.976582    0.369497   -0.395243
      6          6           0        5.319036    0.125654    0.307053
      7          1           0        6.116713    0.703289   -0.169287
      8          1           0        5.601611   -0.933744    0.261055
      9          1           0        5.264084    0.417795    1.360597
     10          6           0        3.622125    1.865405   -0.309218
     11          1           0        3.535929    2.178996    0.736601
     12          1           0        2.677433    2.089539   -0.812240
     13          1           0        4.402452    2.465021   -0.786905
     14          7           0        2.961956   -0.420380    0.352869
     15          1           0        3.303102   -1.380524    0.423759
     16          6           0        1.605103   -0.463148   -0.197214
     17          1           0        1.506372   -1.071049   -1.106766
     18          1           0        1.295831    0.555808   -0.447287
     19          6           0        0.657145   -1.000097    0.895258
     20          8           0        0.888414   -0.268142    2.095267
     21          1           0        1.850145   -0.063465    2.048677
     22          1           0        0.893237   -2.064303    1.051852
     23          6           0       -0.794737   -0.888107    0.486612
     24          6           0       -1.517439    0.289787    0.716816
     25          1           0       -1.033361    1.104337    1.244131
     26          6           0       -2.840221    0.436235    0.305521
     27          6           0       -3.623672    1.701892    0.575149
     28          8           0       -4.145496    2.304535   -0.611153
     29          1           0       -4.743341    1.641533   -1.001101
     30          1           0       -2.966898    2.442765    1.037991
     31          1           0       -4.437983    1.491889    1.284165
     32          6           0       -3.452955   -0.631022   -0.372068
     33          8           0       -4.753060   -0.440138   -0.763862
     34          1           0       -5.065936   -1.208516   -1.276765
     35          6           0       -2.755422   -1.815773   -0.611941
     36          1           0       -3.244548   -2.639181   -1.123763
     37          6           0       -1.434252   -1.938540   -0.176529
     38          1           0       -0.899126   -2.867571   -0.357953
 ---------------------------------------------------------------------

 SCF Done:  E(RB3LYP) =  -788.449082897     A.U. after   11 cycles

 The electronic state is 1-A.
 Alpha  occ. eigenvalues --  -19.18241 -19.13599 -19.13153 -14.32082 -10.25034
 Alpha  occ. eigenvalues --  -10.23301 -10.23044 -10.22094 -10.20332 -10.19185
 Alpha  occ. eigenvalues --  -10.19089 -10.18984 -10.18831 -10.18751 -10.17004
 Alpha  occ. eigenvalues --  -10.16904 -10.16829  -1.06037  -1.00951  -1.00669
 Alpha  occ. eigenvalues --   -0.90416  -0.85485  -0.78541  -0.76829  -0.75321
 Alpha  occ. eigenvalues --   -0.69748  -0.68305  -0.68202  -0.67147  -0.63220
 Alpha  occ. eigenvalues --   -0.60889  -0.57046  -0.54890  -0.54216  -0.50425
 Alpha  occ. eigenvalues --   -0.49094  -0.48319  -0.47254  -0.46511  -0.45511
 Alpha  occ. eigenvalues --   -0.44734  -0.43791  -0.43278  -0.42540  -0.41615
 Alpha  occ. eigenvalues --   -0.40988  -0.40540  -0.39495  -0.38595  -0.37634
 Alpha  occ. eigenvalues --   -0.37120  -0.36621  -0.36175  -0.35503  -0.34649
 Alpha  occ. eigenvalues --   -0.33478  -0.33376  -0.32472  -0.32240  -0.31593
 Alpha  occ. eigenvalues --   -0.26749  -0.26266  -0.25109  -0.23226  -0.21737
 Alpha virt. eigenvalues --   -0.00558   0.00623   0.07621   0.08461   0.10524
 Alpha virt. eigenvalues --    0.11472   0.12088   0.12738   0.12928   0.13505
 Alpha virt. eigenvalues --    0.13813   0.14296   0.15758   0.16128   0.16244

 Mulliken charges:
               1
     1  C   -0.456471
     2  H    0.143327
     3  H    0.146818
     4  H    0.151469
     5  C    0.216421
     6  C   -0.458398
     7  H    0.150051
     8  H    0.144743
     9  H    0.148772
    10  C   -0.451099
    11  H    0.147983
    12  H    0.150650
    13  H    0.148346
    14  N   -0.608038
    15  H    0.330846
    16  C   -0.146473
    17  H    0.138205
    18  H    0.154262
    19  C    0.073157
    20  O   -0.691791
    21  H    0.413918
    22  H    0.123431
    23  C    0.138161
    24  C   -0.264478
    25  H    0.142520
    26  C    0.111187
    27  C   -0.116041
    28  O   -0.674841
    29  H    0.431507
    30  H    0.157497
    31  H    0.144047
    32  C    0.294196
    33  O   -0.686471
    34  H    0.465652
    35  C   -0.202768
    36  H    0.155633
    37  C   -0.213194
    38  H    0.147263
 Sum of Mulliken charges =   0.00000

 Dipole moment (field-independent basis, Debye):
    X=              1.8111    Y=             -4.6982    Z=             -3.2740  Tot=              6.0060
 Quadrupole moment (field-independent basis, Debye-Ang):
   XX=            -82.0048   YY=           -101.3355   ZZ=           -107.3163
   XY=             14.3561   XZ=              4.4077   YZ=              7.6089

 Normal termination of Gaussian 09 at Mon Mar 29 22:53:16 2021.
