 Gaussian 16, Revision B.01,

 -----------------------------------------------------------
 #p b3lyp/6-31G(d) opt freq scrf=(iefpcm,read,solvent=water)
 -----------------------------------------------------------

 --------------------------------------------
 SET_328_BBB29_conf1.geo_285_180_300 geometry
 --------------------------------------------
 Symbolic Z-matrix:
 Charge =  1 Multiplicity = 1

 SCF Done:  E(RB3LYP) =  -1548.92571244     A.U. after   13 cycles
 SCF Done:  E(RB3LYP) =  -1548.96577811     A.U. after   11 cycles
 SCF Done:  E(RB3LYP) =  -1548.98389097     A.U. after   11 cycles
 SCF Done:  E(RB3LYP) =  -1548.98886483     A.U. after   11 cycles
 SCF Done:  E(RB3LYP) =  -1548.98947795     A.U. after   11 cycles
 SCF Done:  E(RB3LYP) =  -1548.99038386     A.U. after   11 cycles
 SCF Done:  E(RB3LYP) =  -1548.99137970     A.U. after   13 cycles
 SCF Done:  E(RB3LYP) =  -1548.99232861     A.U. after   11 cycles
 SCF Done:  E(RB3LYP) =  -1548.99112495     A.U. after   12 cycles
 SCF Done:  E(RB3LYP) =  -1548.99279924     A.U. after   11 cycles
 SCF Done:  E(RB3LYP) =  -1548.99429669     A.U. after    9 cycles
 SCF Done:  E(RB3LYP) =  -1548.99432915     A.U. after    9 cycles
 SCF Done:  E(RB3LYP) =  -1548.99433275     A.U. after    8 cycles
 SCF Done:  E(RB3LYP) =  -1548.99433314     A.U. after    7 cycles
 SCF Done:  E(RB3LYP) =  -1548.99433496     A.U. after    7 cycles
 SCF Done:  E(RB3LYP) =  -1548.99433421     A.U. after    6 cycles
 Optimization completed.
    -- Stationary point found.
 Normal termination of Gaussian 16 at Sun Jul 18 14:19:44 2021.

 --------------------------------------------------------------------
 #P Geom=AllCheck Guess=TCheck SCRF=Check GenChk RB3LYP/6-31G(d) Freq
 --------------------------------------------------------------------

 Structure from the checkpoint file:  "SET_328_BBB29_conf1.geo_285_180_300.chk"
 --------------------------------------------
 SET_328_BBB29_conf1.geo_285_180_300 geometry
 --------------------------------------------
 Charge =  1 Multiplicity = 1

 SCF Done:  E(RB3LYP) =  -1548.99433421     A.U. after    1 cycles

  Exact polarizability: 400.177 -17.451 304.481  -5.956   9.189 130.057
 Approx polarizability: 422.525 -12.517 347.899  -5.507   9.551 153.658

                      1                      2                      3
                      A                      A                      A
 Frequencies --     38.7392                55.3651                71.8570
 Red. masses --      6.7851                 4.2001                 4.4727
 Frc consts  --      0.0060                 0.0076                 0.0136
 IR Inten    --      6.2006                21.1967                 7.2369

                      4                      5                      6
                      A                      A                      A
 Frequencies --     85.0070               114.5683               130.8234
 Red. masses --      5.3792                 2.1956                 2.9493
 Frc consts  --      0.0229                 0.0170                 0.0297
 IR Inten    --      1.9931                12.6576                 4.4289

                      7                      8                      9
                      A                      A                      A
 Frequencies --    162.1703               180.6705               202.2791
 Red. masses --      5.8943                 3.0251                 2.2559
 Frc consts  --      0.0913                 0.0582                 0.0544
 IR Inten    --      1.8553                11.0934                11.9014

                     10                     11                     12
                      A                      A                      A
 Frequencies --    225.4317               232.6057               284.9593
 Red. masses --      3.7004                 4.2264                 4.7973
 Frc consts  --      0.1108                 0.1347                 0.2295
 IR Inten    --      2.3126                 0.2462                 4.0423

                     13                     14                     15
                      A                      A                      A
 Frequencies --    288.9574               300.1207               335.5406
 Red. masses --      8.2144                 2.3855                 6.1573
 Frc consts  --      0.4041                 0.1266                 0.4084
 IR Inten    --      2.3791                 3.0509                 4.5660

                     16                     17                     18
                      A                      A                      A
 Frequencies --    370.6563               393.4096               406.0247
 Red. masses --      5.5863                 6.3712                 2.6608
 Frc consts  --      0.4522                 0.5810                 0.2584
 IR Inten    --      2.9486                12.9085                 5.9644

                     19                     20                     21
                      A                      A                      A
 Frequencies --    435.7760               449.7698               462.3106
 Red. masses --      5.2545                 3.3762                 3.5738
 Frc consts  --      0.5879                 0.4024                 0.4500
 IR Inten    --      3.3347                 2.7329                 1.1168

                     22                     23                     24
                      A                      A                      A
 Frequencies --    464.7249               494.2173               547.1188
 Red. masses --      3.2870                 5.4833                 4.3940
 Frc consts  --      0.4183                 0.7891                 0.7749
 IR Inten    --      3.2638                11.4886                 4.9750

                     25                     26                     27
                      A                      A                      A
 Frequencies --    558.2664               590.6620               625.0002
 Red. masses --      5.9602                 5.6939                 5.9957
 Frc consts  --      1.0944                 1.1704                 1.3799
 IR Inten    --     11.6982                 6.0659                 1.2005

                     28                     29                     30
                      A                      A                      A
 Frequencies --    656.3742               690.7404               713.4065
 Red. masses --      4.9857                 5.7605                 4.9891
 Frc consts  --      1.2656                 1.6194                 1.4960
 IR Inten    --     16.4639                 6.9077                 3.9758

                     31                     32                     33
                      A                      A                      A
 Frequencies --    728.1544               738.6072               765.5779
 Red. masses --      5.3138                 4.4591                 1.2778
 Frc consts  --      1.6600                 1.4333                 0.4413
 IR Inten    --      1.7961                 3.3376                76.4367

                     34                     35                     36
                      A                      A                      A
 Frequencies --    775.4758               810.8970               814.8724
 Red. masses --      1.4860                 2.0272                 1.8119
 Frc consts  --      0.5265                 0.7854                 0.7089
 IR Inten    --     19.4736                28.7572                37.6069

                     37                     38                     39
                      A                      A                      A
 Frequencies --    837.8572               860.5067               871.5667
 Red. masses --      1.4519                 1.4419                 1.3347
 Frc consts  --      0.6005                 0.6291                 0.5974
 IR Inten    --     27.3039                34.0159                 0.5055

                     40                     41                     42
                      A                      A                      A
 Frequencies --    888.8752               928.0661               945.8031
 Red. masses --      2.6386                 2.6491                 1.3471
 Frc consts  --      1.2283                 1.3443                 0.7100
 IR Inten    --     39.5909               141.7827                10.5458

                     43                     44                     45
                      A                      A                      A
 Frequencies --    947.4393               979.7541               985.1463
 Red. masses --      1.3011                 1.8386                 1.2552
 Frc consts  --      0.6881                 1.0399                 0.7177
 IR Inten    --      1.1982                 1.1270                 0.1732

                     46                     47                     48
                      A                      A                      A
 Frequencies --   1007.9734              1060.8390              1071.7762
 Red. masses --      1.6581                 4.1092                 6.3152
 Frc consts  --      0.9925                 2.7246                 4.2741
 IR Inten    --     31.7252                35.9198                37.4102

                     49                     50                     51
                      A                      A                      A
 Frequencies --   1074.1397              1087.2927              1125.0592
 Red. masses --      3.3770                 2.5747                 3.3007
 Frc consts  --      2.2956                 1.7934                 2.4615
 IR Inten    --     10.5238                15.2689                24.7576

                     52                     53                     54
                      A                      A                      A
 Frequencies --   1140.3071              1143.0377              1158.7073
 Red. masses --      1.8357                 2.0258                 1.5424
 Frc consts  --      1.4063                 1.5594                 1.2201
 IR Inten    --     11.4314                77.3572                60.7647

                     55                     56                     57
                      A                      A                      A
 Frequencies --   1170.7034              1186.2218              1208.3362
 Red. masses --      1.3923                 1.7873                 1.2473
 Frc consts  --      1.1243                 1.4818                 1.0730
 IR Inten    --      5.2520                45.5117                11.2127

                     58                     59                     60
                      A                      A                      A
 Frequencies --   1261.9172              1285.0333              1292.8499
 Red. masses --      1.8750                 2.5635                 1.5111
 Frc consts  --      1.7592                 2.4941                 1.4881
 IR Inten    --    242.7078               149.1713                 5.8043

                     61                     62                     63
                      A                      A                      A
 Frequencies --   1328.2069              1335.7905              1342.0599
 Red. masses --      1.5629                 6.8261                 1.3502
 Frc consts  --      1.6245                 7.1763                 1.4328
 IR Inten    --     10.4834                72.2021                60.7238

                     64                     65                     66
                      A                      A                      A
 Frequencies --   1351.4117              1354.1462              1386.0486
 Red. masses --      1.9614                 3.2118                 1.2047
 Frc consts  --      2.1106                 3.4700                 1.3636
 IR Inten    --     45.3517                15.7786                28.7947

                     67                     68                     69
                      A                      A                      A
 Frequencies --   1402.6059              1435.3875              1451.1161
 Red. masses --      1.5992                 1.3310                 2.5619
 Frc consts  --      1.8537                 1.6157                 3.1784
 IR Inten    --     32.1893                23.0140               175.3284

                     70                     71                     72
                      A                      A                      A
 Frequencies --   1456.3800              1488.3619              1510.7757
 Red. masses --      1.3344                 2.1963                 1.2768
 Frc consts  --      1.6676                 2.8665                 1.7170
 IR Inten    --     74.0222                50.8662                78.4452

                     73                     74                     75
                      A                      A                      A
 Frequencies --   1511.5547              1520.7467              1524.7464
 Red. masses --      1.8732                 1.1134                 1.1925
 Frc consts  --      2.5216                 1.5171                 1.6335
 IR Inten    --    455.8846                24.1880               173.3643

                     76                     77                     78
                      A                      A                      A
 Frequencies --   1542.2792              1559.1060              1609.9730
 Red. masses --      1.9716                 1.1161                 6.0621
 Frc consts  --      2.7631                 1.5985                 9.2579
 IR Inten    --     14.0638                11.7521                59.2428

                     79                     80                     81
                      A                      A                      A
 Frequencies --   1625.1889              1626.7153              1633.1292
 Red. masses --      5.9304                 1.0454                 5.7139
 Frc consts  --      9.2288                 1.6299                 8.9789
 IR Inten    --    128.9342                75.1113                 6.7807

                     82                     83                     84
                      A                      A                      A
 Frequencies --   1645.7353              1652.0277              3093.3543
 Red. masses --      1.0608                 5.6806                 1.0619
 Frc consts  --      1.6927                 9.1344                 5.9869
 IR Inten    --    101.7668                52.0865                20.3165

                     85                     86                     87
                      A                      A                      A
 Frequencies --   3103.6732              3130.9374              3137.2455
 Red. masses --      1.0639                 1.0823                 1.0811
 Frc consts  --      6.0382                 6.2512                 6.2695
 IR Inten    --     46.2266                11.2291                 3.4492

                     88                     89                     90
                      A                      A                      A
 Frequencies --   3152.2531              3191.6765              3208.0094
 Red. masses --      1.1007                 1.1090                 1.0871
 Frc consts  --      6.4442                 6.6562                 6.5915
 IR Inten    --     44.8392                11.9351                 2.1849

                     91                     92                     93
                      A                      A                      A
 Frequencies --   3214.8347              3222.0647              3231.3914
 Red. masses --      1.0903                 1.0899                 1.0964
 Frc consts  --      6.6394                 6.6666                 6.7453
 IR Inten    --     20.0741                 8.8756                43.3132

                     94                     95                     96
                      A                      A                      A
 Frequencies --   3251.9966              3273.8551              3285.5658
 Red. masses --      1.0942                 1.0892                 1.0893
 Frc consts  --      6.8176                 6.8785                 6.9284
 IR Inten    --      4.7036                14.9515                 1.9925

                     97                     98                     99
                      A                      A                      A
 Frequencies --   3386.8767              3452.7687              3482.5749
 Red. masses --      1.0398                 1.0864                 1.0941
 Frc consts  --      7.0278                 7.6309                 7.8179
 IR Inten    --    162.6175               206.1312               231.9530

 - Thermochemistry -
 -------------------
 Temperature   298.150 Kelvin.  Pressure   1.00000 Atm.
 Atom     1 has atomic number  7 and mass  14.00307

 Molecular mass:   291.07227 amu.
 Principal axes and moments of inertia in atomic units:
                           1         2         3
     Eigenvalues --  4830.934337234.72829**********
           X            0.99967   0.02475  -0.00740
           Y           -0.02479   0.99968  -0.00561
           Z            0.00726   0.00579   0.99996
 This molecule is an asymmetric top.
 Rotational symmetry number  1.
 Warning -- assumption of classical behavior for rotation
           may cause significant error
 Rotational temperatures (Kelvin)      0.01793     0.01197     0.00746
 Rotational constants (GHZ):           0.37358     0.24946     0.15543
 Zero-point vibrational energy     758629.3 (Joules/Mol)
                                  181.31676 (Kcal/Mol)
 Warning -- explicit consideration of  26 degrees of freedom as
           vibrations may cause significant error
 Vibrational temperatures:     55.74    79.66   103.39   122.31   164.84
          (Kelvin)            188.23   233.33   259.94   291.03   324.35
                              334.67   409.99   415.75   431.81   482.77
                              533.29   566.03   584.18   626.98   647.12
                              665.16   668.64   711.07   787.18   803.22
                              849.83   899.24   944.38   993.82  1026.43
                             1047.65  1062.69  1101.50  1115.74  1166.70
                             1172.42  1205.49  1238.08  1253.99  1278.89
                             1335.28  1360.80  1363.15  1409.65  1417.41
                             1450.25  1526.31  1542.05  1545.45  1564.37
                             1618.71  1640.65  1644.58  1667.12  1684.38
                             1706.71  1738.53  1815.62  1848.88  1860.12
                             1910.99  1921.90  1930.92  1944.38  1948.31
                             1994.21  2018.04  2065.20  2087.83  2095.41
                             2141.42  2173.67  2174.79  2188.02  2193.77
                             2219.00  2243.21  2316.39  2338.28  2340.48
                             2349.71  2367.85  2376.90  4450.65  4465.49
                             4504.72  4513.80  4535.39  4592.11  4615.61
                             4625.43  4635.83  4649.25  4678.90  4710.35
                             4727.20  4872.96  4967.76  5010.65

 Zero-point correction=                           0.288947 (Hartree/Particle)
 Thermal correction to Energy=                    0.305589
 Thermal correction to Enthalpy=                  0.306533
 Thermal correction to Gibbs Free Energy=         0.244281
 Sum of electronic and zero-point Energies=          -1548.705388
 Sum of electronic and thermal Energies=             -1548.688745
 Sum of electronic and thermal Enthalpies=           -1548.687801
 Sum of electronic and thermal Free Energies=        -1548.750054

                     E (Thermal)             CV                S
                      KCal/Mol        Cal/Mol-Kelvin    Cal/Mol-Kelvin
 Total                  191.760             65.690            131.022
 Electronic               0.000              0.000              0.000
 Translational            0.889              2.981             42.903
 Rotational               0.889              2.981             34.361
 Vibrational            189.983             59.729             53.758
 Vibration     1          0.594              1.981              5.323
 Vibration     2          0.596              1.975              4.616
 Vibration     3          0.598              1.967              4.102
 Vibration     4          0.601              1.960              3.772
 Vibration     5          0.608              1.937              3.190
 Vibration     6          0.612              1.922              2.934
 Vibration     7          0.622              1.889              2.524
 Vibration     8          0.630              1.866              2.321
 Vibration     9          0.639              1.837              2.112
 Vibration    10          0.650              1.802              1.915
 Vibration    11          0.653              1.791              1.859
 Vibration    12          0.683              1.702              1.504
 Vibration    13          0.686              1.694              1.480
 Vibration    14          0.693              1.673              1.416
 Vibration    15          0.717              1.605              1.233
 Vibration    16          0.743              1.532              1.077
 Vibration    17          0.761              1.484              0.987
 Vibration    18          0.771              1.457              0.941
 Vibration    19          0.796              1.392              0.840
 Vibration    20          0.809              1.361              0.796
 Vibration    21          0.820              1.334              0.759
 Vibration    22          0.822              1.328              0.752
 Vibration    23          0.850              1.263              0.673
 Vibration    24          0.902              1.146              0.550
 Vibration    25          0.914              1.122              0.527
 Vibration    26          0.948              1.052              0.466

 Optimization completed.
    -- Stationary point found.
 Normal termination of Gaussian 16 at Sun Jul 18 14:35:09 2021.

 ----------------------------------------------------------------------
 #p b3lyp/6-31G(d) scrf=(iefpcm,read,solvent=water) geom=allcheck guess
 =read
 ----------------------------------------------------------------------

 Structure from the checkpoint file:  "SET_328_BBB29_conf1.geo_285_180_300.chk"
 --------------------------------------------
 SET_328_BBB29_conf1.geo_285_180_300 geometry
 --------------------------------------------
 Charge =  1 Multiplicity = 1

 SCF Done:  E(RB3LYP) =  -1548.99433421     A.U. after    1 cycles
 Normal termination of Gaussian 16 at Sun Jul 18 14:35:22 2021.

 -----------------------------
 #p B3LYP/6-31G* geom=allcheck
 -----------------------------

 Structure from the checkpoint file:  "SET_328_BBB29_conf1.geo_285_180_300.chk"
 --------------------------------------------
 SET_328_BBB29_conf1.geo_285_180_300 geometry
 --------------------------------------------
 Charge =  1 Multiplicity = 1

 SCF Done:  E(RB3LYP) =  -1548.86835848     A.U. after   16 cycles

 The electronic state is 1-A.
 Alpha  occ. eigenvalues -- -101.63658 -88.97911 -14.67233 -14.48927 -10.43907
 Alpha  occ. eigenvalues --  -10.37509 -10.36230 -10.34878 -10.34524 -10.34000
 Alpha  occ. eigenvalues --  -10.31912 -10.31477 -10.30424 -10.29349 -10.29260
 Alpha  occ. eigenvalues --  -10.28858 -10.28440 -10.28396 -10.27748  -9.55279
 Alpha  occ. eigenvalues --   -8.03983  -7.31677  -7.30698  -7.30681  -6.00496
 Alpha  occ. eigenvalues --   -6.00125  -5.99462  -1.21331  -1.08516  -0.98410
 Alpha  occ. eigenvalues --   -0.97431  -0.95226  -0.93726  -0.88969  -0.87520
 Alpha  occ. eigenvalues --   -0.86437  -0.83563  -0.83020  -0.80449  -0.79434
 Alpha  occ. eigenvalues --   -0.77881  -0.76373  -0.73186  -0.71273  -0.70475
 Alpha  occ. eigenvalues --   -0.69163  -0.65662  -0.64764  -0.63500  -0.62084
 Alpha  occ. eigenvalues --   -0.59064  -0.58829  -0.58197  -0.56904  -0.56129
 Alpha  occ. eigenvalues --   -0.55226  -0.53971  -0.53516  -0.53136  -0.51549
 Alpha  occ. eigenvalues --   -0.51382  -0.50540  -0.48529  -0.47685  -0.47399
 Alpha  occ. eigenvalues --   -0.45594  -0.44531  -0.43665  -0.42194  -0.41051
 Alpha  occ. eigenvalues --   -0.40237  -0.38237  -0.35550  -0.34278  -0.32214
 Alpha  occ. eigenvalues --   -0.27905
 Alpha virt. eigenvalues --   -0.17524  -0.11450  -0.11077  -0.10955  -0.10849
 Alpha virt. eigenvalues --   -0.09920  -0.08128  -0.07536  -0.06442  -0.04663
 Alpha virt. eigenvalues --   -0.04532  -0.03818  -0.01839  -0.00661   0.00479

 Mulliken charges:
               1
     1  N   -0.726540
     2  H    0.434445
     3  H    0.437573
     4  C   -0.224661
     5  H    0.232482
     6  H    0.238219
     7  C   -0.309087
     8  H    0.227325
     9  H    0.191394
    10  C   -0.175849
    11  H    0.151549
    12  H    0.183290
    13  N   -0.600098
    14  C    0.341840
    15  C   -0.160471
    16  H    0.084540
    17  C   -0.081630
    18  Cl  -0.016113
    19  C   -0.113765
    20  H    0.178993
    21  C   -0.175840
    22  H    0.176707
    23  C   -0.122112
    24  S    0.220372
    25  C   -0.128007
    26  C    0.331052
    27  C   -0.174608
    28  H    0.097270
    29  C   -0.142717
    30  H    0.147499
    31  C   -0.112722
    32  H    0.159000
    33  C   -0.173909
    34  H    0.168974
    35  H    0.435601
 Sum of Mulliken charges =   1.00000

 Dipole moment (field-independent basis, Debye):
    X=              4.2190    Y=             18.5201    Z=             -1.7374  Tot=             19.0739
 Quadrupole moment (field-independent basis, Debye-Ang):
   XX=            -99.9763   YY=            -24.6729   ZZ=           -123.0003
   XY=             27.9930   XZ=             -7.7513   YZ=            -11.0824

 Normal termination of Gaussian 16 at Sun Jul 18 14:36:24 2021.
 Gaussian 16:  ES64L-G16RevB.01 20-Dec-2017

 --------------------------------------------------------
 #p mp2/aug-cc-pVDZ scf=tight maxdisk=180GB geom=allcheck
 --------------------------------------------------------

 Structure from the checkpoint file:  "SET_328_BBB29_conf1.geo_285_180_300.chk"
 --------------------------------------------
 SET_328_BBB29_conf1.geo_285_180_300 geometry
 --------------------------------------------
 Charge =  1 Multiplicity = 1

                         Standard orientation:
 ---------------------------------------------------------------------
 Center     Atomic      Atomic             Coordinates (Angstroms)
 Number     Number       Type             X           Y           Z
 ---------------------------------------------------------------------
      1          7           0        1.729598    4.329163   -0.646382
      2          1           0        2.573782    3.922498   -0.218196
      3          1           0        1.907066    5.339479   -0.776431
      4          6           0        0.515704    4.105489    0.212758
      5          1           0       -0.329721    4.533954   -0.326943
      6          1           0        0.676527    4.683982    1.121108
      7          6           0        0.296748    2.635045    0.541911
      8          1           0       -0.528609    2.598008    1.255161
      9          1           0        1.170225    2.241373    1.068756
     10          6           0       -0.043128    1.775612   -0.692598
     11          1           0        0.819138    1.701376   -1.358424
     12          1           0       -0.837188    2.258871   -1.267128
     13          7           0       -0.483680    0.405908   -0.413440
     14          6           0        0.492716   -0.586128   -0.197233
     15          6           0        1.840425   -0.246809    0.010050
     16          1           0        2.160318    0.783629    0.023202
     17          6           0        2.794059   -1.243450    0.202177
     18         17           0        4.471041   -0.759657    0.437419
     19          6           0        2.464419   -2.590970    0.231034
     20          1           0        3.217904   -3.350143    0.395276
     21          6           0        1.126004   -2.931259    0.033859
     22          1           0        0.831621   -3.974989    0.037260
     23          6           0        0.158933   -1.957589   -0.204860
     24         16           0       -1.471424   -2.482764   -0.671405
     25          6           0       -2.407561   -1.093181   -0.076205
     26          6           0       -1.842817    0.198019   -0.072050
     27          6           0       -2.686591    1.270997    0.258691
     28          1           0       -2.304280    2.281298    0.273565
     29          6           0       -4.030758    1.066681    0.572599
     30          1           0       -4.649635    1.924966    0.812165
     31          6           0       -4.566537   -0.217757    0.594256
     32          1           0       -5.607104   -0.383308    0.849422
     33          6           0       -3.741499   -1.297815    0.276936
     34          1           0       -4.134648   -2.309263    0.275168
     35          1           0        1.627591    3.919846   -1.586794
 ---------------------------------------------------------------------

 SCF Done:  E(RHF) =  -1543.11222081     A.U. after   17 cycles
