 Gaussian 16, Revision B.01,

 -----------------------------------------------------------
 #p b3lyp/6-31G(d) opt freq scrf=(iefpcm,read,solvent=water)
 -----------------------------------------------------------

 ---------------------------------------------
 SET_328_BBB321_conf1.geo_195_330_315 geometry
 ---------------------------------------------
 Symbolic Z-matrix:
 Charge =  1 Multiplicity = 1

 SCF Done:  E(RB3LYP) =  -1212.48935688     A.U. after   19 cycles
 SCF Done:  E(RB3LYP) =  -1212.61766789     A.U. after   14 cycles
 SCF Done:  E(RB3LYP) =  -1212.73336149     A.U. after   14 cycles
 SCF Done:  E(RB3LYP) =  -1212.77115877     A.U. after   13 cycles
 SCF Done:  E(RB3LYP) =  -1212.79175591     A.U. after   13 cycles
 SCF Done:  E(RB3LYP) =  -1212.80399702     A.U. after   13 cycles
 SCF Done:  E(RB3LYP) =  -1212.81520577     A.U. after   14 cycles
 SCF Done:  E(RB3LYP) =  -1212.81996925     A.U. after   11 cycles
 SCF Done:  E(RB3LYP) =  -1212.82175646     A.U. after   11 cycles
 SCF Done:  E(RB3LYP) =  -1212.82233829     A.U. after   11 cycles
 SCF Done:  E(RB3LYP) =  -1212.82304205     A.U. after    7 cycles
 SCF Done:  E(RB3LYP) =  -1212.82304173     A.U. after    7 cycles
 SCF Done:  E(RB3LYP) =  -1212.82304213     A.U. after    7 cycles
 SCF Done:  E(RB3LYP) =  -1212.82304233     A.U. after    7 cycles
 SCF Done:  E(RB3LYP) =  -1212.82304280     A.U. after    7 cycles
 SCF Done:  E(RB3LYP) =  -1212.82304309     A.U. after    7 cycles
 Optimization completed.
    -- Stationary point found.
 Normal termination of Gaussian 16 at Sun Jul 18 16:25:11 2021.

 --------------------------------------------------------------------
 #P Geom=AllCheck Guess=TCheck SCRF=Check GenChk RB3LYP/6-31G(d) Freq
 --------------------------------------------------------------------

 Structure from the checkpoint file:  "SET_328_BBB321_conf1.geo_195_330_315.chk"
 ---------------------------------------------
 SET_328_BBB321_conf1.geo_195_330_315 geometry
 ---------------------------------------------
 Charge =  1 Multiplicity = 1

 SCF Done:  E(RB3LYP) =  -1212.82304309     A.U. after    1 cycles

  Exact polarizability: 343.862  -4.826 328.930   2.961   0.182  90.973
 Approx polarizability: 378.390  -7.534 364.869   3.821   0.211 109.066

                      1                      2                      3
                      A                      A                      A
 Frequencies --     23.2142                41.3034                59.2440
 Red. masses --      5.6680                 5.0940                 1.5979
 Frc consts  --      0.0018                 0.0051                 0.0033
 IR Inten    --      7.5425                16.4651                 6.6797

                      4                      5                      6
                      A                      A                      A
 Frequencies --     61.0876                70.2807                77.9220
 Red. masses --      4.1778                 5.5376                 4.9986
 Frc consts  --      0.0092                 0.0161                 0.0179
 IR Inten    --     10.9706                 1.1425                12.0171

                      7                      8                      9
                      A                      A                      A
 Frequencies --     99.4367               115.5744               132.7421
 Red. masses --      3.1872                 3.2476                 5.8305
 Frc consts  --      0.0186                 0.0256                 0.0605
 IR Inten    --      0.0513                 0.4782                10.2398

                     10                     11                     12
                      A                      A                      A
 Frequencies --    168.5315               218.3523               249.5081
 Red. masses --      1.1524                 5.1469                 4.6955
 Frc consts  --      0.0193                 0.1446                 0.1722
 IR Inten    --    360.8476                 3.1627                 5.9100

                     13                     14                     15
                      A                      A                      A
 Frequencies --    265.4890               279.7881               281.1488
 Red. masses --      4.3480                 5.0042                 6.6963
 Frc consts  --      0.1806                 0.2308                 0.3119
 IR Inten    --      8.2091                 4.5012                 1.7636

                     16                     17                     18
                      A                      A                      A
 Frequencies --    322.7838               335.4620               350.6242
 Red. masses --      4.2706                 5.6601                 1.4182
 Frc consts  --      0.2622                 0.3753                 0.1027
 IR Inten    --     21.4650                23.5738               279.8231

                     19                     20                     21
                      A                      A                      A
 Frequencies --    353.3921               404.8907               407.3422
 Red. masses --      4.0891                 4.0588                 1.1222
 Frc consts  --      0.3009                 0.3920                 0.1097
 IR Inten    --     37.5494                10.2432                84.5660

                     22                     23                     24
                      A                      A                      A
 Frequencies --    453.2391               498.0737               527.8640
 Red. masses --      3.3150                 5.1925                 1.9321
 Frc consts  --      0.4012                 0.7589                 0.3172
 IR Inten    --      7.6077                 2.0302               104.7334

                     25                     26                     27
                      A                      A                      A
 Frequencies --    538.0380               547.3286               565.0807
 Red. masses --      4.0677                 2.4885                 2.1248
 Frc consts  --      0.6938                 0.4392                 0.3997
 IR Inten    --     29.7387                 1.6121               162.8673

                     28                     29                     30
                      A                      A                      A
 Frequencies --    584.3187               603.9810               621.6414
 Red. masses --      1.7798                 2.5283                 9.3566
 Frc consts  --      0.3580                 0.5434                 2.1303
 IR Inten    --      6.5654                37.9716                 1.8285

                     31                     32                     33
                      A                      A                      A
 Frequencies --    641.6698               656.2127               667.9314
 Red. masses --      1.7664                 1.1722                 6.2318
 Frc consts  --      0.4285                 0.2974                 1.6381
 IR Inten    --     24.6872                 6.7109                 7.1753

                     34                     35                     36
                      A                      A                      A
 Frequencies --    691.4475               696.3862               702.6786
 Red. masses --      6.2551                 3.2848                 2.3499
 Frc consts  --      1.7620                 0.9385                 0.6836
 IR Inten    --     19.5031                 3.0702                 5.2725

                     37                     38                     39
                      A                      A                      A
 Frequencies --    710.8736               752.2212               807.0786
 Red. masses --      2.7483                 1.7072                 1.7060
 Frc consts  --      0.8183                 0.5692                 0.6547
 IR Inten    --      0.3690                93.0790                33.4139

                     40                     41                     42
                      A                      A                      A
 Frequencies --    820.7022               870.2712               898.2601
 Red. masses --      7.3872                 6.0825                 3.8877
 Frc consts  --      2.9316                 2.7142                 1.8482
 IR Inten    --     36.2437                39.4149                 0.4136

                     43                     44                     45
                      A                      A                      A
 Frequencies --    900.5722               927.0707               973.1487
 Red. masses --      1.4985                 1.4653                 5.7268
 Frc consts  --      0.7161                 0.7420                 3.1954
 IR Inten    --      3.6931                23.6787                 7.1645

                     46                     47                     48
                      A                      A                      A
 Frequencies --    979.8018               991.0334              1010.4294
 Red. masses --      1.2750                 3.3479                 5.0573
 Frc consts  --      0.7211                 1.9373                 3.0422
 IR Inten    --      0.9220                 4.2244                18.3476

                     49                     50                     51
                      A                      A                      A
 Frequencies --   1016.2691              1042.3820              1067.5604
 Red. masses --      6.1097                 1.6558                 1.6743
 Frc consts  --      3.7178                 1.0600                 1.1243
 IR Inten    --      0.8219                14.3109                15.4955

                     52                     53                     54
                      A                      A                      A
 Frequencies --   1089.4042              1109.4935              1129.0864
 Red. masses --      1.4222                 1.7973                 1.6465
 Frc consts  --      0.9944                 1.3035                 1.2367
 IR Inten    --     12.2185                40.0055                 0.6369

                     55                     56                     57
                      A                      A                      A
 Frequencies --   1133.5355              1203.5134              1204.4121
 Red. masses --      1.8062                 1.1259                 1.7611
 Frc consts  --      1.3674                 0.9608                 1.5051
 IR Inten    --     22.3446                19.9758                31.8061

                     58                     59                     60
                      A                      A                      A
 Frequencies --   1253.0011              1273.2449              1304.5923
 Red. masses --      2.9783                 2.6195                 2.2112
 Frc consts  --      2.7550                 2.5020                 2.2173
 IR Inten    --    237.8009                46.3712               233.2926

                     61                     62                     63
                      A                      A                      A
 Frequencies --   1312.0296              1365.2890              1376.4008
 Red. masses --      2.0902                 2.8118                 5.9821
 Frc consts  --      2.1199                 3.0880                 6.6772
 IR Inten    --     48.1464                15.1519                66.7860

                     64                     65                     66
                      A                      A                      A
 Frequencies --   1423.9723              1458.3428              1492.8733
 Red. masses --      1.2454                 3.3733                 1.0458
 Frc consts  --      1.4879                 4.2269                 1.3732
 IR Inten    --     40.5579               314.7846                11.0439

                     67                     68                     69
                      A                      A                      A
 Frequencies --   1506.7214              1513.5088              1532.4993
 Red. masses --      1.1208                 1.8004                 2.4680
 Frc consts  --      1.4991                 2.4299                 3.4150
 IR Inten    --     29.4407                99.0506                71.4334

                     70                     71                     72
                      A                      A                      A
 Frequencies --   1537.1420              1563.2840              1587.9624
 Red. masses --      1.8164                 4.7090                 3.2183
 Frc consts  --      2.5287                 6.7804                 4.7814
 IR Inten    --    364.6309               110.7327               259.2734

                     73                     74                     75
                      A                      A                      A
 Frequencies --   1603.8653              1624.9542              1639.2971
 Red. masses --      2.2703                 1.7250                 1.5658
 Frc consts  --      3.4409                 2.6836                 2.4791
 IR Inten    --    308.8370               729.0099               813.6399

                     76                     77                     78
                      A                      A                      A
 Frequencies --   1645.1207              1667.8954              1718.8388
 Red. masses --      5.6603                 4.2116                 3.2871
 Frc consts  --      9.0258                 6.9030                 5.7218
 IR Inten    --    112.0348                73.8012               894.3493

                     79                     80                     81
                      A                      A                      A
 Frequencies --   1738.4031              3083.0317              3151.2032
 Red. masses --      5.9320                 1.0359                 1.1012
 Frc consts  --     10.5622                 5.8014                 6.4425
 IR Inten    --    351.2840                 9.5579                10.1510

                     82                     83                     84
                      A                      A                      A
 Frequencies --   3170.7068              3206.9986              3220.2110
 Red. masses --      1.1053                 1.0866                 1.0910
 Frc consts  --      6.5471                 6.5842                 6.6654
 IR Inten    --     26.0922                 8.6569                31.1588

                     85                     86                     87
                      A                      A                      A
 Frequencies --   3230.6934              3299.6851              3327.6275
 Red. masses --      1.0951                 1.0947                 1.0888
 Frc consts  --      6.7342                 7.0226                 7.1034
 IR Inten    --     30.7211                 5.8492                19.9188

                     88                     89                     90
                      A                      A                      A
 Frequencies --   3485.9688              3550.0383              3557.5874
 Red. masses --      1.0514                 1.0559                 1.0705
 Frc consts  --      7.5281                 7.8405                 7.9825
 IR Inten    --    442.0992               164.0317               422.7302

                     91                     92                     93
                      A                      A                      A
 Frequencies --   3620.9006              3624.1884              3664.5782
 Red. masses --      1.0779                 1.1031                 1.1095
 Frc consts  --      8.3262                 8.5365                 8.7789
 IR Inten    --    107.2770               448.8296               246.4835

 - Thermochemistry -
 -------------------
 Temperature   298.150 Kelvin.  Pressure   1.00000 Atm.
 Atom     1 has atomic number  6 and mass  12.00000

 Molecular mass:   276.09191 amu.
 Principal axes and moments of inertia in atomic units:
                           1         2         3
     Eigenvalues --  4044.085538226.69043**********
           X            0.99996   0.00848  -0.00025
           Y           -0.00848   0.99996   0.00021
           Z            0.00026  -0.00021   1.00000
 This molecule is an asymmetric top.
 Rotational symmetry number  1.
 Warning -- assumption of classical behavior for rotation
           may cause significant error
 Rotational temperatures (Kelvin)      0.02142     0.01053     0.00707
 Rotational constants (GHZ):           0.44627     0.21938     0.14725
 Zero-point vibrational energy     683568.8 (Joules/Mol)
                                  163.37687 (Kcal/Mol)
 Warning -- explicit consideration of  29 degrees of freedom as
           vibrations may cause significant error
 Vibrational temperatures:     33.40    59.43    85.24    87.89   101.12
          (Kelvin)            112.11   143.07   166.29   190.99   242.48
                              314.16   358.99   381.98   402.55   404.51
                              464.41   482.65   504.47   508.45   582.55
                              586.07   652.11   716.62   759.48   774.12
                              787.48   813.03   840.70   868.99   894.40
                              923.22   944.14   961.00   994.84  1001.94
                             1011.00  1022.79  1082.28  1161.21  1180.81
                             1252.13  1292.40  1295.72  1333.85  1400.14
                             1409.72  1425.88  1453.78  1462.18  1499.76
                             1535.98  1567.41  1596.31  1624.50  1630.90
                             1731.59  1732.88  1802.79  1831.92  1877.02
                             1887.72  1964.35  1980.33  2048.78  2098.23
                             2147.91  2167.84  2177.60  2204.92  2211.60
                             2249.22  2284.72  2307.60  2337.95  2358.58
                             2366.96  2399.73  2473.03  2501.17  4435.79
                             4533.88  4561.94  4614.16  4633.17  4648.25
                             4747.51  4787.71  5015.53  5107.71  5118.57
                             5209.67  5214.40  5272.51

 Zero-point correction=                           0.260358 (Hartree/Particle)
 Thermal correction to Energy=                    0.278872
 Thermal correction to Enthalpy=                  0.279816
 Thermal correction to Gibbs Free Energy=         0.212097
 Sum of electronic and zero-point Energies=          -1212.562685
 Sum of electronic and thermal Energies=             -1212.544171
 Sum of electronic and thermal Enthalpies=           -1212.543227
 Sum of electronic and thermal Free Energies=        -1212.610946

                     E (Thermal)             CV                S
                      KCal/Mol        Cal/Mol-Kelvin    Cal/Mol-Kelvin
 Total                  174.995             69.714            142.528
 Electronic               0.000              0.000              0.000
 Translational            0.889              2.981             42.745
 Rotational               0.889              2.981             34.366
 Vibrational            173.218             63.752             65.417
 Vibration     1          0.593              1.985              6.338
 Vibration     2          0.594              1.981              5.196
 Vibration     3          0.597              1.974              4.482
 Vibration     4          0.597              1.973              4.422
 Vibration     5          0.598              1.968              4.145
 Vibration     6          0.599              1.964              3.943
 Vibration     7          0.604              1.950              3.465
 Vibration     8          0.608              1.936              3.173
 Vibration     9          0.613              1.921              2.906
 Vibration    10          0.625              1.881              2.452
 Vibration    11          0.646              1.813              1.973
 Vibration    12          0.662              1.764              1.734
 Vibration    13          0.671              1.736              1.625
 Vibration    14          0.680              1.711              1.535
 Vibration    15          0.681              1.709              1.527
 Vibration    16          0.708              1.630              1.296
 Vibration    17          0.717              1.605              1.234
 Vibration    18          0.728              1.574              1.163
 Vibration    19          0.730              1.568              1.151
 Vibration    20          0.770              1.460              0.945
 Vibration    21          0.772              1.454              0.936
 Vibration    22          0.812              1.354              0.786
 Vibration    23          0.854              1.254              0.663
 Vibration    24          0.883              1.188              0.592
 Vibration    25          0.893              1.166              0.570
 Vibration    26          0.903              1.146              0.550
 Vibration    27          0.921              1.107              0.514
 Vibration    28          0.941              1.065              0.477
 Vibration    29          0.962              1.023              0.443

                           ! Non-Optimized Parameters !
 Normal termination of Gaussian 16 at Sun Jul 18 16:35:55 2021.

 ----------------------------------------------------------------------
 #p b3lyp/6-31G(d) scrf=(iefpcm,read,solvent=water) geom=allcheck guess
 =read
 ----------------------------------------------------------------------

 Structure from the checkpoint file:  "SET_328_BBB321_conf1.geo_195_330_315.chk"
 ---------------------------------------------
 SET_328_BBB321_conf1.geo_195_330_315 geometry
 ---------------------------------------------
 Charge =  1 Multiplicity = 1

 SCF Done:  E(RB3LYP) =  -1212.82304309     A.U. after    1 cycles
 Normal termination of Gaussian 16 at Sun Jul 18 16:36:05 2021.

 -----------------------------
 #p B3LYP/6-31G* geom=allcheck
 -----------------------------

 Structure from the checkpoint file:  "SET_328_BBB321_conf1.geo_195_330_315.chk"
 ---------------------------------------------
 SET_328_BBB321_conf1.geo_195_330_315 geometry
 ---------------------------------------------
 Charge =  1 Multiplicity = 1

 SCF Done:  E(RB3LYP) =  -1212.70327126     A.U. after   17 cycles
 Normal termination of Gaussian 16 at Sun Jul 18 16:36:51 2021.
 Gaussian 16:  ES64L-G16RevB.01 20-Dec-2017

 --------------------------------------------------------
 #p mp2/aug-cc-pVDZ scf=tight maxdisk=180GB geom=allcheck
 --------------------------------------------------------

 Structure from the checkpoint file:  "SET_328_BBB321_conf1.geo_195_330_315.chk"
 ---------------------------------------------
 SET_328_BBB321_conf1.geo_195_330_315 geometry
 ---------------------------------------------
 Charge =  1 Multiplicity = 1

                         Standard orientation:
 ---------------------------------------------------------------------
 Center     Atomic      Atomic             Coordinates (Angstroms)
 Number     Number       Type             X           Y           Z
 ---------------------------------------------------------------------
      1          6           0       -4.501632    2.933481    0.054490
      2          1           0       -4.378355    3.642275   -0.768050
      3          1           0       -4.463446    3.502624    0.987508
      4          1           0       -5.478575    2.455457   -0.028549
      5          6           0       -3.343297    1.956758    0.032632
      6          8           0       -2.175058    2.350263    0.048554
      7          7           0       -3.707043    0.637984    0.001334
      8          1           0       -4.702022    0.451173   -0.008781
      9          6           0       -2.885336   -0.505231   -0.013037
     10          6           0       -3.513976   -1.760177   -0.045123
     11          6           0       -2.742036   -2.920295   -0.060105
     12          6           0       -1.351191   -2.853391   -0.043826
     13          1           0       -0.768245   -3.767070   -0.058619
     14          1           0       -3.234018   -3.886937   -0.085850
     15          1           0       -4.597248   -1.825794   -0.058800
     16          6           0       -1.487639   -0.433981    0.003682
     17          1           0       -1.009833    0.529402    0.029845
     18          6           0       -0.715588   -1.602798   -0.011417
     19          6           0        0.754062   -1.489207    0.008152
     20          7           0        1.336692   -0.226869   -0.002473
     21          6           0        1.647692   -2.523854    0.039116
     22          1           0        1.456182   -3.585822    0.057099
     23         16           0        3.281447   -1.936637    0.053809
     24          6           0        2.635061   -0.302037    0.018021
     25          7           0        3.497971    0.780589    0.011943
     26          6           0        3.146695    2.100195   -0.036949
     27          7           0        4.127936    2.996983   -0.029936
     28          1           0        5.099716    2.707288   -0.003494
     29          1           0        3.913169    3.988111   -0.071415
     30          7           0        1.876058    2.466132   -0.089095
     31          1           0        1.147295    1.754679   -0.079680
     32          1           0        1.637455    3.452523   -0.116626
     33          1           0        4.497052    0.585652    0.039808
 ---------------------------------------------------------------------

 SCF Done:  E(RHF) =  -1207.16600463     A.U. after   18 cycles
 E2 =    -0.2816349087D+01 EUMP2 =    -0.12099823537162D+04

 The electronic state is 1-A.
 Alpha  occ. eigenvalues --  -92.12813 -20.62281 -15.80756 -15.79174 -15.77408
 Alpha  occ. eigenvalues --  -15.71227 -15.70210 -11.59660 -11.50706 -11.45772
 Alpha  occ. eigenvalues --  -11.40678 -11.38578 -11.38570 -11.35311 -11.33604
 Alpha  occ. eigenvalues --  -11.33385 -11.33168 -11.32706 -11.32697  -9.12981
 Alpha  occ. eigenvalues --   -6.81144  -6.81039  -6.80844  -1.54227  -1.47424
 Alpha  occ. eigenvalues --   -1.44628  -1.38507  -1.37870  -1.34967  -1.24650
 Alpha  occ. eigenvalues --   -1.19766  -1.16676  -1.12176  -1.10643  -1.07268
 Alpha  occ. eigenvalues --   -1.04693  -0.98775  -0.97914  -0.94886  -0.94407
 Alpha  occ. eigenvalues --   -0.90857  -0.87553  -0.87140  -0.84804  -0.84499
 Alpha  occ. eigenvalues --   -0.82446  -0.81016  -0.80430  -0.77128  -0.76518
 Alpha  occ. eigenvalues --   -0.73146  -0.71479  -0.70751  -0.70699  -0.69415
 Alpha  occ. eigenvalues --   -0.68518  -0.67506  -0.64467  -0.64157  -0.63833
 Alpha  occ. eigenvalues --   -0.62552  -0.60874  -0.60194  -0.60007  -0.58705
 Alpha  occ. eigenvalues --   -0.57273  -0.53654  -0.52020  -0.51211  -0.47200
 Alpha  occ. eigenvalues --   -0.41240  -0.39060
 Alpha virt. eigenvalues --   -0.08451  -0.06210  -0.04443  -0.04036  -0.03572
 Alpha virt. eigenvalues --   -0.03299  -0.02822  -0.02340  -0.01930  -0.01617
 Alpha virt. eigenvalues --   -0.01312  -0.00547  -0.00363  -0.00234   0.00331

 Mulliken charges:
               1
     1  C    0.611842
     2  H    0.049444
     3  H    0.061595
     4  H   -0.201975
     5  C    0.354561
     6  O   -0.929414
     7  N   -0.616338
     8  H   -0.035312
     9  C   -0.353345
    10  C    1.049620
    11  C   -0.131118
    12  C    0.487226
    13  H   -0.647541
    14  H   -0.488263
    15  H   -0.693452
    16  C    1.419992
    17  H   -0.669120
    18  C    2.102146
    19  C   -1.369400
    20  N   -0.604439
    21  C    0.729346
    22  H   -0.592057
    23  S    0.459539
    24  C    0.609962
    25  N   -0.713132
    26  C    1.336894
    27  N   -0.261659
    28  H   -0.006139
    29  H    0.027156
    30  N   -0.089629
    31  H    0.096994
    32  H    0.015288
    33  H   -0.009273
 Sum of Mulliken charges =   1.00000

 Dipole moment (field-independent basis, Debye):
    X=              9.1254    Y=              6.2013    Z=             -0.1730  Tot=             11.0344
 Quadrupole moment (field-independent basis, Debye-Ang):
   XX=            -14.8944   YY=            -67.4755   ZZ=           -124.5561
   XY=             26.8632   XZ=             -0.0505   YZ=             -0.8248

 Normal termination of Gaussian 16 at Sun Jul 18 17:09:30 2021.
