 Gaussian 16, Revision B.01,

 -----------------------------------------------------------
 #p b3lyp/6-31G(d) opt freq scrf=(iefpcm,read,solvent=water)
 -----------------------------------------------------------

 ---------------------------------------------
 SET_328_BBB321_conf1.geo_165_210_300 geometry
 ---------------------------------------------
 Symbolic Z-matrix:
 Charge =  1 Multiplicity = 1

 SCF Done:  E(RB3LYP) =  -1212.40054446     A.U. after   18 cycles
 SCF Done:  E(RB3LYP) =  -1212.56812583     A.U. after   13 cycles
 SCF Done:  E(RB3LYP) =  -1212.66966587     A.U. after   13 cycles
 SCF Done:  E(RB3LYP) =  -1212.71748613     A.U. after   12 cycles
 SCF Done:  E(RB3LYP) =  -1212.77456333     A.U. after   13 cycles
 SCF Done:  E(RB3LYP) =  -1212.79518043     A.U. after   11 cycles
 SCF Done:  E(RB3LYP) =  -1212.81210515     A.U. after   13 cycles
 SCF Done:  E(RB3LYP) =  -1212.81759661     A.U. after   13 cycles
 SCF Done:  E(RB3LYP) =  -1212.81938652     A.U. after   13 cycles
 SCF Done:  E(RB3LYP) =  -1212.82113146     A.U. after   10 cycles
 SCF Done:  E(RB3LYP) =  -1212.82279141     A.U. after    7 cycles
 SCF Done:  E(RB3LYP) =  -1212.82279274     A.U. after    7 cycles
 SCF Done:  E(RB3LYP) =  -1212.82279183     A.U. after    7 cycles
 SCF Done:  E(RB3LYP) =  -1212.82279227     A.U. after    7 cycles
 SCF Done:  E(RB3LYP) =  -1212.82279295     A.U. after    7 cycles
 SCF Done:  E(RB3LYP) =  -1212.82279237     A.U. after    7 cycles
 Optimization completed.
    -- Stationary point found.
 Normal termination of Gaussian 16 at Sun Jul 18 16:37:13 2021.

 --------------------------------------------------------------------
 #P Geom=AllCheck Guess=TCheck SCRF=Check GenChk RB3LYP/6-31G(d) Freq
 --------------------------------------------------------------------

 Structure from the checkpoint file:  "SET_328_BBB321_conf1.geo_165_210_300.chk"
 ---------------------------------------------
 SET_328_BBB321_conf1.geo_165_210_300 geometry
 ---------------------------------------------
 Charge =  1 Multiplicity = 1

 SCF Done:  E(RB3LYP) =  -1212.82279237     A.U. after    1 cycles

  Exact polarizability: 361.767   4.096 310.767   0.090  -0.485  90.964
 Approx polarizability: 369.188   8.448 373.762   0.598  -0.546 109.010

                      1                      2                      3
                      A                      A                      A
 Frequencies --     15.7989                44.8993                53.1776
 Red. masses --      5.5188                 5.2392                 4.1341
 Frc consts  --      0.0008                 0.0062                 0.0069
 IR Inten    --      2.7152                 2.5742                16.9278

                      4                      5                      6
                      A                      A                      A
 Frequencies --     66.5220                68.7829                76.0306
 Red. masses --      5.2698                 1.3092                 4.3574
 Frc consts  --      0.0137                 0.0036                 0.0148
 IR Inten    --      8.0830                 5.7637                22.0864

                      7                      8                      9
                      A                      A                      A
 Frequencies --     87.2182               108.5570               113.8811
 Red. masses --      3.1735                 4.5688                 5.9280
 Frc consts  --      0.0142                 0.0317                 0.0453
 IR Inten    --      1.6315                 5.2272                15.0975

                     10                     11                     12
                      A                      A                      A
 Frequencies --    190.3794               212.3006               232.6590
 Red. masses --      1.1873                 5.2435                 1.9421
 Frc consts  --      0.0254                 0.1392                 0.0619
 IR Inten    --    327.2961                 1.7596               179.7940

                     13                     14                     15
                      A                      A                      A
 Frequencies --    261.2702               263.5413               266.1662
 Red. masses --      3.7308                 4.3806                 4.6997
 Frc consts  --      0.1500                 0.1793                 0.1962
 IR Inten    --     27.7985                23.4277                 7.9939

                     16                     17                     18
                      A                      A                      A
 Frequencies --    292.8504               330.0213               346.2337
 Red. masses --      2.6338                 7.0454                 4.4454
 Frc consts  --      0.1331                 0.4521                 0.3140
 IR Inten    --    145.4003                25.0576                 1.7432

                     19                     20                     21
                      A                      A                      A
 Frequencies --    356.2417               386.9530               404.7094
 Red. masses --      7.9402                 4.1594                 1.1008
 Frc consts  --      0.5937                 0.3669                 0.1062
 IR Inten    --      3.4213                 5.0310               111.1177

                     22                     23                     24
                      A                      A                      A
 Frequencies --    454.0666               495.7410               529.6060
 Red. masses --      3.3163                 5.3357                 2.3863
 Frc consts  --      0.4028                 0.7726                 0.3944
 IR Inten    --      1.9795                 0.9229                69.5473

                     25                     26                     27
                      A                      A                      A
 Frequencies --    540.7201               547.8042               567.4079
 Red. masses --      3.9973                 2.4910                 2.1234
 Frc consts  --      0.6886                 0.4404                 0.4028
 IR Inten    --     33.6444                 0.8893               156.5278

                     28                     29                     30
                      A                      A                      A
 Frequencies --    589.7989               608.4312               619.3617
 Red. masses --      1.8744                 2.5854                 9.6534
 Frc consts  --      0.3842                 0.5639                 2.1818
 IR Inten    --      0.6745                45.4967                 1.2871

                     31                     32                     33
                      A                      A                      A
 Frequencies --    640.1504               648.4452               674.3860
 Red. masses --      1.1793                 1.4306                 5.4682
 Frc consts  --      0.2847                 0.3544                 1.4652
 IR Inten    --      1.1311                71.8292                 6.5104

                     34                     35                     36
                      A                      A                      A
 Frequencies --    691.3877               696.2449               699.8171
 Red. masses --      6.1311                 3.7617                 1.9775
 Frc consts  --      1.7268                 1.0744                 0.5706
 IR Inten    --     21.2203                 1.7206                 0.5989

                     37                     38                     39
                      A                      A                      A
 Frequencies --    706.5766               745.1178               815.0392
 Red. masses --      3.1525                 1.8453                 1.6727
 Frc consts  --      0.9273                 0.6036                 0.6547
 IR Inten    --      4.8225                89.5098                27.9856

                     40                     41                     42
                      A                      A                      A
 Frequencies --    825.7762               866.2950               895.3587
 Red. masses --      6.8957                 6.2069                 4.9273
 Frc consts  --      2.7705                 2.7445                 2.3273
 IR Inten    --     39.5172                24.4474                15.4172

                     43                     44                     45
                      A                      A                      A
 Frequencies --    908.0458               919.7656               972.1337
 Red. masses --      1.4274                 1.4484                 6.0678
 Frc consts  --      0.6935                 0.7219                 3.3786
 IR Inten    --      9.4851                17.4646                10.5886

                     46                     47                     48
                      A                      A                      A
 Frequencies --    984.9042               989.6084              1010.7628
 Red. masses --      1.2770                 3.1083                 5.0986
 Frc consts  --      0.7299                 1.7935                 3.0690
 IR Inten    --      1.2442                 2.6411                12.4619

                     49                     50                     51
                      A                      A                      A
 Frequencies --   1014.7261              1041.3528              1067.5471
 Red. masses --      6.0404                 1.7422                 1.6869
 Frc consts  --      3.6645                 1.1131                 1.1327
 IR Inten    --      2.5803                66.8532                19.2125

                     52                     53                     54
                      A                      A                      A
 Frequencies --   1088.5557              1104.2643              1128.5183
 Red. masses --      1.5330                 1.5777                 1.6915
 Frc consts  --      1.0703                 1.1335                 1.2693
 IR Inten    --     11.1613                13.3737                16.4797

                     55                     56                     57
                      A                      A                      A
 Frequencies --   1137.9743              1202.1630              1219.3125
 Red. masses --      1.6155                 1.1269                 1.7060
 Frc consts  --      1.2326                 0.9595                 1.4943
 IR Inten    --      2.9343                 2.4117                14.9891

                     58                     59                     60
                      A                      A                      A
 Frequencies --   1257.5754              1271.5030              1303.7380
 Red. masses --      3.0971                 3.5046                 2.3595
 Frc consts  --      2.8859                 3.3383                 2.3630
 IR Inten    --    274.4748                 8.5127               223.2708

                     61                     62                     63
                      A                      A                      A
 Frequencies --   1322.3977              1342.1501              1377.8193
 Red. masses --      1.8886                 3.7375                 3.5282
 Frc consts  --      1.9459                 3.9667                 3.9463
 IR Inten    --     84.9516                51.0086                38.3289

                     64                     65                     66
                      A                      A                      A
 Frequencies --   1425.5762              1476.2168              1492.9852
 Red. masses --      1.2822                 2.9429                 1.1659
 Frc consts  --      1.5353                 3.7785                 1.5312
 IR Inten    --     36.3459               406.7580                49.8431

                     67                     68                     69
                      A                      A                      A
 Frequencies --   1508.3945              1517.2711              1519.2556
 Red. masses --      1.0994                 2.5715                 1.8760
 Frc consts  --      1.4738                 3.4879                 2.5513
 IR Inten    --     13.2666               185.9117               107.4985

                     70                     71                     72
                      A                      A                      A
 Frequencies --   1538.1356              1568.3437              1589.2613
 Red. masses --      1.8116                 3.9957                 3.1357
 Frc consts  --      2.5252                 5.7907                 4.6664
 IR Inten    --    310.6094                30.2818               103.4746

                     73                     74                     75
                      A                      A                      A
 Frequencies --   1601.8074              1633.1498              1643.8944
 Red. masses --      2.2060                 2.3363                 1.3576
 Frc consts  --      3.3348                 3.6714                 2.1616
 IR Inten    --    575.4104              1120.7527               231.2296

                     76                     77                     78
                      A                      A                      A
 Frequencies --   1646.6570              1668.9748              1722.8984
 Red. masses --      4.1858                 4.2433                 2.8797
 Frc consts  --      6.6870                 6.9639                 5.0364
 IR Inten    --    155.0714                94.0542               842.5204

                     79                     80                     81
                      A                      A                      A
 Frequencies --   1742.8407              3083.4054              3152.8725
 Red. masses --      5.9567                 1.0390                 1.0982
 Frc consts  --     10.6604                 5.8198                 6.4319
 IR Inten    --    346.5317                 6.5467                14.7501

                     82                     83                     84
                      A                      A                      A
 Frequencies --   3184.2711              3206.8631              3221.4135
 Red. masses --      1.1045                 1.0873                 1.0940
 Frc consts  --      6.5983                 6.5882                 6.6892
 IR Inten    --     18.6184                13.0912                36.4385

                     85                     86                     87
                      A                      A                      A
 Frequencies --   3252.7093              3275.5819              3313.7745
 Red. masses --      1.0913                 1.0904                 1.0943
 Frc consts  --      6.8026                 6.8932                 7.0799
 IR Inten    --      8.8817                 5.0510                 8.4454

                     88                     89                     90
                      A                      A                      A
 Frequencies --   3484.9920              3535.0960              3560.0469
 Red. masses --      1.0489                 1.0476                 1.0791
 Frc consts  --      7.5058                 7.7131                 8.0580
 IR Inten    --    448.8713               249.7629               329.8592

                     91                     92                     93
                      A                      A                      A
 Frequencies --   3578.3371              3611.3833              3646.9001
 Red. masses --      1.0781                 1.1053                 1.1095
 Frc consts  --      8.1333                 8.4931                 8.6937
 IR Inten    --    111.0274               487.0969               251.8086

 - Thermochemistry -
 -------------------
 Temperature   298.150 Kelvin.  Pressure   1.00000 Atm.
 Atom     1 has atomic number  6 and mass  12.00000

 Molecular mass:   276.09191 amu.
 Principal axes and moments of inertia in atomic units:
                           1         2         3
     Eigenvalues --  2276.48573********************
           X            0.99998  -0.00598  -0.00040
           Y            0.00598   0.99998   0.00010
           Z            0.00040  -0.00011   1.00000
 This molecule is an asymmetric top.
 Rotational symmetry number  1.
 Warning -- assumption of classical behavior for rotation
           may cause significant error
 Rotational temperatures (Kelvin)      0.03805     0.00704     0.00594
 Rotational constants (GHZ):           0.79278     0.14664     0.12385
 Zero-point vibrational energy     682492.6 (Joules/Mol)
                                  163.11965 (Kcal/Mol)
 Warning -- explicit consideration of  30 degrees of freedom as
           vibrations may cause significant error
 Vibrational temperatures:     22.73    64.60    76.51    95.71    98.96
          (Kelvin)            109.39   125.49   156.19   163.85   273.91
                              305.45   334.74   375.91   379.18   382.95
                              421.35   474.83   498.15   512.55   556.74
                              582.29   653.30   713.26   761.98   777.98
                              788.17   816.37   848.59   875.40   891.12
                              921.03   932.97   970.29   994.75  1001.74
                             1006.88  1016.61  1072.06  1172.66  1188.11
                             1246.41  1288.22  1306.48  1323.34  1398.68
                             1417.06  1423.83  1454.26  1459.96  1498.27
                             1535.96  1566.19  1588.79  1623.69  1637.29
                             1729.64  1754.32  1809.37  1829.41  1875.79
                             1902.64  1931.05  1982.37  2051.09  2123.95
                             2148.07  2170.24  2183.01  2185.87  2213.03
                             2256.50  2286.59  2304.64  2349.74  2365.20
                             2369.17  2401.28  2478.87  2507.56  4436.33
                             4536.28  4581.46  4613.96  4634.90  4679.92
                             4712.83  4767.78  5014.13  5086.21  5122.11
                             5148.43  5195.98  5247.08

 Zero-point correction=                           0.259948 (Hartree/Particle)
 Thermal correction to Energy=                    0.278656
 Thermal correction to Enthalpy=                  0.279600
 Thermal correction to Gibbs Free Energy=         0.211007
 Sum of electronic and zero-point Energies=          -1212.562845
 Sum of electronic and thermal Energies=             -1212.544136
 Sum of electronic and thermal Enthalpies=           -1212.543192
 Sum of electronic and thermal Free Energies=        -1212.611786

                     E (Thermal)             CV                S
                      KCal/Mol        Cal/Mol-Kelvin    Cal/Mol-Kelvin
 Total                  174.859             69.913            144.368
 Electronic               0.000              0.000              0.000
 Translational            0.889              2.981             42.745
 Rotational               0.889              2.981             34.367
 Vibrational            173.082             63.951             67.255
 Vibration     1          0.593              1.986              7.102
 Vibration     2          0.595              1.979              5.030
 Vibration     3          0.596              1.976              4.696
 Vibration     4          0.598              1.970              4.254
 Vibration     5          0.598              1.969              4.188
 Vibration     6          0.599              1.965              3.991
 Vibration     7          0.601              1.958              3.722
 Vibration     8          0.606              1.942              3.295
 Vibration     9          0.607              1.938              3.202
 Vibration    10          0.634              1.853              2.224
 Vibration    11          0.643              1.822              2.024
 Vibration    12          0.653              1.791              1.858
 Vibration    13          0.669              1.744              1.653
 Vibration    14          0.670              1.740              1.638
 Vibration    15          0.672              1.735              1.621
 Vibration    16          0.688              1.687              1.457
 Vibration    17          0.713              1.616              1.260
 Vibration    18          0.724              1.583              1.183
 Vibration    19          0.732              1.562              1.138
 Vibration    20          0.755              1.498              1.012
 Vibration    21          0.770              1.460              0.946
 Vibration    22          0.813              1.352              0.784
 Vibration    23          0.851              1.259              0.669
 Vibration    24          0.885              1.184              0.588
 Vibration    25          0.896              1.160              0.564
 Vibration    26          0.903              1.144              0.549
 Vibration    27          0.923              1.102              0.509
 Vibration    28          0.947              1.054              0.468
 Vibration    29          0.967              1.014              0.435
 Vibration    30          0.979              0.991              0.418

                           ! Non-Optimized Parameters !
 Normal termination of Gaussian 16 at Sun Jul 18 16:46:56 2021.

 ----------------------------------------------------------------------
 #p b3lyp/6-31G(d) scrf=(iefpcm,read,solvent=water) geom=allcheck guess
 =read
 ----------------------------------------------------------------------

 Structure from the checkpoint file:  "SET_328_BBB321_conf1.geo_165_210_300.chk"
 ---------------------------------------------
 SET_328_BBB321_conf1.geo_165_210_300 geometry
 ---------------------------------------------
 Charge =  1 Multiplicity = 1

 SCF Done:  E(RB3LYP) =  -1212.82279237     A.U. after    2 cycles
 Normal termination of Gaussian 16 at Sun Jul 18 16:47:09 2021.

 -----------------------------
 #p B3LYP/6-31G* geom=allcheck
 -----------------------------

 Structure from the checkpoint file:  "SET_328_BBB321_conf1.geo_165_210_300.chk"
 ---------------------------------------------
 SET_328_BBB321_conf1.geo_165_210_300 geometry
 ---------------------------------------------
 Charge =  1 Multiplicity = 1

 SCF Done:  E(RB3LYP) =  -1212.69778929     A.U. after   17 cycles

 The electronic state is 1-A.
 Alpha  occ. eigenvalues --  -89.04986 -19.19166 -14.57532 -14.55992 -14.54548
 Alpha  occ. eigenvalues --  -14.47798 -14.45767 -10.52145 -10.43668 -10.36964
 Alpha  occ. eigenvalues --  -10.35146 -10.33724 -10.32571 -10.29896 -10.28188
 Alpha  occ. eigenvalues --  -10.28132 -10.28027 -10.27520 -10.26029  -8.11110
 Alpha  occ. eigenvalues --   -6.07543  -6.07144  -6.06773  -1.21316  -1.13070
 Alpha  occ. eigenvalues --   -1.10886  -1.08666  -1.07774  -1.02202  -0.94614
 Alpha  occ. eigenvalues --   -0.93474  -0.89900  -0.85645  -0.84372  -0.81810
 Alpha  occ. eigenvalues --   -0.80031  -0.78335  -0.78222  -0.73635  -0.71745
 Alpha  occ. eigenvalues --   -0.71052  -0.69054  -0.67889  -0.67071  -0.65649
 Alpha  occ. eigenvalues --   -0.64020  -0.63557  -0.61728  -0.58421  -0.56401
 Alpha  occ. eigenvalues --   -0.55997  -0.55346  -0.54135  -0.52775  -0.52583
 Alpha  occ. eigenvalues --   -0.51211  -0.49454  -0.48970  -0.48111  -0.47253
 Alpha  occ. eigenvalues --   -0.47135  -0.46188  -0.45833  -0.44132  -0.43862
 Alpha  occ. eigenvalues --   -0.42485  -0.41573  -0.39200  -0.37019  -0.32507
 Alpha  occ. eigenvalues --   -0.32427  -0.30500
 Alpha virt. eigenvalues --   -0.17696  -0.13654  -0.13506  -0.11247  -0.10317
 Alpha virt. eigenvalues --   -0.09145  -0.07526  -0.05378  -0.04699  -0.04504
 Alpha virt. eigenvalues --   -0.02961  -0.01701  -0.00735   0.00161   0.02631

 Mulliken charges:
               1
     1  C   -0.548315
     2  H    0.196960
     3  H    0.204928
     4  H    0.161197
     5  C    0.601695
     6  O   -0.495898
     7  N   -0.710211
     8  H    0.340460
     9  C    0.362954
    10  C   -0.183111
    11  C   -0.134929
    12  C   -0.161604
    13  H    0.116171
    14  H    0.148488
    15  H    0.145976
    16  C   -0.224968
    17  H    0.192601
    18  C    0.112010
    19  C    0.306050
    20  N   -0.561949
    21  C   -0.403299
    22  H    0.238839
    23  S    0.314260
    24  C    0.342998
    25  N   -0.689050
    26  C    0.849882
    27  N   -0.757236
    28  H    0.381880
    29  H    0.445784
    30  N   -0.760363
    31  H    0.391570
    32  H    0.393887
    33  H    0.382346
 Sum of Mulliken charges =   1.00000

 Dipole moment (field-independent basis, Debye):
    X=            -16.3061    Y=              4.0325    Z=              0.1092  Tot=             16.7977
 Quadrupole moment (field-independent basis, Debye-Ang):
   XX=             40.5672   YY=            -92.0419   ZZ=           -119.9636
   XY=              1.6004   XZ=             -1.6817   YZ=             -0.1648

 Normal termination of Gaussian 16 at Sun Jul 18 16:47:50 2021.
 Gaussian 16:  ES64L-G16RevB.01 20-Dec-2017

 --------------------------------------------------------
 #p mp2/aug-cc-pVDZ scf=tight maxdisk=180GB geom=allcheck
 --------------------------------------------------------

 Structure from the checkpoint file:  "SET_328_BBB321_conf1.geo_165_210_300.chk"
 ---------------------------------------------
 SET_328_BBB321_conf1.geo_165_210_300 geometry
 ---------------------------------------------
 Charge =  1 Multiplicity = 1

                         Standard orientation:
 ---------------------------------------------------------------------
 Center     Atomic      Atomic             Coordinates (Angstroms)
 Number     Number       Type             X           Y           Z
 ---------------------------------------------------------------------
      1          6           0        6.354428   -0.825017   -0.047539
      2          1           0        6.684179   -0.820641   -1.091769
      3          1           0        6.677195   -1.762153    0.406712
      4          1           0        6.832973    0.011873    0.463883
      5          6           0        4.840561   -0.755716   -0.000044
      6          8           0        4.144996   -1.772721   -0.018076
      7          7           0        4.334504    0.516561    0.032471
      8          1           0        5.018641    1.267688    0.037377
      9          6           0        2.992223    0.942049    0.021333
     10          6           0        2.759121    2.328506    0.015905
     11          6           0        1.457324    2.813763    0.005676
     12          6           0        0.370964    1.940606    0.001629
     13          1           0       -0.641871    2.321868   -0.006570
     14          1           0        1.288074    3.885188    0.000554
     15          1           0        3.597795    3.016943    0.018866
     16          6           0        1.904966    0.061766    0.018968
     17          1           0        2.098147   -1.000486    0.024493
     18          6           0        0.590990    0.556810    0.008922
     19          6           0       -0.554043   -0.373156    0.007586
     20          7           0       -1.846018    0.141357   -0.000741
     21          6           0       -0.491702   -1.739601    0.015689
     22          1           0        0.375908   -2.379407    0.023489
     23         16           0       -2.081015   -2.437012    0.013185
     24          6           0       -2.736125   -0.807169    0.001656
     25          7           0       -4.107278   -0.616550   -0.003143
     26          6           0       -4.760566    0.583780   -0.014312
     27          7           0       -4.089557    1.724438   -0.026724
     28          1           0       -4.595219    2.605198   -0.036240
     29          1           0       -3.070869    1.707586   -0.033463
     30          7           0       -6.090395    0.561580   -0.026490
     31          1           0       -6.595907   -0.314893    0.056104
     32          1           0       -6.612789    1.430501    0.027775
     33          1           0       -4.697618   -1.446728    0.001999
 ---------------------------------------------------------------------

 SCF Done:  E(RHF) =  -1207.15950291     A.U. after   18 cycles
