 Gaussian 16, Revision B.01,

 -----------------------------------------------------------
 #p b3lyp/6-31G(d) opt freq scrf=(iefpcm,read,solvent=water)
 -----------------------------------------------------------

 ---------------------------------------------
 SET_328_BBB301_conf1.geo_165_120_315 geometry
 ---------------------------------------------
 Symbolic Z-matrix:
 Charge =  1 Multiplicity = 1

 SCF Done:  E(RB3LYP) =  -788.861274212     A.U. after   12 cycles
 SCF Done:  E(RB3LYP) =  -788.896339373     A.U. after   11 cycles
 SCF Done:  E(RB3LYP) =  -788.915755087     A.U. after   11 cycles
 SCF Done:  E(RB3LYP) =  -788.919616529     A.U. after   11 cycles
 SCF Done:  E(RB3LYP) =  -788.922879573     A.U. after   10 cycles
 SCF Done:  E(RB3LYP) =  -788.925284537     A.U. after   12 cycles
 SCF Done:  E(RB3LYP) =  -788.927833549     A.U. after   10 cycles
 SCF Done:  E(RB3LYP) =  -788.928561778     A.U. after   10 cycles
 SCF Done:  E(RB3LYP) =  -788.928711447     A.U. after   10 cycles
 SCF Done:  E(RB3LYP) =  -788.928857758     A.U. after   10 cycles
 SCF Done:  E(RB3LYP) =  -788.932311934     A.U. after    8 cycles
 SCF Done:  E(RB3LYP) =  -788.932354720     A.U. after    9 cycles
 SCF Done:  E(RB3LYP) =  -788.932354056     A.U. after    8 cycles
 SCF Done:  E(RB3LYP) =  -788.932358256     A.U. after    8 cycles
 SCF Done:  E(RB3LYP) =  -788.932356471     A.U. after    7 cycles
 SCF Done:  E(RB3LYP) =  -788.932355624     A.U. after    6 cycles
 Optimization completed.
    -- Stationary point found.
 Normal termination of Gaussian 16 at Sun Jul 18 15:31:52 2021.

 --------------------------------------------------------------------
 #P Geom=AllCheck Guess=TCheck SCRF=Check GenChk RB3LYP/6-31G(d) Freq
 --------------------------------------------------------------------

 Structure from the checkpoint file:  "SET_328_BBB301_conf1.geo_165_120_315.chk"
 ---------------------------------------------
 SET_328_BBB301_conf1.geo_165_120_315 geometry
 ---------------------------------------------
 Charge =  1 Multiplicity = 1

 SCF Done:  E(RB3LYP) =  -788.932355624     A.U. after    1 cycles

  Exact polarizability: 245.259  13.986 205.133  24.633 -20.991 154.680
 Approx polarizability: 256.623  13.692 226.757  30.548 -26.569 171.883

                      1                      2                      3
                      A                      A                      A
 Frequencies --     34.1004                44.7602                71.1996
 Red. masses --      4.7227                 4.4816                 2.9872
 Frc consts  --      0.0032                 0.0053                 0.0089
 IR Inten    --      1.0500                 1.0446                 0.7612

                      4                      5                      6
                      A                      A                      A
 Frequencies --     76.2094                98.9920               132.6564
 Red. masses --      3.3948                 3.7763                 3.3565
 Frc consts  --      0.0116                 0.0218                 0.0348
 IR Inten    --      2.6458                 3.9000                 4.4146

                      7                      8                      9
                      A                      A                      A
 Frequencies --    138.5442               172.0427               202.4306
 Red. masses --      3.5517                 2.8339                 2.6802
 Frc consts  --      0.0402                 0.0494                 0.0647
 IR Inten    --      3.9330                11.6883                 6.0653

                     10                     11                     12
                      A                      A                      A
 Frequencies --    209.3594               234.5546               263.1123
 Red. masses --      3.9376                 1.1495                 2.1173
 Frc consts  --      0.1017                 0.0373                 0.0864
 IR Inten    --      9.6871                 1.6159                 1.2141

                     13                     14                     15
                      A                      A                      A
 Frequencies --    272.3885               289.3847               298.6990
 Red. masses --      3.0809                 1.1864                 1.2102
 Frc consts  --      0.1347                 0.0585                 0.0636
 IR Inten    --     21.9431                 3.3630                 1.4900

                     16                     17                     18
                      A                      A                      A
 Frequencies --    304.9969               336.8446               343.8132
 Red. masses --      1.9367                 1.9599                 2.7458
 Frc consts  --      0.1061                 0.1310                 0.1912
 IR Inten    --     90.3944               109.4576                56.9462

                     19                     20                     21
                      A                      A                      A
 Frequencies --    352.9647               362.0515               397.4723
 Red. masses --      2.1758                 1.9539                 2.0994
 Frc consts  --      0.1597                 0.1509                 0.1954
 IR Inten    --     15.6307                41.2154                21.4046

                     22                     23                     24
                      A                      A                      A
 Frequencies --    422.6290               429.3589               439.8557
 Red. masses --      2.8174                 3.8725                 2.2532
 Frc consts  --      0.2965                 0.4206                 0.2568
 IR Inten    --     33.1992                33.0425                 3.7081

                     25                     26                     27
                      A                      A                      A
 Frequencies --    465.5934               470.2253               491.2344
 Red. masses --      2.6924                 3.1882                 3.0315
 Frc consts  --      0.3439                 0.4153                 0.4310
 IR Inten    --     22.1709                29.5526                 3.8694

                     28                     29                     30
                      A                      A                      A
 Frequencies --    535.9569               598.9107               617.9912
 Red. masses --      2.9869                 3.5097                 4.6410
 Frc consts  --      0.5055                 0.7417                 1.0443
 IR Inten    --      4.6832                15.1210                22.7115

                     31                     32                     33
                      A                      A                      A
 Frequencies --    655.5775               695.1329               738.3923
 Red. masses --      4.3741                 1.1136                 4.3489
 Frc consts  --      1.1076                 0.3170                 1.3970
 IR Inten    --     40.6470               184.2091                13.8904

                     34                     35                     36
                      A                      A                      A
 Frequencies --    746.9412               772.4945               809.6789
 Red. masses --      4.4904                 4.6302                 3.0080
 Frc consts  --      1.4761                 1.6280                 1.1619
 IR Inten    --      4.7424                11.9654                10.6937

                     37                     38                     39
                      A                      A                      A
 Frequencies --    837.1142               851.9453               884.0197
 Red. masses --      1.4378                 1.4572                 2.9154
 Frc consts  --      0.5936                 0.6231                 1.3424
 IR Inten    --     15.6789                26.1832                 6.9197

                     40                     41                     42
                      A                      A                      A
 Frequencies --    913.6508               926.7574               950.8356
 Red. masses --      1.5064                 2.4831                 1.5867
 Frc consts  --      0.7409                 1.2565                 0.8452
 IR Inten    --     12.4663                41.4689                 1.3279

                     43                     44                     45
                      A                      A                      A
 Frequencies --    951.4966               962.3661               970.4449
 Red. masses --      1.6713                 2.0468                 1.3510
 Frc consts  --      0.8915                 1.1169                 0.7497
 IR Inten    --      0.4705                 4.5102                 2.8386

                     46                     47                     48
                      A                      A                      A
 Frequencies --    988.4853              1016.6328              1019.3786
 Red. masses --      1.2208                 1.7931                 3.4342
 Frc consts  --      0.7028                 1.0919                 2.1025
 IR Inten    --      0.6913                12.4679                22.8651

                     49                     50                     51
                      A                      A                      A
 Frequencies --   1036.1164              1046.7591              1075.1064
 Red. masses --      4.1019                 2.0687                 1.8305
 Frc consts  --      2.5945                 1.3355                 1.2466
 IR Inten    --    110.6381                25.0765                79.4758

                     52                     53                     54
                      A                      A                      A
 Frequencies --   1090.0956              1121.6610              1134.9320
 Red. masses --      1.6871                 2.1216                 1.8029
 Frc consts  --      1.1812                 1.5727                 1.3682
 IR Inten    --     36.8860                21.3206                49.9169

                     55                     56                     57
                      A                      A                      A
 Frequencies --   1168.9946              1200.7972              1226.5889
 Red. masses --      1.4708                 1.2403                 1.5549
 Frc consts  --      1.1842                 1.0537                 1.3783
 IR Inten    --     32.7288                17.7761                31.4542

                     58                     59                     60
                      A                      A                      A
 Frequencies --   1233.4251              1244.8408              1264.1370
 Red. masses --      2.1179                 1.1952                 1.3568
 Frc consts  --      1.8983                 1.0912                 1.2775
 IR Inten    --     89.2472                70.0709               129.1069

                     61                     62                     63
                      A                      A                      A
 Frequencies --   1272.8135              1283.7340              1298.5551
 Red. masses --      2.1547                 2.0939                 1.9661
 Frc consts  --      2.0567                 2.0331                 1.9533
 IR Inten    --     58.7731               158.8733                29.6169

                     64                     65                     66
                      A                      A                      A
 Frequencies --   1309.0216              1322.0993              1339.2127
 Red. masses --      2.1989                 1.9778                 1.3473
 Frc consts  --      2.2199                 2.0369                 1.4237
 IR Inten    --     97.7075                10.5875                84.3892

                     67                     68                     69
                      A                      A                      A
 Frequencies --   1357.8753              1390.4361              1423.7178
 Red. masses --      1.6342                 1.6085                 1.7399
 Frc consts  --      1.7753                 1.8322                 2.0779
 IR Inten    --     15.6088                44.8289                96.9388

                     70                     71                     72
                      A                      A                      A
 Frequencies --   1431.1871              1437.9533              1438.5314
 Red. masses --      1.4075                 1.2328                 1.2941
 Frc consts  --      1.6986                 1.5019                 1.5778
 IR Inten    --     45.7643                17.5011                83.7594

                     73                     74                     75
                      A                      A                      A
 Frequencies --   1442.7811              1444.9219              1464.2114
 Red. masses --      1.3736                 1.3547                 1.2245
 Frc consts  --      1.6846                 1.6665                 1.5468
 IR Inten    --     20.9699                15.9404                14.4335

                     76                     77                     78
                      A                      A                      A
 Frequencies --   1495.2621              1504.9861              1506.1239
 Red. masses --      1.1941                 1.3462                 1.4185
 Frc consts  --      1.5730                 1.7965                 1.8958
 IR Inten    --     75.1014                12.3989                32.3248

                     79                     80                     81
                      A                      A                      A
 Frequencies --   1507.3107              1509.5197              1516.9589
 Red. masses --      1.0939                 1.0571                 1.0599
 Frc consts  --      1.4644                 1.4192                 1.4370
 IR Inten    --      6.0600                 2.1372                17.3018

                     82                     83                     84
                      A                      A                      A
 Frequencies --   1530.4253              1533.3855              1540.7025
 Red. masses --      1.1513                 1.0656                 1.0624
 Frc consts  --      1.5887                 1.4762                 1.4859
 IR Inten    --      9.1374                 1.0990                14.9035

                     85                     86                     87
                      A                      A                      A
 Frequencies --   1542.5200              1549.3796              1634.7644
 Red. masses --      2.7663                 1.1144                 1.0718
 Frc consts  --      3.8780                 1.5762                 1.6876
 IR Inten    --    188.8630                13.8642               121.6425

                     88                     89                     90
                      A                      A                      A
 Frequencies --   1645.9305              1678.5726              3038.3702
 Red. masses --      5.2190                 5.8144                 1.0590
 Frc consts  --      8.3303                 9.6525                 5.7603
 IR Inten    --     76.4114                56.3889                64.0199

                     91                     92                     93
                      A                      A                      A
 Frequencies --   3040.1196              3078.7193              3080.0196
 Red. masses --      1.0823                 1.0373                 1.1059
 Frc consts  --      5.8936                 5.7931                 6.1814
 IR Inten    --     79.0912                26.5211                61.4686

                     94                     95                     96
                      A                      A                      A
 Frequencies --   3082.3085              3088.0557              3144.7360
 Red. masses --      1.0350                 1.0367                 1.0674
 Frc consts  --      5.7938                 5.8249                 6.2192
 IR Inten    --     26.6691                 3.4093                 0.6880

                     97                     98                     99
                      A                      A                      A
 Frequencies --   3150.8240              3155.6758              3156.7075
 Red. masses --      1.0980                 1.1030                 1.1015
 Frc consts  --      6.4223                 6.4714                 6.4667
 IR Inten    --     31.0967                19.7644                33.6345

                    100                    101                    102
                      A                      A                      A
 Frequencies --   3161.9409              3162.1577              3167.0238
 Red. masses --      1.1021                 1.1018                 1.1013
 Frc consts  --      6.4919                 6.4910                 6.5080
 IR Inten    --     39.2003                 9.3736                57.3828

                    103                    104                    105
                      A                      A                      A
 Frequencies --   3184.8574              3205.0378              3214.0002
 Red. masses --      1.0898                 1.0882                 1.1085
 Frc consts  --      6.5129                 6.5860                 6.7463
 IR Inten    --     25.5606                12.6034                 9.6881

                    106                    107                    108
                      A                      A                      A
 Frequencies --   3221.5951              3398.4375              3421.2566
 Red. masses --      1.0935                 1.0540                 1.0664
 Frc consts  --      6.6865                 7.1725                 7.3543
 IR Inten    --     19.0778               118.4786               740.4516

                    109                    110                    111
                      A                      A                      A
 Frequencies --   3445.7247              3712.5035              3713.8929
 Red. masses --      1.0957                 1.0665                 1.0666
 Frc consts  --      7.6647                 8.6605                 8.6676
 IR Inten    --    172.3821               116.6530               122.8997

 - Thermochemistry -
 -------------------
 Temperature   298.150 Kelvin.  Pressure   1.00000 Atm.
 Atom     1 has atomic number  6 and mass  12.00000

 Molecular mass:   240.15997 amu.
 Principal axes and moments of inertia in atomic units:
                           1         2         3
     Eigenvalues --  1723.44428********************
           X            0.99999   0.00068  -0.00420
           Y           -0.00071   0.99997  -0.00800
           Z            0.00419   0.00801   0.99996
 This molecule is an asymmetric top.
 Rotational symmetry number  1.
 Warning -- assumption of classical behavior for rotation
           may cause significant error
 Rotational temperatures (Kelvin)      0.05026     0.00820     0.00782
 Rotational constants (GHZ):           1.04717     0.17084     0.16304
 Zero-point vibrational energy     909281.5 (Joules/Mol)
                                  217.32349 (Kcal/Mol)
 Warning -- explicit consideration of  30 degrees of freedom as
           vibrations may cause significant error
 Vibrational temperatures:     49.06    64.40   102.44   109.65   142.43
          (Kelvin)            190.86   199.33   247.53   291.25   301.22
                              337.47   378.56   391.91   416.36   429.76
                              438.82   484.64   494.67   507.84   520.91
                              571.87   608.07   617.75   632.85   669.89
                              676.55   706.78   771.12   861.70   889.15
                              943.23  1000.14  1062.38  1074.68  1111.45
                             1164.95  1204.42  1225.76  1271.91  1314.54
                             1333.40  1368.04  1368.99  1384.63  1396.25
                             1422.21  1462.71  1466.66  1490.74  1506.05
                             1546.84  1568.40  1613.82  1632.91  1681.92
                             1727.68  1764.79  1774.62  1791.05  1818.81
                             1831.29  1847.01  1868.33  1883.39  1902.21
                             1926.83  1953.68  2000.53  2048.41  2059.16
                             2068.89  2069.73  2075.84  2078.92  2106.67
                             2151.35  2165.34  2166.98  2168.68  2171.86
                             2182.57  2201.94  2206.20  2216.73  2219.34
                             2229.21  2352.06  2368.13  2415.09  4371.54
                             4374.05  4429.59  4431.46  4434.75  4443.02
                             4524.57  4533.33  4540.31  4541.80  4549.33
                             4549.64  4556.64  4582.30  4611.33  4624.23
                             4635.16  4889.59  4922.43  4957.63  5341.46
                             5343.46

 Zero-point correction=                           0.346327 (Hartree/Particle)
 Thermal correction to Energy=                    0.364385
 Thermal correction to Enthalpy=                  0.365329
 Thermal correction to Gibbs Free Energy=         0.300777
 Sum of electronic and zero-point Energies=           -788.586029
 Sum of electronic and thermal Energies=              -788.567971
 Sum of electronic and thermal Enthalpies=            -788.567027
 Sum of electronic and thermal Free Energies=         -788.631578

                     E (Thermal)             CV                S
                      KCal/Mol        Cal/Mol-Kelvin    Cal/Mol-Kelvin
 Total                  228.655             70.166            135.860
 Electronic               0.000              0.000              0.000
 Translational            0.889              2.981             42.330
 Rotational               0.889              2.981             33.666
 Vibrational            226.877             64.204             59.865
 Vibration     1          0.594              1.983              5.575
 Vibration     2          0.595              1.979              5.036
 Vibration     3          0.598              1.968              4.120
 Vibration     4          0.599              1.965              3.986
 Vibration     5          0.604              1.950              3.474
 Vibration     6          0.613              1.921              2.907
 Vibration     7          0.614              1.915              2.824
 Vibration     8          0.626              1.877              2.413
 Vibration     9          0.639              1.836              2.111
 Vibration    10          0.642              1.826              2.049
 Vibration    11          0.654              1.788              1.844
 Vibration    12          0.670              1.740              1.641
 Vibration    13          0.675              1.724              1.581
 Vibration    14          0.686              1.693              1.478
 Vibration    15          0.692              1.676              1.424
 Vibration    16          0.696              1.664              1.389
 Vibration    17          0.718              1.602              1.227
 Vibration    18          0.723              1.588              1.194
 Vibration    19          0.729              1.569              1.153
 Vibration    20          0.736              1.550              1.113
 Vibration    21          0.764              1.476              0.972
 Vibration    22          0.785              1.421              0.883
 Vibration    23          0.791              1.406              0.861
 Vibration    24          0.800              1.383              0.827
 Vibration    25          0.823              1.326              0.750
 Vibration    26          0.827              1.316              0.737
 Vibration    27          0.847              1.269              0.680
 Vibration    28          0.891              1.170              0.574
 Vibration    29          0.957              1.034              0.452
 Vibration    30          0.978              0.994              0.420

 Optimization completed.
    -- Stationary point found.
 Normal termination of Gaussian 16 at Sun Jul 18 15:44:29 2021.

 ----------------------------------------------------------------------
 #p b3lyp/6-31G(d) scrf=(iefpcm,read,solvent=water) geom=allcheck guess
 =read
 ----------------------------------------------------------------------

 Structure from the checkpoint file:  "SET_328_BBB301_conf1.geo_165_120_315.chk"
 ---------------------------------------------
 SET_328_BBB301_conf1.geo_165_120_315 geometry
 ---------------------------------------------
 Charge =  1 Multiplicity = 1

 SCF Done:  E(RB3LYP) =  -788.932355624     A.U. after    1 cycles
 Normal termination of Gaussian 16 at Sun Jul 18 15:44:41 2021.

 -----------------------------
 #p B3LYP/6-31G* geom=allcheck
 -----------------------------

 Structure from the checkpoint file:  "SET_328_BBB301_conf1.geo_165_120_315.chk"
 ---------------------------------------------
 SET_328_BBB301_conf1.geo_165_120_315 geometry
 ---------------------------------------------
 Charge =  1 Multiplicity = 1

 SCF Done:  E(RB3LYP) =  -788.826689743     A.U. after   13 cycles
 Normal termination of Gaussian 16 at Sun Jul 18 15:45:23 2021.
 Gaussian 16:  ES64L-G16RevB.01 20-Dec-2017

 --------------------------------------------------------
 #p mp2/aug-cc-pVDZ scf=tight maxdisk=180GB geom=allcheck
 --------------------------------------------------------

 Structure from the checkpoint file:  "SET_328_BBB301_conf1.geo_165_120_315.chk"
 ---------------------------------------------
 SET_328_BBB301_conf1.geo_165_120_315 geometry
 ---------------------------------------------
 Charge =  1 Multiplicity = 1

                         Standard orientation:
 ---------------------------------------------------------------------
 Center     Atomic      Atomic             Coordinates (Angstroms)
 Number     Number       Type             X           Y           Z
 ---------------------------------------------------------------------
      1          6           0        5.397321   -0.366825    0.513193
      2          1           0        6.272442   -0.624076   -0.087644
      3          1           0        5.339700   -1.071727    1.346902
      4          1           0        5.545748    0.637959    0.915459
      5          6           0        4.143605   -0.433158   -0.363735
      6          6           0        4.213655    0.594427   -1.496960
      7          1           0        5.084476    0.372964   -2.118083
      8          1           0        4.324393    1.611298   -1.107477
      9          1           0        3.330692    0.558126   -2.137899
     10          6           0        3.916214   -1.850456   -0.892081
     11          1           0        4.767806   -2.136705   -1.511664
     12          1           0        3.017968   -1.917998   -1.509507
     13          1           0        3.835503   -2.572728   -0.074608
     14          7           0        2.973484   -0.068857    0.558691
     15          1           0        2.976475   -0.724693    1.354101
     16          6           0        1.593101   -0.043841   -0.023520
     17          1           0        1.348043   -1.043689   -0.374028
     18          1           0        1.598964    0.647620   -0.865258
     19          6           0        0.603000    0.424832    1.040161
     20          8           0        1.099690    1.684982    1.479432
     21          1           0        0.556250    1.975213    2.234252
     22          1           0        0.612341   -0.298953    1.866449
     23          6           0       -0.799278    0.499417    0.476339
     24          6           0       -1.675776   -0.579504    0.613294
     25          1           0       -1.350522   -1.467476    1.149943
     26          6           0       -2.963304   -0.556692    0.075263
     27          6           0       -3.851969   -1.773655    0.152011
     28          8           0       -5.196814   -1.358764    0.459492
     29          1           0       -5.793311   -2.091385    0.223386
     30          1           0       -3.477589   -2.463201    0.917431
     31          1           0       -3.845875   -2.305395   -0.807856
     32          6           0       -3.395213    0.607989   -0.593100
     33          8           0       -4.644942    0.710934   -1.122280
     34          1           0       -5.185574   -0.015380   -0.727518
     35          6           0       -2.528617    1.700020   -0.725600
     36          1           0       -2.885562    2.589742   -1.235389
     37          6           0       -1.239913    1.639680   -0.203486
     38          1           0       -0.575609    2.492804   -0.294549
     39          1           0        3.148415    0.859053    0.968894
 ---------------------------------------------------------------------

 SCF Done:  E(RHF) =  -784.037637937     A.U. after   15 cycles
 E2 =    -0.2635593240D+01 EUMP2 =    -0.78667323117626D+03

 The electronic state is 1-A.
 Alpha  occ. eigenvalues --  -20.71772 -20.68304 -20.66852 -15.84291 -11.45737
 Alpha  occ. eigenvalues --  -11.44520 -11.44097 -11.40510 -11.39727 -11.37782
 Alpha  occ. eigenvalues --  -11.37775 -11.37557 -11.35594 -11.35027 -11.34905
 Alpha  occ. eigenvalues --  -11.34516 -11.33181  -1.51983  -1.48955  -1.46759
 Alpha  occ. eigenvalues --   -1.46380  -1.26441  -1.24611  -1.18027  -1.14458
 Alpha  occ. eigenvalues --   -1.11376  -1.10053  -1.09172  -1.02699  -1.00563
 Alpha  occ. eigenvalues --   -0.95146  -0.93663  -0.92477  -0.90362  -0.84909
 Alpha  occ. eigenvalues --   -0.82755  -0.82228  -0.81675  -0.80428  -0.77698
 Alpha  occ. eigenvalues --   -0.77015  -0.75685  -0.74838  -0.72663  -0.71909
 Alpha  occ. eigenvalues --   -0.70929  -0.70524  -0.69784  -0.69029  -0.68877
 Alpha  occ. eigenvalues --   -0.68077  -0.67525  -0.66989  -0.66345  -0.65220
 Alpha  occ. eigenvalues --   -0.64103  -0.63571  -0.63270  -0.62634  -0.59174
 Alpha  occ. eigenvalues --   -0.58618  -0.57437  -0.55322  -0.44023  -0.40868
 Alpha virt. eigenvalues --   -0.07692  -0.05700  -0.05557  -0.04797  -0.03669
 Alpha virt. eigenvalues --   -0.03496  -0.03402  -0.03119  -0.02840  -0.02387
 Alpha virt. eigenvalues --   -0.01678  -0.01137  -0.00887  -0.00542  -0.00167

 Mulliken charges:
               1
     1  C    1.315139
     2  H    0.037532
     3  H   -0.010986
     4  H   -0.004767
     5  C   -3.435089
     6  C    1.306564
     7  H   -0.010594
     8  H    0.000798
     9  H   -0.020486
    10  C    1.308136
    11  H    0.008801
    12  H   -0.032671
    13  H   -0.020183
    14  N   -0.737735
    15  H    0.228717
    16  C    0.731055
    17  H   -0.254861
    18  H   -0.219149
    19  C    1.572952
    20  O   -0.907955
    21  H    0.204881
    22  H   -0.297942
    23  C    0.698792
    24  C    0.433412
    25  H   -0.754611
    26  C   -0.199720
    27  C    1.179949
    28  O   -0.795629
    29  H    0.215521
    30  H   -0.217335
    31  H    0.025416
    32  C    0.490108
    33  O   -0.971618
    34  H    0.266042
    35  C    0.314906
    36  H   -0.517965
    37  C    0.539028
    38  H   -0.751392
    39  H    0.282941
 Sum of Mulliken charges =   1.00000

 Dipole moment (field-independent basis, Debye):
    X=             10.7962    Y=             -4.1910    Z=              1.7712  Tot=             11.7158
 Quadrupole moment (field-independent basis, Debye-Ang):
   XX=            -34.6201   YY=            -87.7118   ZZ=            -95.9993
   XY=             11.0490   XZ=              0.7773   YZ=              1.0627

 Normal termination of Gaussian 16 at Sun Jul 18 16:23:04 2021.
