 Gaussian 16, Revision B.01,

 -----------------------------------------------------------
 #p b3lyp/6-31G(d) opt freq scrf=(iefpcm,read,solvent=water)
 -----------------------------------------------------------

 --------------------------------------------
 SET_328_BBB20_conf1.geo_120_180_180 geometry
 --------------------------------------------
 Symbolic Z-matrix:
 Charge =  1 Multiplicity = 1

 SCF Done:  E(RB3LYP) =  -769.772702062     A.U. after   13 cycles
 SCF Done:  E(RB3LYP) =  -769.810859854     A.U. after   11 cycles
 SCF Done:  E(RB3LYP) =  -769.828125368     A.U. after   11 cycles
 SCF Done:  E(RB3LYP) =  -769.830741882     A.U. after   10 cycles
 SCF Done:  E(RB3LYP) =  -769.831339412     A.U. after   10 cycles
 SCF Done:  E(RB3LYP) =  -769.831485753     A.U. after   11 cycles
 SCF Done:  E(RB3LYP) =  -769.832159770     A.U. after   10 cycles
 SCF Done:  E(RB3LYP) =  -769.832456021     A.U. after    9 cycles
 SCF Done:  E(RB3LYP) =  -769.832513916     A.U. after   10 cycles
 SCF Done:  E(RB3LYP) =  -769.832666750     A.U. after    9 cycles
 SCF Done:  E(RB3LYP) =  -769.832910271     A.U. after    8 cycles
 SCF Done:  E(RB3LYP) =  -769.832905152     A.U. after    8 cycles
 SCF Done:  E(RB3LYP) =  -769.832910236     A.U. after    8 cycles
 SCF Done:  E(RB3LYP) =  -769.832904826     A.U. after    8 cycles
 SCF Done:  E(RB3LYP) =  -769.832909887     A.U. after    8 cycles
 SCF Done:  E(RB3LYP) =  -769.832904796     A.U. after    8 cycles
 Optimization completed on the basis of negligible forces.
    -- Stationary point found.
 Normal termination of Gaussian 16 at Sun Jul 18 14:16:29 2021.

 --------------------------------------------------------------------
 #P Geom=AllCheck Guess=TCheck SCRF=Check GenChk RB3LYP/6-31G(d) Freq
 --------------------------------------------------------------------

 Structure from the checkpoint file:  "SET_328_BBB20_conf1.geo_120_180_180.chk"
 --------------------------------------------
 SET_328_BBB20_conf1.geo_120_180_180 geometry
 --------------------------------------------
 Charge =  1 Multiplicity = 1

 SCF Done:  E(RB3LYP) =  -769.832904796     A.U. after    1 cycles

  Exact polarizability: 278.738 -35.166 269.232  44.308  33.814 213.133
 Approx polarizability: 298.842 -30.992 289.495  53.554  40.044 244.974

                      1                      2                      3
                      A                      A                      A
 Frequencies --     29.0345                37.7977                53.1850
 Red. masses --      3.9195                 3.9989                 4.1441
 Frc consts  --      0.0019                 0.0034                 0.0069
 IR Inten    --     21.8973                 2.0812                16.2260

                      4                      5                      6
                      A                      A                      A
 Frequencies --     62.1614                89.3050               117.3831
 Red. masses --      1.6629                 3.4040                 2.9752
 Frc consts  --      0.0038                 0.0160                 0.0242
 IR Inten    --      2.5029                 0.1643                 1.6351

                      7                      8                      9
                      A                      A                      A
 Frequencies --    138.0211               155.4178               191.0322
 Red. masses --      3.4167                 3.1043                 3.1193
 Frc consts  --      0.0383                 0.0442                 0.0671
 IR Inten    --      1.5495                 2.7958                 6.5577

                     10                     11                     12
                      A                      A                      A
 Frequencies --    241.0058               255.7391               273.2823
 Red. masses --      3.9442                 1.0689                 3.4003
 Frc consts  --      0.1350                 0.0412                 0.1496
 IR Inten    --     11.3795                 0.1345                 2.7036

                     13                     14                     15
                      A                      A                      A
 Frequencies --    288.4129               315.8269               333.9028
 Red. masses --      2.7039                 3.0871                 4.7551
 Frc consts  --      0.1325                 0.1814                 0.3124
 IR Inten    --      3.4656                 4.5510                 1.5357

                     16                     17                     18
                      A                      A                      A
 Frequencies --    369.3785               398.5973               430.6934
 Red. masses --      3.4545                 3.9013                 3.1599
 Frc consts  --      0.2777                 0.3652                 0.3453
 IR Inten    --      2.3902                16.3391                 4.2666

                     19                     20                     21
                      A                      A                      A
 Frequencies --    454.3632               472.9237               489.3441
 Red. masses --      2.9583                 3.8656                 3.1501
 Frc consts  --      0.3598                 0.5094                 0.4444
 IR Inten    --      7.8139                 7.1018                 1.7421

                     22                     23                     24
                      A                      A                      A
 Frequencies --    525.9873               552.3680               574.5679
 Red. masses --      3.9184                 3.9930                 4.6563
 Frc consts  --      0.6387                 0.7178                 0.9057
 IR Inten    --      0.0338                 0.7298                 0.9459

                     25                     26                     27
                      A                      A                      A
 Frequencies --    602.6600               614.7008               633.2994
 Red. masses --      3.2368                 4.0497                 5.6382
 Frc consts  --      0.6926                 0.9016                 1.3323
 IR Inten    --      3.5128                16.1592                 8.8649

                     28                     29                     30
                      A                      A                      A
 Frequencies --    698.7741               725.5008               756.9973
 Red. masses --      5.0499                 3.1253                 2.4343
 Frc consts  --      1.4528                 0.9692                 0.8219
 IR Inten    --      1.4384                 2.9139                22.2002

                     31                     32                     33
                      A                      A                      A
 Frequencies --    765.1943               769.4534               782.8184
 Red. masses --      1.2034                 1.3503                 1.8468
 Frc consts  --      0.4151                 0.4710                 0.6668
 IR Inten    --     37.6106                 5.2850                66.1281

                     34                     35                     36
                      A                      A                      A
 Frequencies --    785.9853               810.8312               844.2773
 Red. masses --      2.2296                 4.2210                 1.3220
 Frc consts  --      0.8115                 1.6350                 0.5552
 IR Inten    --     28.4316                 4.2825                 2.5852

                     37                     38                     39
                      A                      A                      A
 Frequencies --    868.3984               883.0661               891.8970
 Red. masses --      1.3838                 1.4774                 2.2324
 Frc consts  --      0.6148                 0.6788                 1.0463
 IR Inten    --      2.3267                 1.0583                10.5754

                     40                     41                     42
                      A                      A                      A
 Frequencies --    930.0125               940.4468               948.4401
 Red. masses --      2.3664                 2.1128                 1.4824
 Frc consts  --      1.2059                 1.1010                 0.7857
 IR Inten    --     29.4058                27.6330                 8.5087

                     43                     44                     45
                      A                      A                      A
 Frequencies --    950.7223               982.5454               983.1281
 Red. masses --      1.3666                 1.2649                 1.2698
 Frc consts  --      0.7278                 0.7194                 0.7231
 IR Inten    --      7.1246                10.8171                 8.9221

                     46                     47                     48
                      A                      A                      A
 Frequencies --    985.8326               988.7992              1008.7439
 Red. masses --      1.2566                 2.0012                 2.8960
 Frc consts  --      0.7196                 1.1528                 1.7362
 IR Inten    --      0.2567                 1.6734                10.3898

                     49                     50                     51
                      A                      A                      A
 Frequencies --   1052.4301              1057.4306              1067.1997
 Red. masses --      2.6491                 2.9536                 2.3061
 Frc consts  --      1.7288                 1.9458                 1.5475
 IR Inten    --      3.8750                 7.1237                 4.2019

                     52                     53                     54
                      A                      A                      A
 Frequencies --   1077.7707              1090.8827              1133.9913
 Red. masses --      3.0364                 2.2916                 2.0081
 Frc consts  --      2.0781                 1.6067                 1.5214
 IR Inten    --     15.1966                10.0827                56.1162

                     55                     56                     57
                      A                      A                      A
 Frequencies --   1149.3011              1157.6801              1175.0661
 Red. masses --      1.9245                 1.9784                 1.6167
 Frc consts  --      1.4977                 1.5622                 1.3152
 IR Inten    --      2.2158                65.6296                25.5782

                     58                     59                     60
                      A                      A                      A
 Frequencies --   1185.5072              1189.8488              1199.0218
 Red. masses --      1.0928                 1.2676                 1.1634
 Frc consts  --      0.9049                 1.0573                 0.9855
 IR Inten    --      2.5112                 4.6162                 3.1430

                     61                     62                     63
                      A                      A                      A
 Frequencies --   1211.5840              1233.6950              1245.1060
 Red. masses --      1.7061                 2.3725                 3.0863
 Frc consts  --      1.4756                 2.1275                 2.8190
 IR Inten    --      4.2147                 9.7362               146.1321

                     64                     65                     66
                      A                      A                      A
 Frequencies --   1259.1651              1278.1765              1298.9136
 Red. masses --      1.4290                 1.8715                 1.4136
 Frc consts  --      1.3349                 1.8015                 1.4052
 IR Inten    --     31.9218               184.6434                 4.8438

                     67                     68                     69
                      A                      A                      A
 Frequencies --   1309.4986              1325.3643              1328.8587
 Red. masses --      1.4078                 1.6583                 1.5026
 Frc consts  --      1.4223                 1.7162                 1.5633
 IR Inten    --     20.4960                 4.2265                83.1218

                     70                     71                     72
                      A                      A                      A
 Frequencies --   1338.8622              1358.3092              1360.9711
 Red. masses --      3.6113                 1.4704                 2.4000
 Frc consts  --      3.8141                 1.5983                 2.6191
 IR Inten    --     15.2486                 1.6687                 3.5868

                     73                     74                     75
                      A                      A                      A
 Frequencies --   1370.7587              1381.0051              1399.4648
 Red. masses --      1.4969                 1.5396                 1.4781
 Frc consts  --      1.6572                 1.7300                 1.7057
 IR Inten    --     70.4579                 9.5563                12.5032

                     76                     77                     78
                      A                      A                      A
 Frequencies --   1429.4847              1443.2685              1485.6372
 Red. masses --      1.3982                 1.3894                 1.4339
 Frc consts  --      1.6833                 1.7051                 1.8647
 IR Inten    --     28.7167                37.2174                14.9777

                     79                     80                     81
                      A                      A                      A
 Frequencies --   1492.0099              1497.6136              1501.2725
 Red. masses --      1.5948                 1.2626                 1.9476
 Frc consts  --      2.0917                 1.6685                 2.5862
 IR Inten    --     49.1430                 2.9961                74.0177

                     82                     83                     84
                      A                      A                      A
 Frequencies --   1508.0525              1520.0356              1526.3658
 Red. masses --      1.0963                 1.1525                 1.2779
 Frc consts  --      1.4690                 1.5689                 1.7542
 IR Inten    --      2.4827               161.2944                46.1975

                     85                     86                     87
                      A                      A                      A
 Frequencies --   1529.2873              1542.3507              1554.3329
 Red. masses --      1.6737                 2.3497                 1.1889
 Frc consts  --      2.3063                 3.2933                 1.6924
 IR Inten    --    222.5095                20.2911                11.6384

                     88                     89                     90
                      A                      A                      A
 Frequencies --   1626.3431              1636.1403              1638.4951
 Red. masses --      5.7763                 1.0410                 5.7725
 Frc consts  --      9.0017                 1.6418                 9.1306
 IR Inten    --     25.0198                69.3335                25.4328

                     91                     92                     93
                      A                      A                      A
 Frequencies --   1638.6301              1651.4439              1657.5679
 Red. masses --      1.0578                 5.7882                 5.7256
 Frc consts  --      1.6735                 9.3008                 9.2686
 IR Inten    --     74.6310                39.7628                16.1293

                     94                     95                     96
                      A                      A                      A
 Frequencies --   3021.5409              3036.8650              3061.2386
 Red. masses --      1.0724                 1.0640                 1.0681
 Frc consts  --      5.7684                 5.7815                 5.8974
 IR Inten    --     92.1609                51.8120                21.3262

                     97                     98                     99
                      A                      A                      A
 Frequencies --   3070.4085              3075.7323              3108.2497
 Red. masses --      1.0604                 1.0901                 1.1040
 Frc consts  --      5.8900                 6.0762                 6.2845
 IR Inten    --     26.9685                94.4114                49.4184

                    100                    101                    102
                      A                      A                      A
 Frequencies --   3114.4430              3128.2309              3143.2352
 Red. masses --      1.1024                 1.0597                 1.0919
 Frc consts  --      6.3002                 6.1096                 6.3563
 IR Inten    --     10.7794                21.7634                41.6320

                    103                    104                    105
                      A                      A                      A
 Frequencies --   3180.1411              3184.7257              3197.3785
 Red. masses --      1.0879                 1.1098                 1.0858
 Frc consts  --      6.4821                 6.6320                 6.5399
 IR Inten    --     25.6527                22.4665                 5.2794

                    106                    107                    108
                      A                      A                      A
 Frequencies --   3202.3731              3205.4186              3217.2820
 Red. masses --      1.0882                 1.0894                 1.0953
 Frc consts  --      6.5748                 6.5950                 6.6797
 IR Inten    --     17.1383                26.8464                55.6446

                    109                    110                    111
                      A                      A                      A
 Frequencies --   3218.6127              3228.2850              3240.7632
 Red. masses --      1.0936                 1.0954                 1.0911
 Frc consts  --      6.6750                 6.7259                 6.7513
 IR Inten    --     55.4996                25.4508                27.1714

                    112                    113                    114
                      A                      A                      A
 Frequencies --   3380.9328              3449.4639              3472.4726
 Red. masses --      1.0376                 1.0889                 1.0943
 Frc consts  --      6.9878                 7.6338                 7.7742
 IR Inten    --    121.5355               223.5160               230.1480

 - Thermochemistry -
 -------------------
 Temperature   298.150 Kelvin.  Pressure   1.00000 Atm.
 Atom     1 has atomic number  7 and mass  14.00307

 Molecular mass:   253.17047 amu.
 Principal axes and moments of inertia in atomic units:
                           1         2         3
     Eigenvalues --  4270.106935820.598758382.06533
           X            0.99784   0.06564   0.00192
           Y           -0.06566   0.99782   0.00703
           Z           -0.00145  -0.00714   0.99997
 This molecule is an asymmetric top.
 Rotational symmetry number  1.
 Warning -- assumption of classical behavior for rotation
           may cause significant error
 Rotational temperatures (Kelvin)      0.02028     0.01488     0.01033
 Rotational constants (GHZ):           0.42265     0.31006     0.21531
 Zero-point vibrational energy     927430.3 (Joules/Mol)
                                  221.66117 (Kcal/Mol)
 Warning -- explicit consideration of  26 degrees of freedom as
           vibrations may cause significant error
 Vibrational temperatures:     41.77    54.38    76.52    89.44   128.49
          (Kelvin)            168.89   198.58   223.61   274.85   346.75
                              367.95   393.19   414.96   454.40   480.41
                              531.45   573.49   619.67   653.73   680.43
                              704.06   756.78   794.73   826.68   867.09
                              884.42   911.18  1005.38  1043.83  1089.15
                             1100.94  1107.07  1126.30  1130.86  1166.61
                             1214.73  1249.43  1270.54  1283.24  1338.08
                             1353.09  1364.59  1367.88  1413.66  1414.50
                             1418.39  1422.66  1451.36  1514.21  1521.41
                             1535.46  1550.67  1569.54  1631.56  1653.59
                             1665.64  1690.66  1705.68  1711.93  1725.12
                             1743.20  1775.01  1791.43  1811.66  1839.01
                             1868.85  1884.08  1906.90  1911.93  1926.32
                             1954.30  1958.13  1972.22  1986.96  2013.52
                             2056.71  2076.54  2137.50  2146.67  2154.73
                             2160.00  2169.75  2186.99  2196.10  2200.30
                             2219.10  2236.34  2339.94  2354.04  2357.43
                             2357.62  2376.06  2384.87  4347.32  4369.37
                             4404.44  4417.63  4425.29  4472.08  4480.99
                             4500.83  4522.41  4575.51  4582.11  4600.31
                             4607.50  4611.88  4628.95  4630.87  4644.78
                             4662.74  4864.41  4963.01  4996.11

 Zero-point correction=                           0.353240 (Hartree/Particle)
 Thermal correction to Energy=                    0.369973
 Thermal correction to Enthalpy=                  0.370917
 Thermal correction to Gibbs Free Energy=         0.307766
 Sum of electronic and zero-point Energies=           -769.479665
 Sum of electronic and thermal Energies=              -769.462932
 Sum of electronic and thermal Enthalpies=            -769.461988
 Sum of electronic and thermal Free Energies=         -769.525139

                     E (Thermal)             CV                S
                      KCal/Mol        Cal/Mol-Kelvin    Cal/Mol-Kelvin
 Total                  232.161             66.447            132.911
 Electronic               0.000              0.000              0.000
 Translational            0.889              2.981             42.487
 Rotational               0.889              2.981             33.699
 Vibrational            230.384             60.485             56.726
 Vibration     1          0.593              1.984              5.894
 Vibration     2          0.594              1.982              5.371
 Vibration     3          0.596              1.976              4.695
 Vibration     4          0.597              1.972              4.387
 Vibration     5          0.602              1.957              3.675
 Vibration     6          0.608              1.935              3.143
 Vibration     7          0.614              1.915              2.831
 Vibration     8          0.620              1.897              2.605
 Vibration     9          0.634              1.852              2.218
 Vibration    10          0.658              1.778              1.795
 Vibration    11          0.666              1.753              1.691
 Vibration    12          0.676              1.723              1.575
 Vibration    13          0.685              1.695              1.483
 Vibration    14          0.703              1.643              1.332
 Vibration    15          0.715              1.608              1.241
 Vibration    16          0.742              1.535              1.082
 Vibration    17          0.765              1.473              0.968
 Vibration    18          0.792              1.403              0.856
 Vibration    19          0.813              1.351              0.783
 Vibration    20          0.830              1.310              0.729
 Vibration    21          0.845              1.274              0.685
 Vibration    22          0.881              1.192              0.596
 Vibration    23          0.908              1.135              0.539
 Vibration    24          0.931              1.086              0.496
 Vibration    25          0.961              1.026              0.445
 Vibration    26          0.974              1.001              0.425

 Optimization completed.
    -- Stationary point found.
 Normal termination of Gaussian 16 at Sun Jul 18 14:35:03 2021.

 ----------------------------------------------------------------------
 #p b3lyp/6-31G(d) scrf=(iefpcm,read,solvent=water) geom=allcheck guess
 =read
 ----------------------------------------------------------------------

 Structure from the checkpoint file:  "SET_328_BBB20_conf1.geo_120_180_180.chk"
 --------------------------------------------
 SET_328_BBB20_conf1.geo_120_180_180 geometry
 --------------------------------------------
 Charge =  1 Multiplicity = 1

 SCF Done:  E(RB3LYP) =  -769.832904796     A.U. after    1 cycles
 Normal termination of Gaussian 16 at Sun Jul 18 14:35:17 2021.

 -----------------------------
 #p B3LYP/6-31G* geom=allcheck
 -----------------------------

 Structure from the checkpoint file:  "SET_328_BBB20_conf1.geo_120_180_180.chk"
 --------------------------------------------
 SET_328_BBB20_conf1.geo_120_180_180 geometry
 --------------------------------------------
 Charge =  1 Multiplicity = 1

 SCF Done:  E(RB3LYP) =  -769.715009121     A.U. after   14 cycles

 The electronic state is 1-A.
 Alpha  occ. eigenvalues --  -14.66592 -14.44919 -10.42973 -10.35055 -10.34756
 Alpha  occ. eigenvalues --  -10.31595 -10.30387 -10.27732 -10.27292 -10.26996
 Alpha  occ. eigenvalues --  -10.26942 -10.26856 -10.26685 -10.26476 -10.26467
 Alpha  occ. eigenvalues --  -10.26451 -10.26268 -10.26257 -10.26095  -1.20661
 Alpha  occ. eigenvalues --   -1.04823  -0.96198  -0.93441  -0.92419  -0.87825
 Alpha  occ. eigenvalues --   -0.85702  -0.83458  -0.83317  -0.80638  -0.79808
 Alpha  occ. eigenvalues --   -0.79019  -0.77343  -0.74571  -0.72517  -0.69461
 Alpha  occ. eigenvalues --   -0.68416  -0.67804  -0.66161  -0.64882  -0.63701
 Alpha  occ. eigenvalues --   -0.60339  -0.59917  -0.57234  -0.56714  -0.55432
 Alpha  occ. eigenvalues --   -0.55099  -0.54064  -0.53365  -0.52394  -0.51642
 Alpha  occ. eigenvalues --   -0.51310  -0.50157  -0.49497  -0.48724  -0.47381
 Alpha  occ. eigenvalues --   -0.46458  -0.45641  -0.44535  -0.43554  -0.42485
 Alpha  occ. eigenvalues --   -0.41912  -0.41454  -0.40820  -0.37681  -0.32640
 Alpha  occ. eigenvalues --   -0.32195  -0.31560  -0.28649
 Alpha virt. eigenvalues --   -0.16698  -0.10209  -0.10192  -0.08785  -0.07918
 Alpha virt. eigenvalues --   -0.07593  -0.07374  -0.06919  -0.03855  -0.02561
 Alpha virt. eigenvalues --   -0.00268   0.00561   0.02294   0.02564   0.02939

 Mulliken charges:
               1
     1  N   -0.722846
     2  H    0.431313
     3  H    0.433371
     4  C   -0.217128
     5  H    0.230050
     6  H    0.230741
     7  C   -0.296720
     8  H    0.180126
     9  H    0.182859
    10  C   -0.143484
    11  H    0.157691
    12  H    0.177111
    13  N   -0.584454
    14  C    0.207736
    15  C   -0.160032
    16  H    0.125737
    17  C   -0.144796
    18  H    0.145501
    19  C   -0.117409
    20  H    0.148527
    21  C   -0.209773
    22  H    0.141500
    23  C    0.163504
    24  C   -0.349306
    25  H    0.154831
    26  H    0.138076
    27  C   -0.346157
    28  H    0.174455
    29  H    0.159474
    30  C    0.158635
    31  C   -0.197351
    32  H    0.142294
    33  C   -0.121593
    34  H    0.146853
    35  C   -0.147803
    36  H    0.136446
    37  C   -0.182001
    38  H    0.102076
    39  C    0.240117
    40  H    0.431831
 Sum of Mulliken charges =   1.00000

 Dipole moment (field-independent basis, Debye):
    X=            -17.9067    Y=             -9.1069    Z=              3.9454  Tot=             20.4732
 Quadrupole moment (field-independent basis, Debye-Ang):
   XX=            -10.4599   YY=            -79.2049   ZZ=           -101.0589
   XY=             40.4935   XZ=            -13.7828   YZ=             -4.2799

 Normal termination of Gaussian 16 at Sun Jul 18 14:36:22 2021.
 Gaussian 16:  ES64L-G16RevB.01 20-Dec-2017

 --------------------------------------------------------
 #p mp2/aug-cc-pVDZ scf=tight maxdisk=180GB geom=allcheck
 --------------------------------------------------------

 Structure from the checkpoint file:  "SET_328_BBB20_conf1.geo_120_180_180.chk"
 --------------------------------------------
 SET_328_BBB20_conf1.geo_120_180_180 geometry
 --------------------------------------------
 Charge =  1 Multiplicity = 1

                         Standard orientation:
 ---------------------------------------------------------------------
 Center     Atomic      Atomic             Coordinates (Angstroms)
 Number     Number       Type             X           Y           Z
 ---------------------------------------------------------------------
      1          7           0       -4.588706   -2.142715    0.990186
      2          1           0       -4.331230   -2.250174    1.985364
      3          1           0       -5.295704   -2.861200    0.775325
      4          6           0       -3.390094   -2.267932    0.094762
      5          1           0       -3.754765   -2.153446   -0.926598
      6          1           0       -3.016212   -3.283698    0.219140
      7          6           0       -2.339821   -1.223816    0.450332
      8          1           0       -2.007796   -1.365496    1.484418
      9          1           0       -2.779114   -0.224382    0.377596
     10          6           0       -1.122983   -1.330220   -0.480186
     11          1           0       -1.440899   -1.255584   -1.529653
     12          1           0       -0.672367   -2.316630   -0.364701
     13          7           0       -0.081892   -0.357662   -0.130242
     14          6           0        1.264527   -0.819902   -0.256622
     15          6           0        1.647964   -1.653128   -1.316810
     16          1           0        0.920890   -1.922855   -2.074403
     17          6           0        2.956869   -2.131677   -1.402081
     18          1           0        3.240822   -2.774716   -2.229084
     19          6           0        3.895302   -1.771918   -0.433182
     20          1           0        4.915142   -2.137450   -0.494289
     21          6           0        3.510248   -0.944327    0.622929
     22          1           0        4.228777   -0.672221    1.390277
     23          6           0        2.199344   -0.471848    0.732808
     24          6           0        1.758168    0.409562    1.863611
     25          1           0        2.534061    0.439212    2.635050
     26          1           0        0.854722   -0.004426    2.323934
     27          6           0        1.482004    1.839586    1.394688
     28          1           0        2.408255    2.239865    0.962569
     29          1           0        1.271501    2.464047    2.270795
     30          6           0        0.350911    2.045648    0.399751
     31          6           0       -0.010059    3.381978    0.172660
     32          1           0        0.540439    4.149626    0.711318
     33          6           0       -1.040807    3.756558   -0.684331
     34          1           0       -1.290998    4.804010   -0.819612
     35          6           0       -1.746431    2.756451   -1.352471
     36          1           0       -2.556353    3.005664   -2.030158
     37          6           0       -1.402666    1.421695   -1.158527
     38          1           0       -1.950188    0.664327   -1.704559
     39          6           0       -0.359740    1.033238   -0.292189
     40          1           0       -5.041198   -1.221522    0.886818
 ---------------------------------------------------------------------

 SCF Done:  E(RHF) =  -764.746185155     A.U. after   16 cycles
