 Gaussian 16, Revision B.01,

 -----------------------------------------------------------
 #p b3lyp/6-31G(d) opt freq scrf=(iefpcm,read,solvent=water)
 -----------------------------------------------------------

 ---------------------------------------------
 SET_328_BBB256_conf1.geo_285_180_105 geometry
 ---------------------------------------------
 Symbolic Z-matrix:
 Charge =  1 Multiplicity = 1

 SCF Done:  E(RB3LYP) =  -422.017678048     A.U. after   12 cycles
 SCF Done:  E(RB3LYP) =  -422.046043543     A.U. after   11 cycles
 SCF Done:  E(RB3LYP) =  -422.054760746     A.U. after   11 cycles
 SCF Done:  E(RB3LYP) =  -422.054942267     A.U. after   10 cycles
 SCF Done:  E(RB3LYP) =  -422.055164691     A.U. after    9 cycles
 SCF Done:  E(RB3LYP) =  -422.055235210     A.U. after    9 cycles
 SCF Done:  E(RB3LYP) =  -422.055301319     A.U. after    9 cycles
 SCF Done:  E(RB3LYP) =  -422.055311621     A.U. after    9 cycles
 SCF Done:  E(RB3LYP) =  -422.055314969     A.U. after    8 cycles
 SCF Done:  E(RB3LYP) =  -422.055342835     A.U. after    8 cycles
 SCF Done:  E(RB3LYP) =  -422.055719491     A.U. after    8 cycles
 SCF Done:  E(RB3LYP) =  -422.055708324     A.U. after    9 cycles
 SCF Done:  E(RB3LYP) =  -422.055716929     A.U. after    9 cycles
 SCF Done:  E(RB3LYP) =  -422.055716434     A.U. after    7 cycles
 SCF Done:  E(RB3LYP) =  -422.055716352     A.U. after    7 cycles
 SCF Done:  E(RB3LYP) =  -422.055716898     A.U. after    7 cycles
 Optimization completed.
    -- Stationary point found.
 Normal termination of Gaussian 16 at Sun Jul 18 13:46:14 2021.

 --------------------------------------------------------------------
 #P Geom=AllCheck Guess=TCheck SCRF=Check GenChk RB3LYP/6-31G(d) Freq
 --------------------------------------------------------------------

 Structure from the checkpoint file:  "SET_328_BBB256_conf1.geo_285_180_105.chk"
 ---------------------------------------------
 SET_328_BBB256_conf1.geo_285_180_105 geometry
 ---------------------------------------------
 Charge =  1 Multiplicity = 1

 SCF Done:  E(RB3LYP) =  -422.055716898     A.U. after    1 cycles

  Exact polarizability: 154.152   2.962 130.523  14.327  -3.390  73.084
 Approx polarizability: 163.661   2.075 154.461  17.803  -5.134  82.349

                      1                      2                      3
                      A                      A                      A
 Frequencies --     59.5213                64.5053                98.9543
 Red. masses --      2.6086                 3.4603                 3.8828
 Frc consts  --      0.0054                 0.0085                 0.0224
 IR Inten    --      4.6271                 9.4749                 9.4390

                      4                      5                      6
                      A                      A                      A
 Frequencies --    146.4491               227.9572               260.6152
 Red. masses --      1.8887                 1.3006                 3.3701
 Frc consts  --      0.0239                 0.0398                 0.1349
 IR Inten    --      5.0726                 1.2642                12.7401

                      7                      8                      9
                      A                      A                      A
 Frequencies --    299.8648               355.6170               418.4290
 Red. masses --      2.1526                 2.6961                 3.5230
 Frc consts  --      0.1140                 0.2009                 0.3634
 IR Inten    --      3.5110                 5.4957                 4.7639

                     10                     11                     12
                      A                      A                      A
 Frequencies --    431.0478               514.0389               617.3869
 Red. masses --      2.6018                 2.9751                 5.3443
 Frc consts  --      0.2848                 0.4632                 1.2002
 IR Inten    --      2.8185                 5.0827                 7.2702

                     13                     14                     15
                      A                      A                      A
 Frequencies --    646.9004               763.9212               778.7266
 Red. masses --      5.6521                 2.6429                 1.2236
 Frc consts  --      1.3936                 0.9087                 0.4372
 IR Inten    --      3.5091                 1.5342                37.4188

                     16                     17                     18
                      A                      A                      A
 Frequencies --    792.5407               848.7707               853.1725
 Red. masses --      1.5101                 1.6758                 2.6181
 Frc consts  --      0.5588                 0.7113                 1.1228
 IR Inten    --     33.0483                 7.9839                13.8009

                     19                     20                     21
                      A                      A                      A
 Frequencies --    908.2549               921.1465               985.9852
 Red. masses --      2.2959                 1.4136                 1.4065
 Frc consts  --      1.1159                 0.7067                 0.8056
 IR Inten    --      9.3903                 2.3097                 0.1865

                     22                     23                     24
                      A                      A                      A
 Frequencies --   1011.6739              1022.2345              1023.6252
 Red. masses --      5.4914                 1.3129                 2.0115
 Frc consts  --      3.3114                 0.8083                 1.2418
 IR Inten    --     13.1267                 0.5628                13.5679

                     25                     26                     27
                      A                      A                      A
 Frequencies --   1043.6247              1069.7317              1079.5778
 Red. masses --      2.0200                 3.0019                 2.3042
 Frc consts  --      1.2963                 2.0239                 1.5823
 IR Inten    --     27.5860                13.2336                10.9789

                     28                     29                     30
                      A                      A                      A
 Frequencies --   1121.5302              1155.6948              1183.7395
 Red. masses --      1.4561                 1.2911                 1.1178
 Frc consts  --      1.0791                 1.0160                 0.9228
 IR Inten    --      5.4649                 3.4334                 6.2665

                     31                     32                     33
                      A                      A                      A
 Frequencies --   1187.2474              1251.8389              1275.7620
 Red. masses --      1.4597                 2.2641                 1.7958
 Frc consts  --      1.2123                 2.0904                 1.7221
 IR Inten    --      7.8024                 7.4013                 0.9317

                     34                     35                     36
                      A                      A                      A
 Frequencies --   1312.3555              1333.8593              1343.4325
 Red. masses --      3.4102                 1.4007                 1.3213
 Frc consts  --      3.4605                 1.4683                 1.4050
 IR Inten    --      0.7176                 4.9084                 0.4128

                     37                     38                     39
                      A                      A                      A
 Frequencies --   1367.2118              1408.6035              1448.5134
 Red. masses --      1.2419                 1.3211                 1.2188
 Frc consts  --      1.3677                 1.5444                 1.5066
 IR Inten    --      2.0293                 7.0382                17.0780

                     40                     41                     42
                      A                      A                      A
 Frequencies --   1465.4156              1470.6069              1482.1286
 Red. masses --      1.2474                 1.2322                 2.1331
 Frc consts  --      1.5783                 1.5701                 2.7608
 IR Inten    --     18.2963                45.1989                48.7110

                     43                     44                     45
                      A                      A                      A
 Frequencies --   1503.2293              1514.2726              1520.0844
 Red. masses --      1.0914                 1.0505                 1.1700
 Frc consts  --      1.4531                 1.4192                 1.5929
 IR Inten    --      0.8518                24.0343                21.6599

                     46                     47                     48
                      A                      A                      A
 Frequencies --   1522.4491              1523.8956              1631.1624
 Red. masses --      1.1475                 1.6913                 5.1474
 Frc consts  --      1.5671                 2.3141                 8.0693
 IR Inten    --     14.9717                45.9007                22.6292

                     49                     50                     51
                      A                      A                      A
 Frequencies --   1637.2293              1651.1478              3075.2682
 Red. masses --      1.0938                 5.3685                 1.0654
 Frc consts  --      1.7275                 8.6233                 5.9363
 IR Inten    --    134.7420                89.0562                20.7780

                     52                     53                     54
                      A                      A                      A
 Frequencies --   3129.6124              3133.2641              3143.1333
 Red. masses --      1.0323                 1.0599                 1.0955
 Frc consts  --      5.9573                 6.1308                 6.3767
 IR Inten    --      6.7488                16.5246                22.3189

                     55                     56                     57
                      A                      A                      A
 Frequencies --   3191.5288              3194.5668              3215.3840
 Red. masses --      1.0898                 1.1089                 1.0881
 Frc consts  --      6.5402                 6.6674                 6.6278
 IR Inten    --     46.5862                11.3515                 6.9726

                     58                     59                     60
                      A                      A                      A
 Frequencies --   3225.3398              3228.1628              3230.1089
 Red. masses --      1.1090                 1.0938                 1.1086
 Frc consts  --      6.7973                 6.7156                 6.8150
 IR Inten    --      6.6528                27.7015                 9.8187

                     61                     62                     63
                      A                      A                      A
 Frequencies --   3242.6133              3398.1137              3443.3527
 Red. masses --      1.0969                 1.0573                 1.0944
 Frc consts  --      6.7950                 7.1930                 7.6454
 IR Inten    --     22.3608               158.5465               194.9449

 - Thermochemistry -
 -------------------
 Temperature   298.150 Kelvin.  Pressure   1.00000 Atm.
 Atom     1 has atomic number  6 and mass  12.00000

 Molecular mass:   137.10787 amu.
 Principal axes and moments of inertia in atomic units:
                           1         2         3
     Eigenvalues --   467.860052972.424133289.87640
           X            1.00000   0.00239   0.00178
           Y           -0.00240   0.99997   0.00746
           Z           -0.00176  -0.00747   0.99997
 This molecule is an asymmetric top.
 Rotational symmetry number  1.
 Warning -- assumption of classical behavior for rotation
           may cause significant error
 Rotational temperatures (Kelvin)      0.18513     0.02914     0.02633
 Rotational constants (GHZ):           3.85744     0.60716     0.54857
 Zero-point vibrational energy     546730.1 (Joules/Mol)
                                  130.67163 (Kcal/Mol)
 Warning -- explicit consideration of  12 degrees of freedom as
           vibrations may cause significant error
 Vibrational temperatures:     85.64    92.81   142.37   210.71   327.98
          (Kelvin)            374.97   431.44   511.65   602.03   620.18
                              739.59   888.28   930.75  1099.11  1120.41
                             1140.29  1221.19  1227.52  1306.78  1325.32
                             1418.61  1455.57  1470.77  1472.77  1501.54
                             1539.11  1553.27  1613.63  1662.79  1703.14
                             1708.18  1801.12  1835.54  1888.19  1919.13
                             1932.90  1967.11  2026.67  2084.09  2108.41
                             2115.88  2132.45  2162.81  2178.70  2187.06
                             2190.46  2192.55  2346.88  2355.61  2375.63
                             4424.62  4502.81  4508.07  4522.27  4591.90
                             4596.27  4626.22  4640.54  4644.61  4647.41
                             4665.40  4889.13  4954.22

 Zero-point correction=                           0.208238 (Hartree/Particle)
 Thermal correction to Energy=                    0.217833
 Thermal correction to Enthalpy=                  0.218778
 Thermal correction to Gibbs Free Energy=         0.172604
 Sum of electronic and zero-point Energies=           -421.847478
 Sum of electronic and thermal Energies=              -421.837884
 Sum of electronic and thermal Enthalpies=            -421.836939
 Sum of electronic and thermal Free Energies=         -421.883113

                     E (Thermal)             CV                S
                      KCal/Mol        Cal/Mol-Kelvin    Cal/Mol-Kelvin
 Total                  136.692             35.799             97.180
 Electronic               0.000              0.000              0.000
 Translational            0.889              2.981             40.659
 Rotational               0.889              2.981             29.904
 Vibrational            134.915             29.838             26.617
 Vibration     1          0.597              1.974              4.473
 Vibration     2          0.597              1.971              4.314
 Vibration     3          0.604              1.950              3.475
 Vibration     4          0.617              1.907              2.718
 Vibration     5          0.651              1.798              1.895
 Vibration     6          0.669              1.745              1.658
 Vibration     7          0.692              1.674              1.418
 Vibration     8          0.731              1.564              1.141
 Vibration     9          0.781              1.430              0.897
 Vibration    10          0.792              1.403              0.855
 Vibration    11          0.869              1.219              0.624
 Vibration    12          0.977              0.995              0.421

                           ! Non-Optimized Parameters !
 Normal termination of Gaussian 16 at Sun Jul 18 13:49:09 2021.

 ----------------------------------------------------------------------
 #p b3lyp/6-31G(d) scrf=(iefpcm,read,solvent=water) geom=allcheck guess
 =read
 ----------------------------------------------------------------------

 Structure from the checkpoint file:  "SET_328_BBB256_conf1.geo_285_180_105.chk"
 ---------------------------------------------
 SET_328_BBB256_conf1.geo_285_180_105 geometry
 ---------------------------------------------
 Charge =  1 Multiplicity = 1

 SCF Done:  E(RB3LYP) =  -422.055716898     A.U. after    1 cycles
 Normal termination of Gaussian 16 at Sun Jul 18 13:49:13 2021.

 -----------------------------
 #p B3LYP/6-31G* geom=allcheck
 -----------------------------

 Structure from the checkpoint file:  "SET_328_BBB256_conf1.geo_285_180_105.chk"
 ---------------------------------------------
 SET_328_BBB256_conf1.geo_285_180_105 geometry
 ---------------------------------------------
 Charge =  1 Multiplicity = 1

 SCF Done:  E(RB3LYP) =  -421.947849299     A.U. after   14 cycles
 Normal termination of Gaussian 16 at Sun Jul 18 13:49:30 2021.
 Gaussian 16:  ES64L-G16RevB.01 20-Dec-2017

 --------------------------------------------------------
 #p mp2/aug-cc-pVDZ scf=tight maxdisk=180GB geom=allcheck
 --------------------------------------------------------

 Structure from the checkpoint file:  "SET_328_BBB256_conf1.geo_285_180_105.chk"
 ---------------------------------------------
 SET_328_BBB256_conf1.geo_285_180_105 geometry
 ---------------------------------------------
 Charge =  1 Multiplicity = 1

                         Standard orientation:
 ---------------------------------------------------------------------
 Center     Atomic      Atomic             Coordinates (Angstroms)
 Number     Number       Type             X           Y           Z
 ---------------------------------------------------------------------
      1          6           0        3.809673    0.730361   -0.104030
      2          1           0        4.859883    0.552069    0.117276
      3          1           0        3.362497    1.349780    0.669603
      4          1           0        3.702406    1.202566   -1.077849
      5          7           0        3.108063   -0.586640   -0.141611
      6          1           0        3.240661   -1.071245    0.757874
      7          6           0        1.641396   -0.517179   -0.457288
      8          1           0        1.305313   -1.542116   -0.604882
      9          1           0        1.549346    0.022654   -1.399827
     10          6           0        0.834505    0.147087    0.656144
     11          1           0        1.146383    1.184039    0.793122
     12          1           0        1.010876   -0.385988    1.598233
     13          6           0       -0.642001    0.103072    0.327625
     14          7           0       -1.208101   -1.116407    0.282179
     15          6           0       -2.512149   -1.192059   -0.014902
     16          1           0       -2.938477   -2.191608   -0.042145
     17          6           0       -3.311506   -0.079572   -0.277302
     18          1           0       -4.361985   -0.202951   -0.510937
     19          6           0       -2.719544    1.180686   -0.229168
     20          1           0       -3.301120    2.075003   -0.425691
     21          6           0       -1.362893    1.273702    0.076653
     22          1           0       -0.865156    2.236077    0.123633
     23          1           0        3.564751   -1.183535   -0.848774
 ---------------------------------------------------------------------

 SCF Done:  E(RHF) =  -419.251199395     A.U. after   14 cycles
 E2 =    -0.1457849854D+01 EUMP2 =    -0.42070904924908D+03

 The electronic state is 1-A.
 Alpha  occ. eigenvalues --  -15.88021 -15.68671 -11.46769 -11.46022 -11.40833
 Alpha  occ. eigenvalues --  -11.39834 -11.38887 -11.37081 -11.35886 -11.35082
 Alpha  occ. eigenvalues --   -1.50131  -1.37602  -1.22832  -1.19700  -1.16001
 Alpha  occ. eigenvalues --   -1.12386  -1.04144  -0.97178  -0.96427  -0.92816
 Alpha  occ. eigenvalues --   -0.88966  -0.83294  -0.81196  -0.79610  -0.75992
 Alpha  occ. eigenvalues --   -0.75594  -0.75230  -0.73713  -0.70758  -0.69658
 Alpha  occ. eigenvalues --   -0.67950  -0.66559  -0.63913  -0.62691  -0.53144
 Alpha  occ. eigenvalues --   -0.48920  -0.45289
 Alpha virt. eigenvalues --   -0.09695  -0.07178  -0.07000  -0.05508  -0.03843
 Alpha virt. eigenvalues --   -0.03648  -0.03468  -0.03147  -0.02575  -0.01762
 Alpha virt. eigenvalues --   -0.01473  -0.01432  -0.00548   0.00184   0.00424

 Mulliken charges:
               1
     1  C    0.828898
     2  H   -0.111197
     3  H   -0.080471
     4  H   -0.068352
     5  N   -0.607989
     6  H    0.183533
     7  C    0.940946
     8  H   -0.130941
     9  H   -0.234509
    10  C    0.386725
    11  H   -0.222058
    12  H   -0.044980
    13  C    0.301652
    14  N   -0.760366
    15  C    0.444614
    16  H   -0.350457
    17  C    0.938627
    18  H   -0.397976
    19  C   -0.188331
    20  H   -0.392803
    21  C    0.955446
    22  H   -0.562346
    23  H    0.172334
 Sum of Mulliken charges =   1.00000

 Dipole moment (field-independent basis, Debye):
    X=             10.7272    Y=              0.1321    Z=             -1.0835  Tot=             10.7826
 Quadrupole moment (field-independent basis, Debye-Ang):
   XX=              1.6626   YY=            -51.4732   ZZ=            -58.9108
   XY=             -5.5710   XZ=              0.4174   YZ=              0.7871

 Normal termination of Gaussian 16 at Sun Jul 18 13:52:45 2021.
