 Gaussian 16, Revision B.01,

 -----------------------------------------------------------
 #p b3lyp/6-31G(d) opt freq scrf=(iefpcm,read,solvent=water)
 -----------------------------------------------------------

 -------------------------------------------
 SET_328_BBB6_conf1.geo_330_225_075 geometry
 -------------------------------------------
 Symbolic Z-matrix:
 Charge =  1 Multiplicity = 1

 SCF Done:  E(RB3LYP) =  -1096.83528109     A.U. after   13 cycles
 SCF Done:  E(RB3LYP) =  -1096.86491131     A.U. after   12 cycles
 SCF Done:  E(RB3LYP) =  -1096.87777261     A.U. after   12 cycles
 SCF Done:  E(RB3LYP) =  -1096.88032073     A.U. after   12 cycles
 SCF Done:  E(RB3LYP) =  -1096.87929786     A.U. after   11 cycles
 SCF Done:  E(RB3LYP) =  -1096.88116662     A.U. after   11 cycles
 SCF Done:  E(RB3LYP) =  -1096.88161587     A.U. after   10 cycles
 SCF Done:  E(RB3LYP) =  -1096.88182315     A.U. after   10 cycles
 SCF Done:  E(RB3LYP) =  -1096.88179585     A.U. after   10 cycles
 SCF Done:  E(RB3LYP) =  -1096.88190876     A.U. after   10 cycles
 SCF Done:  E(RB3LYP) =  -1096.88194458     A.U. after    2 cycles
 SCF Done:  E(RB3LYP) =  -1096.88194458     A.U. after    3 cycles
 SCF Done:  E(RB3LYP) =  -1096.88188079     A.U. after   10 cycles
 SCF Done:  E(RB3LYP) =  -1096.88194239     A.U. after    9 cycles
 SCF Done:  E(RB3LYP) =  -1096.88194004     A.U. after    7 cycles
 SCF Done:  E(RB3LYP) =  -1096.88193893     A.U. after    6 cycles
 Optimization completed.
    -- Stationary point found.
 Normal termination of Gaussian 16 at Sun Jul 18 17:35:02 2021.

 --------------------------------------------------------------------
 #P Geom=AllCheck Guess=TCheck SCRF=Check GenChk RB3LYP/6-31G(d) Freq
 --------------------------------------------------------------------

 Structure from the checkpoint file:  "SET_328_BBB6_conf1.geo_330_225_075.chk"
 -------------------------------------------
 SET_328_BBB6_conf1.geo_330_225_075 geometry
 -------------------------------------------
 Charge =  1 Multiplicity = 1

 SCF Done:  E(RB3LYP) =  -1096.88193893     A.U. after    1 cycles

  Exact polarizability: 255.253 -15.959 225.533 -16.373  -9.688 134.065
 Approx polarizability: 270.542 -23.454 262.907 -17.535 -11.209 144.945

                      1                      2                      3
                      A                      A                      A
 Frequencies --     32.2328                39.6704                59.0687
 Red. masses --      4.3685                 4.4871                 3.0113
 Frc consts  --      0.0027                 0.0042                 0.0062
 IR Inten    --      0.0187                 1.0953                 1.4780

                      4                      5                      6
                      A                      A                      A
 Frequencies --     63.5143               109.9611               137.8400
 Red. masses --      4.3763                 4.5955                 5.9113
 Frc consts  --      0.0104                 0.0327                 0.0662
 IR Inten    --      8.1263                 7.5224                 2.9159

                      7                      8                      9
                      A                      A                      A
 Frequencies --    180.6709               202.2119               209.5765
 Red. masses --      3.4028                 4.5802                 1.2479
 Frc consts  --      0.0654                 0.1103                 0.0323
 IR Inten    --      2.9853                 0.1673                 5.3530

                     10                     11                     12
                      A                      A                      A
 Frequencies --    239.0732               247.7992               271.4326
 Red. masses --      2.2807                 1.7283                 1.4551
 Frc consts  --      0.0768                 0.0625                 0.0632
 IR Inten    --      4.0706                 3.4599                 0.1521

                     13                     14                     15
                      A                      A                      A
 Frequencies --    279.0995               279.7126               301.6905
 Red. masses --      1.1770                 1.3074                 1.9151
 Frc consts  --      0.0540                 0.0603                 0.1027
 IR Inten    --      1.0726                 5.6700                 1.2871

                     16                     17                     18
                      A                      A                      A
 Frequencies --    331.7742               345.3187               372.9781
 Red. masses --      3.1719                 3.7100                 2.9747
 Frc consts  --      0.2057                 0.2607                 0.2438
 IR Inten    --      3.2384                23.4191                 4.4868

                     19                     20                     21
                      A                      A                      A
 Frequencies --    386.9295               404.0120               436.9309
 Red. masses --      2.8871                 5.9322                 3.0720
 Frc consts  --      0.2547                 0.5705                 0.3455
 IR Inten    --     14.1681                 3.5824                 2.9360

                     22                     23                     24
                      A                      A                      A
 Frequencies --    453.3605               472.5868               484.8063
 Red. masses --      2.6352                 2.8784                 2.7544
 Frc consts  --      0.3191                 0.3788                 0.3814
 IR Inten    --     25.0877                 4.5658                 5.5367

                     25                     26                     27
                      A                      A                      A
 Frequencies --    515.3052               544.8164               661.6614
 Red. masses --      4.2034                 3.6965                 6.1340
 Frc consts  --      0.6576                 0.6465                 1.5822
 IR Inten    --      3.1195                42.1905                 5.5439

                     28                     29                     30
                      A                      A                      A
 Frequencies --    680.8333               701.8925               744.0144
 Red. masses --      3.0830                 4.5626                 2.9901
 Frc consts  --      0.8420                 1.3243                 0.9752
 IR Inten    --      8.4772                22.4559                31.4346

                     31                     32                     33
                      A                      A                      A
 Frequencies --    764.4619               815.5811               826.3697
 Red. masses --      3.3182                 3.7114                 1.6243
 Frc consts  --      1.1425                 1.4545                 0.6535
 IR Inten    --     27.7693                57.9939                21.7916

                     34                     35                     36
                      A                      A                      A
 Frequencies --    871.8063               903.0296               914.2605
 Red. masses --      2.4138                 1.4548                 2.0930
 Frc consts  --      1.0809                 0.6990                 1.0308
 IR Inten    --      7.1320                16.4636                 8.9676

                     37                     38                     39
                      A                      A                      A
 Frequencies --    937.4860               953.1827               953.7918
 Red. masses --      1.8292                 1.3891                 1.5427
 Frc consts  --      0.9472                 0.7436                 0.8268
 IR Inten    --     23.2536                 0.6966                 0.1091

                     40                     41                     42
                      A                      A                      A
 Frequencies --    956.9955               992.6258              1000.0990
 Red. masses --      1.7122                 1.2585                 3.2558
 Frc consts  --      0.9239                 0.7306                 1.9186
 IR Inten    --      5.9688                 8.2917               118.8748

                     43                     44                     45
                      A                      A                      A
 Frequencies --   1010.5192              1015.3956              1046.6274
 Red. masses --      1.3302                 4.9264                 1.8051
 Frc consts  --      0.8003                 2.9926                 1.1651
 IR Inten    --      2.3756                 7.3581                16.4257

                     46                     47                     48
                      A                      A                      A
 Frequencies --   1070.7136              1103.1939              1106.3119
 Red. masses --      1.4606                 1.8268                 2.0423
 Frc consts  --      0.9865                 1.3099                 1.4727
 IR Inten    --      1.1346                25.9129                22.9495

                     49                     50                     51
                      A                      A                      A
 Frequencies --   1107.6385              1132.7141              1159.1378
 Red. masses --      1.8148                 1.6126                 2.0001
 Frc consts  --      1.3118                 1.2190                 1.5833
 IR Inten    --     17.7026                10.7530                97.0943

                     52                     53                     54
                      A                      A                      A
 Frequencies --   1197.9155              1231.9658              1252.2983
 Red. masses --      1.1170                 2.1182                 1.5846
 Frc consts  --      0.9444                 1.8942                 1.4642
 IR Inten    --      5.7691                83.9532                24.3437

                     55                     56                     57
                      A                      A                      A
 Frequencies --   1265.2918              1287.1384              1318.7142
 Red. masses --      3.0490                 2.6677                 1.6019
 Frc consts  --      2.8760                 2.6039                 1.6413
 IR Inten    --    372.8651                16.0244                 1.6684

                     58                     59                     60
                      A                      A                      A
 Frequencies --   1333.1070              1362.9031              1384.5711
 Red. masses --      1.5714                 5.1504                 1.3019
 Frc consts  --      1.6454                 5.6366                 1.4705
 IR Inten    --     48.1465                15.1949                84.2041

                     61                     62                     63
                      A                      A                      A
 Frequencies --   1437.5555              1438.1772              1441.7988
 Red. masses --      1.2772                 1.2116                 1.2322
 Frc consts  --      1.5551                 1.4765                 1.5091
 IR Inten    --     35.6010                13.7160                14.5703

                     64                     65                     66
                      A                      A                      A
 Frequencies --   1457.0027              1459.6006              1461.7096
 Red. masses --      1.9122                 1.6116                 1.2087
 Frc consts  --      2.3917                 2.0229                 1.5216
 IR Inten    --     13.4249                23.2546                48.1972

                     67                     68                     69
                      A                      A                      A
 Frequencies --   1501.1116              1504.4286              1509.7114
 Red. masses --      1.0618                 1.0718                 1.0545
 Frc consts  --      1.4096                 1.4292                 1.4160
 IR Inten    --     22.9282                30.5061                11.2837

                     70                     71                     72
                      A                      A                      A
 Frequencies --   1511.5598              1519.6421              1523.2094
 Red. masses --      1.0901                 1.2653                 1.4400
 Frc consts  --      1.4675                 1.7215                 1.9685
 IR Inten    --     50.4003                 5.1028                11.5958

                     73                     74                     75
                      A                      A                      A
 Frequencies --   1530.7063              1535.4613              1537.1144
 Red. masses --      1.0869                 1.1057                 1.1058
 Frc consts  --      1.5005                 1.5359                 1.5394
 IR Inten    --     37.6607                 4.8120                23.4308

                     76                     77                     78
                      A                      A                      A
 Frequencies --   1556.0670              1621.5359              1639.3234
 Red. masses --      1.1114                 5.6462                 1.2034
 Frc consts  --      1.5855                 8.7470                 1.9054
 IR Inten    --     12.6726               120.1383               208.9159

                     79                     80                     81
                      A                      A                      A
 Frequencies --   1647.1252              1747.4115              3076.1584
 Red. masses --      3.9310                 9.3591                 1.0358
 Frc consts  --      6.2836                16.8373                 5.7749
 IR Inten    --     14.3976               307.5208                26.0000

                     82                     83                     84
                      A                      A                      A
 Frequencies --   3080.4582              3087.3437              3092.1167
 Red. masses --      1.0358                 1.0352                 1.0368
 Frc consts  --      5.7911                 5.8137                 5.8404
 IR Inten    --     18.4054                14.0891                 7.8249

                     85                     86                     87
                      A                      A                      A
 Frequencies --   3145.8239              3151.6254              3156.4171
 Red. masses --      1.1030                 1.1037                 1.1023
 Frc consts  --      6.4314                 6.4592                 6.4706
 IR Inten    --     28.2575                28.1676                 8.7009

                     88                     89                     90
                      A                      A                      A
 Frequencies --   3157.4591              3159.9560              3161.3358
 Red. masses --      1.1017                 1.0999                 1.1018
 Frc consts  --      6.4715                 6.4707                 6.4875
 IR Inten    --     13.5697                13.2605                54.1514

                     91                     92                     93
                      A                      A                      A
 Frequencies --   3171.8845              3173.3395              3175.5919
 Red. masses --      1.0976                 1.1020                 1.0973
 Frc consts  --      6.5064                 6.5385                 6.5198
 IR Inten    --      0.4952                32.2545                33.9379

                     94                     95                     96
                      A                      A                      A
 Frequencies --   3227.7409              3245.4917              3248.4033
 Red. masses --      1.0887                 1.0921                 1.0913
 Frc consts  --      6.6825                 6.7777                 6.7847
 IR Inten    --      8.5154                 2.0218                 2.9268

                     97                     98                     99
                      A                      A                      A
 Frequencies --   3250.0903              3277.7831              3415.4943
 Red. masses --      1.0953                 1.0689                 1.0812
 Frc consts  --      6.8164                 6.7665                 7.4313
 IR Inten    --      7.7575               218.6714               193.2044

 - Thermochemistry -
 -------------------
 Temperature   298.150 Kelvin.  Pressure   1.00000 Atm.
 Atom     1 has atomic number  6 and mass  12.00000

 Molecular mass:   240.11552 amu.
 Principal axes and moments of inertia in atomic units:
                           1         2         3
     Eigenvalues --  2228.532457771.266838724.93381
           X            0.99961   0.02784   0.00378
           Y           -0.02779   0.99954  -0.01248
           Z           -0.00413   0.01237   0.99991
 This molecule is an asymmetric top.
 Rotational symmetry number  1.
 Warning -- assumption of classical behavior for rotation
           may cause significant error
 Rotational temperatures (Kelvin)      0.03887     0.01115     0.00993
 Rotational constants (GHZ):           0.80983     0.23223     0.20685
 Zero-point vibrational energy     798515.6 (Joules/Mol)
                                  190.84981 (Kcal/Mol)
 Warning -- explicit consideration of  26 degrees of freedom as
           vibrations may cause significant error
 Vibrational temperatures:     46.38    57.08    84.99    91.38   158.21
          (Kelvin)            198.32   259.95   290.94   301.53   343.97
                              356.53   390.53   401.56   402.44   434.07
                              477.35   496.84   536.63   556.71   581.28
                              628.65   652.28   679.95   697.53   741.41
                              783.87   951.98   979.57  1009.87  1070.47
                             1099.89  1173.44  1188.96  1254.33  1299.26
                             1315.42  1348.83  1371.42  1372.29  1376.90
                             1428.17  1438.92  1453.91  1460.93  1505.86
                             1540.52  1587.25  1591.74  1593.64  1629.72
                             1667.74  1723.53  1772.52  1801.78  1820.47
                             1851.91  1897.34  1918.04  1960.91  1992.09
                             2068.32  2069.22  2074.43  2096.30  2100.04
                             2103.07  2159.76  2164.54  2172.14  2174.80
                             2186.43  2191.56  2202.34  2209.19  2211.56
                             2238.83  2333.03  2358.62  2369.85  2514.14
                             4425.91  4432.09  4442.00  4448.87  4526.14
                             4534.49  4541.38  4542.88  4546.47  4548.46
                             4563.63  4565.73  4568.97  4644.00  4669.54
                             4673.73  4676.16  4716.00  4914.13

 Zero-point correction=                           0.304139 (Hartree/Particle)
 Thermal correction to Energy=                    0.320845
 Thermal correction to Enthalpy=                  0.321790
 Thermal correction to Gibbs Free Energy=         0.259340
 Sum of electronic and zero-point Energies=          -1096.577800
 Sum of electronic and thermal Energies=             -1096.561093
 Sum of electronic and thermal Enthalpies=           -1096.560149
 Sum of electronic and thermal Free Energies=        -1096.622599

                     E (Thermal)             CV                S
                      KCal/Mol        Cal/Mol-Kelvin    Cal/Mol-Kelvin
 Total                  201.334             63.781            131.436
 Electronic               0.000              0.000              0.000
 Translational            0.889              2.981             42.329
 Rotational               0.889              2.981             33.379
 Vibrational            199.556             57.819             55.728
 Vibration     1          0.594              1.983              5.687
 Vibration     2          0.594              1.981              5.275
 Vibration     3          0.596              1.974              4.488
 Vibration     4          0.597              1.972              4.345
 Vibration     5          0.606              1.941              3.270
 Vibration     6          0.614              1.916              2.834
 Vibration     7          0.630              1.866              2.321
 Vibration     8          0.639              1.837              2.113
 Vibration     9          0.642              1.826              2.047
 Vibration    10          0.657              1.781              1.810
 Vibration    11          0.661              1.766              1.746
 Vibration    12          0.675              1.726              1.587
 Vibration    13          0.679              1.712              1.539
 Vibration    14          0.680              1.711              1.535
 Vibration    15          0.694              1.670              1.408
 Vibration    16          0.714              1.612              1.251
 Vibration    17          0.724              1.585              1.187
 Vibration    18          0.744              1.528              1.068
 Vibration    19          0.755              1.498              1.012
 Vibration    20          0.769              1.461              0.948
 Vibration    21          0.797              1.390              0.836
 Vibration    22          0.812              1.353              0.786
 Vibration    23          0.829              1.311              0.730
 Vibration    24          0.841              1.284              0.697
 Vibration    25          0.870              1.216              0.621
 Vibration    26          0.900              1.151              0.555

                           ! Non-Optimized Parameters !
 Normal termination of Gaussian 16 at Sun Jul 18 17:45:34 2021.

 ----------------------------------------------------------------------
 #p b3lyp/6-31G(d) scrf=(iefpcm,read,solvent=water) geom=allcheck guess
 =read
 ----------------------------------------------------------------------

 Structure from the checkpoint file:  "SET_328_BBB6_conf1.geo_330_225_075.chk"
 -------------------------------------------
 SET_328_BBB6_conf1.geo_330_225_075 geometry
 -------------------------------------------
 Charge =  1 Multiplicity = 1

 SCF Done:  E(RB3LYP) =  -1096.88193893     A.U. after    1 cycles
 Normal termination of Gaussian 16 at Sun Jul 18 17:45:44 2021.

 -----------------------------
 #p B3LYP/6-31G* geom=allcheck
 -----------------------------

 Structure from the checkpoint file:  "SET_328_BBB6_conf1.geo_330_225_075.chk"
 -------------------------------------------
 SET_328_BBB6_conf1.geo_330_225_075 geometry
 -------------------------------------------
 Charge =  1 Multiplicity = 1

 SCF Done:  E(RB3LYP) =  -1096.79183772     A.U. after   14 cycles
 Normal termination of Gaussian 16 at Sun Jul 18 17:46:25 2021.
 Gaussian 16:  ES64L-G16RevB.01 20-Dec-2017

 --------------------------------------------------------
 #p mp2/aug-cc-pVDZ scf=tight maxdisk=180GB geom=allcheck
 --------------------------------------------------------

 Structure from the checkpoint file:  "SET_328_BBB6_conf1.geo_330_225_075.chk"
 -------------------------------------------
 SET_328_BBB6_conf1.geo_330_225_075 geometry
 -------------------------------------------
 Charge =  1 Multiplicity = 1

                         Standard orientation:
 ---------------------------------------------------------------------
 Center     Atomic      Atomic             Coordinates (Angstroms)
 Number     Number       Type             X           Y           Z
 ---------------------------------------------------------------------
      1          6           0       -0.901169   -0.259477    2.354793
      2          1           0       -1.504305   -1.087961    2.732502
      3          1           0       -1.144643    0.644786    2.917449
      4          1           0        0.150275   -0.496662    2.524636
      5          6           0       -1.166094   -0.059417    0.855701
      6          7           0       -2.613510    0.279564    0.618068
      7          6           0       -3.359576   -0.468695   -0.498799
      8          6           0       -2.605371   -0.264247   -1.811799
      9          1           0       -1.605412   -0.702841   -1.782010
     10          1           0       -2.518277    0.794096   -2.064543
     11          1           0       -3.155218   -0.759922   -2.614791
     12          6           0       -3.441587   -1.947095   -0.115026
     13          1           0       -2.455138   -2.414479   -0.051633
     14          1           0       -4.007531   -2.478507   -0.883083
     15          1           0       -3.955346   -2.083264    0.840381
     16          6           0       -4.754795    0.159491   -0.560034
     17          1           0       -4.706020    1.221966   -0.813647
     18          1           0       -5.284110    0.048506    0.390207
     19          1           0       -5.339514   -0.345408   -1.332352
     20          1           0       -2.643404    1.296903    0.416780
     21          1           0       -0.954552   -0.979085    0.313017
     22          6           0       -0.322400    1.101859    0.296050
     23          8           0       -0.867249    2.178745    0.084657
     24          6           0        1.130220    0.906654    0.066506
     25          6           0        1.727353   -0.363026    0.078508
     26          1           0        1.151005   -1.261188    0.258085
     27          6           0        3.092090   -0.468222   -0.165374
     28         17           0        3.841149   -2.059448   -0.161683
     29          6           0        3.878080    0.655228   -0.414975
     30          1           0        4.939813    0.545191   -0.599198
     31          6           0        3.277059    1.915795   -0.424953
     32          1           0        3.883136    2.793769   -0.618201
     33          6           0        1.912472    2.044376   -0.190849
     34          1           0        1.431555    3.014627   -0.198829
     35          1           0       -3.146968    0.153846    1.491607
 ---------------------------------------------------------------------

 SCF Done:  E(RHF) =  -1092.04881092     A.U. after   16 cycles
 E2 =    -0.2360527319D+01 EUMP2 =    -0.10944093382352D+04

 The electronic state is 1-A.
 Alpha  occ. eigenvalues -- -104.94160 -20.71598 -15.84424 -11.50375 -11.46824
 Alpha  occ. eigenvalues --  -11.46112 -11.42560 -11.39712 -11.39211 -11.38893
 Alpha  occ. eigenvalues --  -11.38245 -11.37982 -11.37938 -11.37704 -11.37663
 Alpha  occ. eigenvalues --  -11.36862 -10.66701  -8.13481  -8.13142  -8.13126
 Alpha  occ. eigenvalues --   -1.55315  -1.47079  -1.31153  -1.25952  -1.23652
 Alpha  occ. eigenvalues --   -1.20382  -1.16381  -1.11997  -1.10459  -1.10285
 Alpha  occ. eigenvalues --   -1.06462  -1.00315  -0.95467  -0.95288  -0.92628
 Alpha  occ. eigenvalues --   -0.89286  -0.84814  -0.83224  -0.82223  -0.79045
 Alpha  occ. eigenvalues --   -0.77694  -0.76749  -0.75737  -0.75294  -0.73397
 Alpha  occ. eigenvalues --   -0.72278  -0.71804  -0.70364  -0.69924  -0.69043
 Alpha  occ. eigenvalues --   -0.68982  -0.67978  -0.67514  -0.66466  -0.65326
 Alpha  occ. eigenvalues --   -0.64517  -0.63798  -0.63452  -0.62525  -0.58052
 Alpha  occ. eigenvalues --   -0.57468  -0.55682  -0.47598  -0.45169
 Alpha virt. eigenvalues --   -0.07424  -0.07080  -0.05589  -0.05151  -0.04654
 Alpha virt. eigenvalues --   -0.03438  -0.03343  -0.03229  -0.02968  -0.02725
 Alpha virt. eigenvalues --   -0.01947  -0.01403  -0.01224  -0.00637  -0.00454

 Mulliken charges:
               1
     1  C    1.024312
     2  H   -0.068783
     3  H    0.009819
     4  H   -0.053090
     5  C   -0.212741
     6  N   -0.507799
     7  C   -3.520003
     8  C    1.312720
     9  H    0.058937
    10  H    0.018404
    11  H   -0.042147
    12  C    1.316937
    13  H   -0.002020
    14  H    0.026925
    15  H    0.020582
    16  C    1.277208
    17  H   -0.007904
    18  H   -0.003769
    19  H    0.062059
    20  H    0.254373
    21  H   -0.426312
    22  C    0.228801
    23  O   -0.992558
    24  C    2.015080
    25  C    1.387868
    26  H   -0.772459
    27  C   -1.012050
    28  Cl  -0.339657
    29  C    0.706326
    30  H   -0.407317
    31  C    0.519342
    32  H   -0.435752
    33  C   -0.006339
    34  H   -0.646976
    35  H    0.217984
 Sum of Mulliken charges =   1.00000

 Dipole moment (field-independent basis, Debye):
    X=             -8.3004    Y=             -0.4343    Z=              1.7761  Tot=              8.4994
 Quadrupole moment (field-independent basis, Debye-Ang):
   XX=            -48.1389   YY=            -98.4488   ZZ=            -94.6485
   XY=             13.1179   XZ=             -4.0562   YZ=             -0.4607

 Normal termination of Gaussian 16 at Sun Jul 18 18:15:31 2021.
