 Gaussian 16, Revision B.01,

 -----------------------------------------------------------
 #p b3lyp/6-31G(d) opt freq scrf=(iefpcm,read,solvent=water)
 -----------------------------------------------------------

 --------------------------------------------
 SET_328_BBB30_conf1.geo_105_180_195 geometry
 --------------------------------------------
 Symbolic Z-matrix:
 Charge =  1 Multiplicity = 1

 SCF Done:  E(RB3LYP) =  -445.294649672     A.U. after   11 cycles
 SCF Done:  E(RB3LYP) =  -445.322025438     A.U. after   11 cycles
 SCF Done:  E(RB3LYP) =  -445.329595635     A.U. after   11 cycles
 SCF Done:  E(RB3LYP) =  -445.330004683     A.U. after    9 cycles
 SCF Done:  E(RB3LYP) =  -445.330067957     A.U. after    8 cycles
 SCF Done:  E(RB3LYP) =  -445.330108114     A.U. after    8 cycles
 SCF Done:  E(RB3LYP) =  -445.330120158     A.U. after    8 cycles
 SCF Done:  E(RB3LYP) =  -445.330149993     A.U. after    8 cycles
 SCF Done:  E(RB3LYP) =  -445.330194425     A.U. after    9 cycles
 SCF Done:  E(RB3LYP) =  -445.330186675     A.U. after    9 cycles
 SCF Done:  E(RB3LYP) =  -445.330358480     A.U. after    6 cycles
 SCF Done:  E(RB3LYP) =  -445.330384837     A.U. after    8 cycles
 SCF Done:  E(RB3LYP) =  -445.330382622     A.U. after    8 cycles
 SCF Done:  E(RB3LYP) =  -445.330381970     A.U. after    7 cycles
 SCF Done:  E(RB3LYP) =  -445.330384940     A.U. after    7 cycles
 SCF Done:  E(RB3LYP) =  -445.330383523     A.U. after    7 cycles
 Optimization completed.
    -- Stationary point found.
 Normal termination of Gaussian 16 at Sun Jul 18 14:32:13 2021.

 --------------------------------------------------------------------
 #P Geom=AllCheck Guess=TCheck SCRF=Check GenChk RB3LYP/6-31G(d) Freq
 --------------------------------------------------------------------

 Structure from the checkpoint file:  "SET_328_BBB30_conf1.geo_105_180_195.chk"
 --------------------------------------------
 SET_328_BBB30_conf1.geo_105_180_195 geometry
 --------------------------------------------
 Charge =  1 Multiplicity = 1

 SCF Done:  E(RB3LYP) =  -445.330383523     A.U. after    1 cycles

  Exact polarizability: 174.400   5.491 151.487 -22.408  12.886  95.892
 Approx polarizability: 182.273   6.517 173.941 -26.850  16.656 106.511

                      1                      2                      3
                      A                      A                      A
 Frequencies --     50.8613                86.0432                96.7384
 Red. masses --      3.1183                 3.4362                 3.4756
 Frc consts  --      0.0048                 0.0150                 0.0192
 IR Inten    --      0.5200                 1.0439                 0.9989

                      4                      5                      6
                      A                      A                      A
 Frequencies --    140.6730               221.2209               240.5522
 Red. masses --      1.7910                 1.0537                 3.6440
 Frc consts  --      0.0209                 0.0304                 0.1242
 IR Inten    --      9.1800                 0.1783                 2.9758

                      7                      8                      9
                      A                      A                      A
 Frequencies --    255.4101               286.0835               344.1279
 Red. masses --      1.7519                 2.9717                 1.8078
 Frc consts  --      0.0673                 0.1433                 0.1261
 IR Inten    --      6.1279                10.3395                 0.5690

                     10                     11                     12
                      A                      A                      A
 Frequencies --    371.3249               418.5557               434.4410
 Red. masses --      2.1265                 2.9509                 2.4689
 Frc consts  --      0.1728                 0.3046                 0.2746
 IR Inten    --      0.9438                 0.0459                 3.0152

                     13                     14                     15
                      A                      A                      A
 Frequencies --    450.0235               534.7644               598.8495
 Red. masses --      2.3029                 2.9243                 4.8765
 Frc consts  --      0.2748                 0.4927                 1.0304
 IR Inten    --      9.0105                 6.1663                 3.1287

                     16                     17                     18
                      A                      A                      A
 Frequencies --    634.3128               716.3125               763.4991
 Red. masses --      6.3053                 1.9977                 1.7244
 Frc consts  --      1.4947                 0.6039                 0.5922
 IR Inten    --      0.1652                33.7672                44.7607

                     19                     20                     21
                      A                      A                      A
 Frequencies --    810.0568               835.4708               863.7623
 Red. masses --      3.2101                 1.9298                 1.5279
 Frc consts  --      1.2411                 0.7937                 0.6716
 IR Inten    --      7.1061                22.1585                 9.9263

                     22                     23                     24
                      A                      A                      A
 Frequencies --    866.5700               901.1506               929.0376
 Red. masses --      1.2520                 1.8080                 1.6114
 Frc consts  --      0.5539                 0.8651                 0.8195
 IR Inten    --      0.1008                 4.8436                 7.1517

                     25                     26                     27
                      A                      A                      A
 Frequencies --    940.7505               979.9486              1007.5557
 Red. masses --      1.5319                 1.3550                 1.2585
 Frc consts  --      0.7988                 0.7667                 0.7527
 IR Inten    --      1.9969                 0.0156                 0.1748

                     28                     29                     30
                      A                      A                      A
 Frequencies --   1017.0275              1025.3089              1054.2429
 Red. masses --      6.2059                 2.5020                 2.0718
 Frc consts  --      3.7820                 1.5497                 1.3567
 IR Inten    --      0.5826                 4.3903                36.5129

                     31                     32                     33
                      A                      A                      A
 Frequencies --   1058.7369              1089.3841              1100.6184
 Red. masses --      2.1115                 1.7555                 1.5513
 Frc consts  --      1.3945                 1.2275                 1.1072
 IR Inten    --     10.9841                13.6292                 6.6739

                     34                     35                     36
                      A                      A                      A
 Frequencies --   1136.5774              1177.5993              1189.1789
 Red. masses --      1.5099                 1.5226                 1.0965
 Frc consts  --      1.1492                 1.2440                 0.9136
 IR Inten    --     16.8741                 5.7402                 0.0941

                     37                     38                     39
                      A                      A                      A
 Frequencies --   1206.1695              1219.0578              1236.6694
 Red. masses --      1.1311                 1.6381                 2.8562
 Frc consts  --      0.9696                 1.4343                 2.5736
 IR Inten    --      0.2790                29.4561                 0.1884

                     40                     41                     42
                      A                      A                      A
 Frequencies --   1278.8283              1354.6929              1360.3916
 Red. masses --      1.5153                 1.2851                 4.3680
 Frc consts  --      1.4600                 1.3895                 4.7628
 IR Inten    --      1.6577                 2.6901                 0.5213

                     43                     44                     45
                      A                      A                      A
 Frequencies --   1364.7664              1374.0538              1406.9764
 Red. masses --      1.3087                 1.2820                 1.3696
 Frc consts  --      1.4362                 1.4261                 1.5975
 IR Inten    --      1.6595                 5.6858                 3.0700

                     46                     47                     48
                      A                      A                      A
 Frequencies --   1437.5374              1443.4157              1468.5803
 Red. masses --      1.1727                 1.2384                 1.1693
 Frc consts  --      1.4278                 1.5202                 1.4858
 IR Inten    --     22.3195                57.6786                 8.0807

                     49                     50                     51
                      A                      A                      A
 Frequencies --   1498.6099              1505.2476              1510.8064
 Red. masses --      1.9923                 1.0907                 1.0807
 Frc consts  --      2.6362                 1.4560                 1.4533
 IR Inten    --     10.4860                18.9589                 9.3626

                     52                     53                     54
                      A                      A                      A
 Frequencies --   1514.3144              1520.4602              1537.2048
 Red. masses --      1.0570                 1.0697                 1.0480
 Frc consts  --      1.4281                 1.4570                 1.4591
 IR Inten    --     15.0699                 8.0289                 8.3902

                     55                     56                     57
                      A                      A                      A
 Frequencies --   1540.6111              1543.9744              1624.0839
 Red. masses --      1.1816                 2.2312                 1.0736
 Frc consts  --      1.6524                 3.1339                 1.6685
 IR Inten    --     76.6676                14.0244               117.7276

                     58                     59                     60
                      A                      A                      A
 Frequencies --   1643.8056              1662.3816              3072.5375
 Red. masses --      5.3922                 5.7037                 1.0610
 Frc consts  --      8.5846                 9.2869                 5.9015
 IR Inten    --      1.9037                 4.4393                41.3181

                     61                     62                     63
                      A                      A                      A
 Frequencies --   3083.2334              3113.1655              3124.4507
 Red. masses --      1.0379                 1.0913                 1.0322
 Frc consts  --      5.8131                 6.2316                 5.9370
 IR Inten    --     12.9533                 0.7293                11.7883

                     64                     65                     66
                      A                      A                      A
 Frequencies --   3128.5176              3156.3152              3164.6951
 Red. masses --      1.0951                 1.1010                 1.1023
 Frc consts  --      6.3153                 6.4623                 6.5047
 IR Inten    --     39.8380                39.1030                21.2624

                     67                     68                     69
                      A                      A                      A
 Frequencies --   3195.4554              3199.8456              3209.1151
 Red. masses --      1.0868                 1.0868                 1.0904
 Frc consts  --      6.5385                 6.5563                 6.6161
 IR Inten    --     13.8285                 4.0234                17.1467

                     70                     71                     72
                      A                      A                      A
 Frequencies --   3214.5799              3215.4728              3227.4235
 Red. masses --      1.1091                 1.0943                 1.0978
 Frc consts  --      6.7524                 6.6659                 6.7371
 IR Inten    --      7.6686                72.2409                29.2658

                     73                     74                     75
                      A                      A                      A
 Frequencies --   3233.1130              3369.8332              3423.6527
 Red. masses --      1.1076                 1.0601                 1.0907
 Frc consts  --      6.8212                 7.0927                 7.5324
 IR Inten    --      8.6879               130.9977               175.9668

 - Thermochemistry -
 -------------------
 Temperature   298.150 Kelvin.  Pressure   1.00000 Atm.
 Atom     1 has atomic number  6 and mass  12.00000

 Molecular mass:   150.12827 amu.
 Principal axes and moments of inertia in atomic units:
                           1         2         3
     Eigenvalues --   640.586993550.896633764.16969
           X            1.00000   0.00164   0.00077
           Y           -0.00164   1.00000  -0.00194
           Z           -0.00077   0.00194   1.00000
 This molecule is an asymmetric top.
 Rotational symmetry number  1.
 Warning -- assumption of classical behavior for rotation
           may cause significant error
 Rotational temperatures (Kelvin)      0.13521     0.02439     0.02301
 Rotational constants (GHZ):           2.81732     0.50825     0.47945
 Zero-point vibrational energy     652029.5 (Joules/Mol)
                                  155.83879 (Kcal/Mol)
 Warning -- explicit consideration of  15 degrees of freedom as
           vibrations may cause significant error
 Vibrational temperatures:     73.18   123.80   139.19   202.40   318.29
          (Kelvin)            346.10   367.48   411.61   495.12   534.25
                              602.21   625.06   647.48   769.41   861.61
                              912.63  1030.61  1098.50  1165.49  1202.06
                             1242.76  1246.80  1296.55  1336.68  1353.53
                             1409.93  1449.65  1463.28  1475.19  1516.82
                             1523.29  1567.38  1583.54  1635.28  1694.30
                             1710.96  1735.41  1753.95  1779.29  1839.95
                             1949.10  1957.30  1963.59  1976.96  2024.33
                             2068.30  2076.75  2112.96  2156.17  2165.72
                             2173.71  2178.76  2187.60  2211.69  2216.60
                             2221.43  2336.69  2365.07  2391.80  4420.70
                             4436.09  4479.15  4495.39  4501.24  4541.23
                             4553.29  4597.55  4603.86  4617.20  4625.06
                             4626.35  4643.54  4651.73  4848.44  4925.87

 Zero-point correction=                           0.248345 (Hartree/Particle)
 Thermal correction to Energy=                    0.259244
 Thermal correction to Enthalpy=                  0.260188
 Thermal correction to Gibbs Free Energy=         0.211605
 Sum of electronic and zero-point Energies=           -445.082039
 Sum of electronic and thermal Energies=              -445.071139
 Sum of electronic and thermal Enthalpies=            -445.070195
 Sum of electronic and thermal Free Energies=         -445.118778

                     E (Thermal)             CV                S
                      KCal/Mol        Cal/Mol-Kelvin    Cal/Mol-Kelvin
 Total                  162.678             42.164            102.252
 Electronic               0.000              0.000              0.000
 Translational            0.889              2.981             40.929
 Rotational               0.889              2.981             30.527
 Vibrational            160.901             36.203             30.795
 Vibration     1          0.595              1.977              4.784
 Vibration     2          0.601              1.959              3.748
 Vibration     3          0.603              1.952              3.519
 Vibration     4          0.615              1.913              2.795
 Vibration     5          0.648              1.809              1.949
 Vibration     6          0.658              1.778              1.799
 Vibration     7          0.666              1.754              1.693
 Vibration     8          0.684              1.700              1.497
 Vibration     9          0.723              1.587              1.193
 Vibration    10          0.743              1.531              1.074
 Vibration    11          0.781              1.430              0.897
 Vibration    12          0.795              1.395              0.844
 Vibration    13          0.809              1.361              0.796
 Vibration    14          0.890              1.173              0.577
 Vibration    15          0.957              1.034              0.452

 Optimization completed.
    -- Stationary point found.
 Normal termination of Gaussian 16 at Sun Jul 18 14:36:40 2021.

 ----------------------------------------------------------------------
 #p b3lyp/6-31G(d) scrf=(iefpcm,read,solvent=water) geom=allcheck guess
 =read
 ----------------------------------------------------------------------

 Structure from the checkpoint file:  "SET_328_BBB30_conf1.geo_105_180_195.chk"
 --------------------------------------------
 SET_328_BBB30_conf1.geo_105_180_195 geometry
 --------------------------------------------
 Charge =  1 Multiplicity = 1

 SCF Done:  E(RB3LYP) =  -445.330383523     A.U. after    1 cycles
 Normal termination of Gaussian 16 at Sun Jul 18 14:36:46 2021.

 -----------------------------
 #p B3LYP/6-31G* geom=allcheck
 -----------------------------

 Structure from the checkpoint file:  "SET_328_BBB30_conf1.geo_105_180_195.chk"
 --------------------------------------------
 SET_328_BBB30_conf1.geo_105_180_195 geometry
 --------------------------------------------
 Charge =  1 Multiplicity = 1

 SCF Done:  E(RB3LYP) =  -445.225933966     A.U. after   13 cycles

 The electronic state is 1-A.
 Alpha  occ. eigenvalues --  -14.64066 -10.41669 -10.41494 -10.34883 -10.34068
 Alpha  occ. eigenvalues --  -10.31709 -10.30155 -10.30037 -10.29483 -10.29404
 Alpha  occ. eigenvalues --  -10.29227  -1.18903  -0.98241  -0.95150  -0.89889
 Alpha  occ. eigenvalues --   -0.88385  -0.85151  -0.82652  -0.79246  -0.76544
 Alpha  occ. eigenvalues --   -0.71521  -0.70397  -0.67975  -0.66847  -0.62579
 Alpha  occ. eigenvalues --   -0.61691  -0.59548  -0.58910  -0.57699  -0.56547
 Alpha  occ. eigenvalues --   -0.55151  -0.53984  -0.52614  -0.52278  -0.52066
 Alpha  occ. eigenvalues --   -0.51014  -0.46582  -0.45371  -0.44811  -0.35680
 Alpha  occ. eigenvalues --   -0.35583
 Alpha virt. eigenvalues --   -0.14215  -0.11617  -0.10923  -0.09369  -0.05978
 Alpha virt. eigenvalues --   -0.05588  -0.04140  -0.02454  -0.01982  -0.00686
 Alpha virt. eigenvalues --   -0.00256   0.00601   0.01603   0.01793   0.03932

 Mulliken charges:
               1
     1  C   -0.356530
     2  H    0.235541
     3  H    0.239905
     4  H    0.231024
     5  N   -0.601353
     6  H    0.410538
     7  C   -0.019886
     8  C   -0.477685
     9  H    0.184800
    10  H    0.231351
    11  H    0.173080
    12  H    0.206691
    13  C   -0.387529
    14  H    0.168556
    15  H    0.172711
    16  C    0.167206
    17  C   -0.186053
    18  H    0.137497
    19  C   -0.124332
    20  H    0.162965
    21  C   -0.122155
    22  H    0.165778
    23  C   -0.124005
    24  H    0.161287
    25  C   -0.182653
    26  H    0.125174
    27  H    0.408075
 Sum of Mulliken charges =   1.00000

 Dipole moment (field-independent basis, Debye):
    X=            -10.7189    Y=             -0.6277    Z=              0.9199  Tot=             10.7766
 Quadrupole moment (field-independent basis, Debye-Ang):
   XX=            -12.5638   YY=            -57.0411   ZZ=            -62.3891
   XY=              3.5276   XZ=             -6.1884   YZ=              0.7821

 Normal termination of Gaussian 16 at Sun Jul 18 14:37:07 2021.
 Gaussian 16:  ES64L-G16RevB.01 20-Dec-2017

 --------------------------------------------------------
 #p mp2/aug-cc-pVDZ scf=tight maxdisk=180GB geom=allcheck
 --------------------------------------------------------

 Structure from the checkpoint file:  "SET_328_BBB30_conf1.geo_105_180_195.chk"
 --------------------------------------------
 SET_328_BBB30_conf1.geo_105_180_195 geometry
 --------------------------------------------
 Charge =  1 Multiplicity = 1

                         Standard orientation:
 ---------------------------------------------------------------------
 Center     Atomic      Atomic             Coordinates (Angstroms)
 Number     Number       Type             X           Y           Z
 ---------------------------------------------------------------------
      1          6           0       -4.068007   -0.439849   -0.453314
      2          1           0       -3.829533   -1.291823   -1.087794
      3          1           0       -4.195329    0.457093   -1.053250
      4          1           0       -4.971290   -0.637712    0.120412
      5          7           0       -2.942618   -0.233314    0.508588
      6          1           0       -2.908480   -1.045983    1.142457
      7          6           0       -1.570848   -0.041031   -0.114977
      8          6           0       -1.564844    1.211843   -0.983114
      9          1           0       -2.266342    1.136798   -1.816168
     10          1           0       -0.566159    1.351632   -1.402579
     11          1           0       -1.812167    2.100451   -0.393703
     12          1           0       -1.418743   -0.931802   -0.728407
     13          6           0       -0.528068   -0.008914    1.021773
     14          1           0       -0.703054   -0.862185    1.686395
     15          1           0       -0.674587    0.899833    1.614807
     16          6           0        0.897072   -0.058621    0.511025
     17          6           0        1.696580    1.091360    0.503660
     18          1           0        1.287302    2.024255    0.878667
     19          6           0        3.008930    1.047027    0.027057
     20          1           0        3.614542    1.947584    0.031132
     21          6           0        3.539649   -0.152510   -0.449831
     22          1           0        4.559044   -0.189872   -0.819178
     23          6           0        2.752586   -1.306630   -0.443565
     24          1           0        3.159696   -2.245231   -0.805985
     25          6           0        1.443192   -1.258876    0.034623
     26          1           0        0.842457   -2.163550    0.045069
     27          1           0       -3.156488    0.580917    1.107973
 ---------------------------------------------------------------------

 SCF Done:  E(RHF) =  -442.292227891     A.U. after   15 cycles
