 Gaussian 16, Revision B.01,

 -----------------------------------------------------------
 #p b3lyp/6-31G(d) opt freq scrf=(iefpcm,read,solvent=water)
 -----------------------------------------------------------

 ---------------------------------------------
 SET_328_BBB292_conf1.geo_255_060_255 geometry
 ---------------------------------------------
 Symbolic Z-matrix:
 Charge =  1 Multiplicity = 1

 SCF Done:  E(RB3LYP) =  -705.676484477     A.U. after   13 cycles
 SCF Done:  E(RB3LYP) =  -705.706056924     A.U. after   11 cycles
 SCF Done:  E(RB3LYP) =  -705.713601391     A.U. after   11 cycles
 SCF Done:  E(RB3LYP) =  -705.715695394     A.U. after   11 cycles
 SCF Done:  E(RB3LYP) =  -705.717230825     A.U. after   11 cycles
 SCF Done:  E(RB3LYP) =  -705.717862062     A.U. after   11 cycles
 SCF Done:  E(RB3LYP) =  -705.717941117     A.U. after   10 cycles
 SCF Done:  E(RB3LYP) =  -705.718244126     A.U. after   10 cycles
 SCF Done:  E(RB3LYP) =  -705.718334851     A.U. after   10 cycles
 SCF Done:  E(RB3LYP) =  -705.718338522     A.U. after    9 cycles
 SCF Done:  E(RB3LYP) =  -705.718339956     A.U. after    8 cycles
 SCF Done:  E(RB3LYP) =  -705.718340988     A.U. after    8 cycles
 SCF Done:  E(RB3LYP) =  -705.718341674     A.U. after    7 cycles
 Optimization completed.
    -- Stationary point found.
 Normal termination of Gaussian 16 at Sun Jul 18 13:57:10 2021.

 --------------------------------------------------------------------
 #P Geom=AllCheck Guess=TCheck SCRF=Check GenChk RB3LYP/6-31G(d) Freq
 --------------------------------------------------------------------

 Structure from the checkpoint file:  "SET_328_BBB292_conf1.geo_255_060_255.chk"
 ---------------------------------------------
 SET_328_BBB292_conf1.geo_255_060_255 geometry
 ---------------------------------------------
 Charge =  1 Multiplicity = 1

 SCF Done:  E(RB3LYP) =  -705.718341674     A.U. after    1 cycles

  Exact polarizability: 180.630  10.618 151.399  29.496 -25.940 103.553
 Approx polarizability: 203.505  14.320 177.461  36.044 -34.516 120.425

                      1                      2                      3
                      A                      A                      A
 Frequencies --     39.3389                45.6730                69.7136
 Red. masses --      5.1782                 8.2482                 7.7938
 Frc consts  --      0.0047                 0.0101                 0.0223
 IR Inten    --      4.2240                 1.2992                 1.0687

                      4                      5                      6
                      A                      A                      A
 Frequencies --    102.2949               149.2883               209.1078
 Red. masses --      4.3806                 5.9582                 5.5476
 Frc consts  --      0.0270                 0.0782                 0.1429
 IR Inten    --     15.6043                 2.1445                 1.8351

                      7                      8                      9
                      A                      A                      A
 Frequencies --    268.5317               274.5167               294.5813
 Red. masses --      5.2227                 3.9054                 2.0620
 Frc consts  --      0.2219                 0.1734                 0.1054
 IR Inten    --     12.6291                30.7552                28.8519

                     10                     11                     12
                      A                      A                      A
 Frequencies --    298.5124               312.4889               328.4728
 Red. masses --      2.3900                 1.3305                 4.3846
 Frc consts  --      0.1255                 0.0766                 0.2787
 IR Inten    --     16.7141               148.7334                43.0804

                     13                     14                     15
                      A                      A                      A
 Frequencies --    349.1556               375.8364               396.5492
 Red. masses --      1.1741                 1.1306                 4.0967
 Frc consts  --      0.0843                 0.0941                 0.3796
 IR Inten    --      2.7834               170.5730                20.9408

                     16                     17                     18
                      A                      A                      A
 Frequencies --    456.3189               469.0800               478.2885
 Red. masses --      4.9689                 3.3070                 4.1424
 Frc consts  --      0.6096                 0.4287                 0.5583
 IR Inten    --     41.6198                 0.3615                30.4416

                     19                     20                     21
                      A                      A                      A
 Frequencies --    562.2795               591.2204               596.5321
 Red. masses --      4.5263                 3.0563                 1.6114
 Frc consts  --      0.8431                 0.6294                 0.3378
 IR Inten    --     13.2739                34.1383               130.8489

                     22                     23                     24
                      A                      A                      A
 Frequencies --    627.7546               647.4146               706.7871
 Red. masses --      3.6086                 3.9913                 5.6523
 Frc consts  --      0.8379                 0.9857                 1.6636
 IR Inten    --     16.3671                44.4842                 1.5610

                     25                     26                     27
                      A                      A                      A
 Frequencies --    759.1761               767.2171               800.6659
 Red. masses --      4.2565                 4.3982                 2.5032
 Frc consts  --      1.4454                 1.5253                 0.9455
 IR Inten    --     24.6356                 6.6381                19.7939

                     28                     29                     30
                      A                      A                      A
 Frequencies --    803.2313               821.6492               877.4016
 Red. masses --      4.7972                 1.5840                 1.3844
 Frc consts  --      1.8236                 0.6300                 0.6279
 IR Inten    --     20.5117                46.0581                41.4217

                     31                     32                     33
                      A                      A                      A
 Frequencies --    925.7337               940.4044               964.6667
 Red. masses --      1.3078                 1.9489                 2.0592
 Frc consts  --      0.6603                 1.0155                 1.1290
 IR Inten    --      1.3515                39.8530                11.0975

                     34                     35                     36
                      A                      A                      A
 Frequencies --    985.0312              1048.6256              1105.7330
 Red. masses --      2.7112                 3.4378                 1.6220
 Frc consts  --      1.5499                 2.2273                 1.1685
 IR Inten    --     10.1903                50.6853                30.5481

                     37                     38                     39
                      A                      A                      A
 Frequencies --   1134.5512              1163.6157              1184.1758
 Red. masses --      2.1080                 1.4460                 1.4200
 Frc consts  --      1.5987                 1.1536                 1.1732
 IR Inten    --    181.2476                60.3157                29.6226

                     40                     41                     42
                      A                      A                      A
 Frequencies --   1202.2064              1204.1834              1221.8093
 Red. masses --      2.2293                 1.3454                 1.7011
 Frc consts  --      1.8983                 1.1494                 1.4962
 IR Inten    --    336.2672                91.9123               353.5948

                     43                     44                     45
                      A                      A                      A
 Frequencies --   1245.2259              1303.6398              1329.5550
 Red. masses --      1.2933                 2.1809                 3.2899
 Frc consts  --      1.1816                 2.1837                 3.4265
 IR Inten    --    139.7241                86.1244               206.2041

                     46                     47                     48
                      A                      A                      A
 Frequencies --   1347.3180              1374.0783              1380.8445
 Red. masses --      1.5733                 1.3223                 1.5020
 Frc consts  --      1.6827                 1.4710                 1.6874
 IR Inten    --     29.5923                25.7627                14.7226

                     49                     50                     51
                      A                      A                      A
 Frequencies --   1394.5577              1408.1228              1467.0091
 Red. masses --      1.3823                 3.0543                 2.1767
 Frc consts  --      1.5839                 3.5682                 2.7600
 IR Inten    --     22.9405               105.9701                46.0832

                     52                     53                     54
                      A                      A                      A
 Frequencies --   1491.8040              1514.9952              1526.5799
 Red. masses --      3.1200                 1.1114                 1.1689
 Frc consts  --      4.0909                 1.5029                 1.6049
 IR Inten    --     53.3940                 7.5974               280.0446

                     55                     56                     57
                      A                      A                      A
 Frequencies --   1576.4065              1628.2504              1655.6900
 Red. masses --      3.0827                 1.0501                 2.5518
 Frc consts  --      4.5136                 1.6403                 4.1215
 IR Inten    --    156.7476                86.0773                10.1512

                     58                     59                     60
                      A                      A                      A
 Frequencies --   1658.5003              1673.5783              1809.7562
 Red. masses --      1.3779                 5.6481                10.1267
 Frc consts  --      2.2330                 9.3206                19.5415
 IR Inten    --    141.2848                19.7114               526.1930

                     61                     62                     63
                      A                      A                      A
 Frequencies --   3079.5913              3126.0813              3168.8883
 Red. masses --      1.0593                 1.1048                 1.0876
 Frc consts  --      5.9192                 6.3611                 6.4345
 IR Inten    --     37.0483                16.4472                 5.9050

                     64                     65                     66
                      A                      A                      A
 Frequencies --   3205.9571              3206.1511              3221.5083
 Red. masses --      1.0895                 1.0880                 1.0945
 Frc consts  --      6.5976                 6.5895                 6.6923
 IR Inten    --     24.5947                22.5885                20.8698

                     67                     68                     69
                      A                      A                      A
 Frequencies --   3354.1521              3417.4742              3444.2521
 Red. masses --      1.0379                 1.0890                 1.0943
 Frc consts  --      6.8798                 7.4933                 7.6488
 IR Inten    --    172.0092               263.7322               254.9979

                     70                     71                     72
                      A                      A                      A
 Frequencies --   3626.8973              3714.3023              3722.4047
 Red. masses --      1.0647                 1.0663                 1.0663
 Frc consts  --      8.2521                 8.6670                 8.7050
 IR Inten    --    217.9588               237.8374               163.1805

 - Thermochemistry -
 -------------------
 Temperature   298.150 Kelvin.  Pressure   1.00000 Atm.
 Atom     1 has atomic number  7 and mass  14.00307

 Molecular mass:   198.07663 amu.
 Principal axes and moments of inertia in atomic units:
                           1         2         3
     Eigenvalues --  1320.158174892.868605390.86550
           X            0.99990   0.01079   0.00916
           Y           -0.01060   0.99974  -0.02042
           Z           -0.00938   0.02032   0.99975
 This molecule is an asymmetric top.
 Rotational symmetry number  1.
 Warning -- assumption of classical behavior for rotation
           may cause significant error
 Rotational temperatures (Kelvin)      0.06561     0.01770     0.01607
 Rotational constants (GHZ):           1.36706     0.36885     0.33478
 Zero-point vibrational energy     560052.0 (Joules/Mol)
                                  133.85565 (Kcal/Mol)
 Warning -- explicit consideration of  21 degrees of freedom as
           vibrations may cause significant error
 Vibrational temperatures:     56.60    65.71   100.30   147.18   214.79
          (Kelvin)            300.86   386.36   394.97   423.84   429.49
                              449.60   472.60   502.36   540.74   570.55
                              656.54   674.90   688.15   808.99   850.63
                              858.28   903.20   931.49  1016.91  1092.29
                             1103.85  1151.98  1155.67  1182.17  1262.39
                             1331.92  1353.03  1387.94  1417.24  1508.74
                             1590.90  1632.37  1674.18  1703.76  1729.71
                             1732.55  1757.91  1791.60  1875.65  1912.93
                             1938.49  1976.99  1986.73  2006.46  2025.97
                             2110.70  2146.37  2179.74  2196.41  2268.10
                             2342.69  2382.17  2386.21  2407.91  2603.84
                             4430.84  4497.73  4559.32  4612.66  4612.94
                             4635.03  4825.88  4916.98  4955.51  5218.30
                             5344.05  5355.71

 Zero-point correction=                           0.213313 (Hartree/Particle)
 Thermal correction to Energy=                    0.226686
 Thermal correction to Enthalpy=                  0.227631
 Thermal correction to Gibbs Free Energy=         0.172877
 Sum of electronic and zero-point Energies=           -705.505029
 Sum of electronic and thermal Energies=              -705.491655
 Sum of electronic and thermal Enthalpies=            -705.490711
 Sum of electronic and thermal Free Energies=         -705.545464

                     E (Thermal)             CV                S
                      KCal/Mol        Cal/Mol-Kelvin    Cal/Mol-Kelvin
 Total                  142.248             51.183            115.238
 Electronic               0.000              0.000              0.000
 Translational            0.889              2.981             41.755
 Rotational               0.889              2.981             31.921
 Vibrational            140.470             45.221             41.561
 Vibration     1          0.594              1.981              5.292
 Vibration     2          0.595              1.979              4.996
 Vibration     3          0.598              1.969              4.161
 Vibration     4          0.604              1.947              3.410
 Vibration     5          0.618              1.903              2.681
 Vibration     6          0.642              1.827              2.051
 Vibration     7          0.673              1.731              1.606
 Vibration     8          0.677              1.720              1.568
 Vibration     9          0.689              1.684              1.448
 Vibration    10          0.692              1.676              1.425
 Vibration    11          0.701              1.650              1.349
 Vibration    12          0.712              1.619              1.268
 Vibration    13          0.726              1.577              1.170
 Vibration    14          0.747              1.522              1.056
 Vibration    15          0.763              1.478              0.975
 Vibration    16          0.815              1.347              0.777
 Vibration    17          0.826              1.319              0.740
 Vibration    18          0.835              1.298              0.715
 Vibration    19          0.918              1.113              0.519
 Vibration    20          0.949              1.050              0.465
 Vibration    21          0.954              1.039              0.456

                           ! Non-Optimized Parameters !
 Normal termination of Gaussian 16 at Sun Jul 18 14:03:45 2021.

 ----------------------------------------------------------------------
 #p b3lyp/6-31G(d) scrf=(iefpcm,read,solvent=water) geom=allcheck guess
 =read
 ----------------------------------------------------------------------

 Structure from the checkpoint file:  "SET_328_BBB292_conf1.geo_255_060_255.chk"
 ---------------------------------------------
 SET_328_BBB292_conf1.geo_255_060_255 geometry
 ---------------------------------------------
 Charge =  1 Multiplicity = 1

 SCF Done:  E(RB3LYP) =  -705.718341674     A.U. after    1 cycles
 Normal termination of Gaussian 16 at Sun Jul 18 14:03:52 2021.

 -----------------------------
 #p B3LYP/6-31G* geom=allcheck
 -----------------------------

 Structure from the checkpoint file:  "SET_328_BBB292_conf1.geo_255_060_255.chk"
 ---------------------------------------------
 SET_328_BBB292_conf1.geo_255_060_255 geometry
 ---------------------------------------------
 Charge =  1 Multiplicity = 1

 SCF Done:  E(RB3LYP) =  -705.578703360     A.U. after   14 cycles
 Normal termination of Gaussian 16 at Sun Jul 18 14:04:20 2021.
 Gaussian 16:  ES64L-G16RevB.01 20-Dec-2017

 --------------------------------------------------------
 #p mp2/aug-cc-pVDZ scf=tight maxdisk=180GB geom=allcheck
 --------------------------------------------------------

 Structure from the checkpoint file:  "SET_328_BBB292_conf1.geo_255_060_255.chk"
 ---------------------------------------------
 SET_328_BBB292_conf1.geo_255_060_255 geometry
 ---------------------------------------------
 Charge =  1 Multiplicity = 1

                         Standard orientation:
 ---------------------------------------------------------------------
 Center     Atomic      Atomic             Coordinates (Angstroms)
 Number     Number       Type             X           Y           Z
 ---------------------------------------------------------------------
      1          7           0       -3.723696   -0.923604   -0.410599
      2          1           0       -4.448653   -0.823092    0.322258
      3          1           0       -3.775351   -1.890348   -0.771019
      4          6           0       -2.354611   -0.619214    0.122776
      5          6           0       -2.387573    0.829171    0.598738
      6          8           0       -1.507345    1.045957    1.571315
      7          1           0       -1.527971    1.997574    1.811399
      8          8           0       -3.128258    1.663065    0.117406
      9          1           0       -2.183819   -1.287109    0.966346
     10          6           0       -1.311645   -0.866182   -0.995360
     11          1           0       -1.530693   -0.191292   -1.827860
     12          1           0       -1.468274   -1.888810   -1.353661
     13          6           0        0.123594   -0.689718   -0.551239
     14          6           0        0.827771    0.472916   -0.895954
     15          1           0        0.338793    1.241522   -1.487281
     16          6           0        2.149618    0.662997   -0.500198
     17          8           0        2.878866    1.773776   -0.809139
     18          1           0        2.328866    2.383710   -1.330260
     19          6           0        2.797746   -0.332026    0.259608
     20          8           0        4.092405   -0.091761    0.614593
     21          1           0        4.426806   -0.845232    1.132941
     22          6           0        2.101471   -1.491324    0.598307
     23          1           0        2.604413   -2.259849    1.174817
     24          6           0        0.775550   -1.672521    0.196298
     25          1           0        0.259238   -2.588171    0.465882
     26          1           0       -3.974341   -0.276569   -1.180628
 ---------------------------------------------------------------------

 SCF Done:  E(RHF) =  -701.588272240     A.U. after   16 cycles
 E2 =    -0.2200511669D+01 EUMP2 =    -0.70378878390905D+03

 The electronic state is 1-A.
 Alpha  occ. eigenvalues --  -20.78284 -20.73305 -20.69835 -20.69547 -15.90194
 Alpha  occ. eigenvalues --  -11.57193 -11.50063 -11.42148 -11.41760 -11.41584
 Alpha  occ. eigenvalues --  -11.37509 -11.36106 -11.35995 -11.35489  -1.63538
 Alpha  occ. eigenvalues --   -1.53756  -1.51650  -1.50758  -1.49050  -1.28276
 Alpha  occ. eigenvalues --   -1.23296  -1.14726  -1.12742  -1.07386  -1.00051
 Alpha  occ. eigenvalues --   -0.97900  -0.96894  -0.95704  -0.91539  -0.87793
 Alpha  occ. eigenvalues --   -0.85829  -0.84422  -0.83207  -0.82827  -0.80831
 Alpha  occ. eigenvalues --   -0.79059  -0.75401  -0.73560  -0.72588  -0.72381
 Alpha  occ. eigenvalues --   -0.70887  -0.70599  -0.69811  -0.65893  -0.65203
 Alpha  occ. eigenvalues --   -0.64540  -0.62760  -0.62488  -0.61923  -0.58152
 Alpha  occ. eigenvalues --   -0.44778  -0.41214
 Alpha virt. eigenvalues --   -0.10834  -0.07438  -0.07047  -0.05892  -0.04232
 Alpha virt. eigenvalues --   -0.03903  -0.03570  -0.03455  -0.02717  -0.01936
 Alpha virt. eigenvalues --   -0.01308  -0.00859  -0.00128   0.00089   0.00213

 Mulliken charges:
               1
     1  N   -0.558434
     2  H    0.199337
     3  H    0.235829
     4  C    0.795549
     5  C    1.148514
     6  O   -0.731522
     7  H    0.255692
     8  O   -0.759847
     9  H   -0.226549
    10  C    0.315899
    11  H   -0.157900
    12  H   -0.146734
    13  C    1.075338
    14  C    0.739288
    15  H   -0.806383
    16  C    0.340332
    17  O   -0.897169
    18  H    0.200343
    19  C    1.002820
    20  O   -0.921002
    21  H    0.213861
    22  C    0.446175
    23  H   -0.607501
    24  C    0.253336
    25  H   -0.706643
    26  H    0.297372
 Sum of Mulliken charges =   1.00000

 Dipole moment (field-independent basis, Debye):
    X=            -13.2257    Y=             -5.2357    Z=             -0.3602  Tot=             14.2289
 Quadrupole moment (field-independent basis, Debye-Ang):
   XX=            -27.8718   YY=            -64.2463   ZZ=            -71.6925
   XY=             12.1434   XZ=              8.3580   YZ=             -1.5267

 Normal termination of Gaussian 16 at Sun Jul 18 14:19:10 2021.
