 Gaussian 16, Revision B.01,

 -----------------------------------------------------------
 #p b3lyp/6-31G(d) opt freq scrf=(iefpcm,read,solvent=water)
 -----------------------------------------------------------

 ---------------------------------------------
 SET_328_BBB321_conf1.geo_180_150_045 geometry
 ---------------------------------------------
 Symbolic Z-matrix:
 Charge =  1 Multiplicity = 1

 SCF Done:  E(RB3LYP) =  -1212.55637130     A.U. after   17 cycles
 SCF Done:  E(RB3LYP) =  -1212.66950541     A.U. after   12 cycles
 SCF Done:  E(RB3LYP) =  -1212.76096721     A.U. after   12 cycles
 SCF Done:  E(RB3LYP) =  -1212.79511023     A.U. after   13 cycles
 SCF Done:  E(RB3LYP) =  -1212.81237028     A.U. after   12 cycles
 SCF Done:  E(RB3LYP) =  -1212.81715663     A.U. after   11 cycles
 SCF Done:  E(RB3LYP) =  -1212.82032825     A.U. after   11 cycles
 SCF Done:  E(RB3LYP) =  -1212.82010373     A.U. after   13 cycles
 SCF Done:  E(RB3LYP) =  -1212.82244520     A.U. after   11 cycles
 SCF Done:  E(RB3LYP) =  -1212.82153680     A.U. after   13 cycles
 SCF Done:  E(RB3LYP) =  -1212.82295212     A.U. after    8 cycles
 SCF Done:  E(RB3LYP) =  -1212.82295359     A.U. after    7 cycles
 SCF Done:  E(RB3LYP) =  -1212.82295358     A.U. after    7 cycles
 SCF Done:  E(RB3LYP) =  -1212.82295355     A.U. after    7 cycles
 SCF Done:  E(RB3LYP) =  -1212.82295354     A.U. after    7 cycles
 SCF Done:  E(RB3LYP) =  -1212.82295350     A.U. after    7 cycles
 Optimization completed.
    -- Stationary point found.
 Normal termination of Gaussian 16 at Sun Jul 18 15:59:38 2021.

 --------------------------------------------------------------------
 #P Geom=AllCheck Guess=TCheck SCRF=Check GenChk RB3LYP/6-31G(d) Freq
 --------------------------------------------------------------------

 Structure from the checkpoint file:  "SET_328_BBB321_conf1.geo_180_150_045.chk"
 ---------------------------------------------
 SET_328_BBB321_conf1.geo_180_150_045 geometry
 ---------------------------------------------
 Charge =  1 Multiplicity = 1

 SCF Done:  E(RB3LYP) =  -1212.82295350     A.U. after    1 cycles

  Exact polarizability: 357.708   4.358 306.178   0.123   0.506  97.774
 Approx polarizability: 365.897   9.026 367.593   0.069   0.697 116.051

                      1                      2                      3
                      A                      A                      A
 Frequencies --     26.7466                50.2600                51.0429
 Red. masses --      4.9123                 1.8890                 4.0499
 Frc consts  --      0.0021                 0.0028                 0.0062
 IR Inten    --      4.2612                14.2998                 8.7004

                      4                      5                      6
                      A                      A                      A
 Frequencies --     59.0073                72.1039                86.4153
 Red. masses --      2.6765                 6.5222                 4.7623
 Frc consts  --      0.0055                 0.0200                 0.0210
 IR Inten    --      9.2667                 6.9278                24.6400

                      7                      8                      9
                      A                      A                      A
 Frequencies --     89.7615               109.3344               122.5888
 Red. masses --      5.3164                 2.8058                 5.4932
 Frc consts  --      0.0252                 0.0198                 0.0486
 IR Inten    --     14.7724                 9.1361                 9.5171

                     10                     11                     12
                      A                      A                      A
 Frequencies --    134.9064               209.4978               253.4317
 Red. masses --      1.2089                 5.1218                 4.2557
 Frc consts  --      0.0130                 0.1324                 0.1610
 IR Inten    --    334.0149                14.8032                22.3866

                     13                     14                     15
                      A                      A                      A
 Frequencies --    265.6006               267.8792               278.9659
 Red. masses --      4.2330                 5.0139                 4.1780
 Frc consts  --      0.1759                 0.2120                 0.1916
 IR Inten    --      7.5361                 7.5560                20.4903

                     16                     17                     18
                      A                      A                      A
 Frequencies --    320.9991               339.1112               349.8968
 Red. masses --      1.5222                 5.2690                 4.6016
 Frc consts  --      0.0924                 0.3570                 0.3319
 IR Inten    --    250.7180                48.5667                 4.2201

                     19                     20                     21
                      A                      A                      A
 Frequencies --    353.8947               388.6035               400.9460
 Red. masses --      7.0816                 4.7426                 1.0496
 Frc consts  --      0.5226                 0.4220                 0.0994
 IR Inten    --      4.9818                 0.1545                85.1179

                     22                     23                     24
                      A                      A                      A
 Frequencies --    452.7974               491.4777               535.9282
 Red. masses --      3.5060                 4.8533                 2.4519
 Frc consts  --      0.4235                 0.6907                 0.4149
 IR Inten    --      1.5392                 1.0136                73.0281

                     25                     26                     27
                      A                      A                      A
 Frequencies --    543.8498               552.4766               566.6085
 Red. masses --      3.7534                 2.4998                 2.0457
 Frc consts  --      0.6541                 0.4496                 0.3869
 IR Inten    --     48.9383                 2.5025               168.6184

                     28                     29                     30
                      A                      A                      A
 Frequencies --    588.5007               607.3414               618.3352
 Red. masses --      1.7549                 2.4579                 8.7600
 Frc consts  --      0.3581                 0.5342                 1.9733
 IR Inten    --     13.0815                50.6797                 2.6981

                     31                     32                     33
                      A                      A                      A
 Frequencies --    640.4369               652.1491               674.0274
 Red. masses --      1.6155                 1.2028                 5.7970
 Frc consts  --      0.3904                 0.3014                 1.5517
 IR Inten    --     36.3385                 9.2312                 5.9197

                     34                     35                     36
                      A                      A                      A
 Frequencies --    692.4539               697.0118               704.9164
 Red. masses --      6.2118                 3.8893                 2.8030
 Frc consts  --      1.7549                 1.1133                 0.8206
 IR Inten    --     19.3324                 2.0769                 2.8227

                     37                     38                     39
                      A                      A                      A
 Frequencies --    710.7925               746.1364               814.9317
 Red. masses --      2.2340                 1.7791                 1.6690
 Frc consts  --      0.6650                 0.5835                 0.6530
 IR Inten    --      3.1366                84.5849                35.6064

                     40                     41                     42
                      A                      A                      A
 Frequencies --    825.3497               864.5236               890.7005
 Red. masses --      6.2472                 6.2702                 4.6203
 Frc consts  --      2.5073                 2.7611                 2.1597
 IR Inten    --     36.7199                27.4633                17.2127

                     43                     44                     45
                      A                      A                      A
 Frequencies --    911.3585               926.0278               973.9449
 Red. masses --      1.4057                 1.4528                 5.8579
 Frc consts  --      0.6879                 0.7340                 3.2739
 IR Inten    --      3.0819                21.1492                11.0389

                     46                     47                     48
                      A                      A                      A
 Frequencies --    987.8123               993.0409              1008.1754
 Red. masses --      1.2767                 3.3600                 4.9912
 Frc consts  --      0.7340                 1.9522                 2.9890
 IR Inten    --      1.1266                 4.4875                13.4266

                     49                     50                     51
                      A                      A                      A
 Frequencies --   1014.1261              1046.2841              1067.7028
 Red. masses --      6.0743                 1.6297                 1.6834
 Frc consts  --      3.6807                 1.0511                 1.1307
 IR Inten    --      2.2614                57.9162                17.1197

                     52                     53                     54
                      A                      A                      A
 Frequencies --   1091.4369              1105.2794              1131.2693
 Red. masses --      1.5638                 1.5518                 1.5591
 Frc consts  --      1.0976                 1.1170                 1.1756
 IR Inten    --     14.3847                12.3427                14.5172

                     55                     56                     57
                      A                      A                      A
 Frequencies --   1139.1765              1200.2972              1206.2836
 Red. masses --      1.6691                 1.2151                 1.5048
 Frc consts  --      1.2762                 1.0314                 1.2901
 IR Inten    --      4.1367                 2.6735                 6.8950

                     58                     59                     60
                      A                      A                      A
 Frequencies --   1253.8980              1271.3704              1305.2857
 Red. masses --      3.2355                 3.6106                 2.1297
 Frc consts  --      2.9972                 3.4386                 2.1379
 IR Inten    --    278.1950                 5.1893               146.0365

                     61                     62                     63
                      A                      A                      A
 Frequencies --   1320.7202              1344.4492              1374.4766
 Red. masses --      1.9400                 4.2921                 3.8795
 Frc consts  --      1.9938                 4.5709                 4.3182
 IR Inten    --    166.1516                50.4050                46.9360

                     64                     65                     66
                      A                      A                      A
 Frequencies --   1427.9484              1476.7402              1492.7432
 Red. masses --      1.2616                 3.1433                 1.1339
 Frc consts  --      1.5157                 4.0388                 1.4887
 IR Inten    --     46.8527               372.7943                39.6060

                     67                     68                     69
                      A                      A                      A
 Frequencies --   1513.6713              1518.5703              1520.9331
 Red. masses --      1.3640                 1.8417                 1.8654
 Frc consts  --      1.8413                 2.5023                 2.5425
 IR Inten    --      8.1652               252.5676                68.3557

                     70                     71                     72
                      A                      A                      A
 Frequencies --   1546.1874              1570.0423              1591.7825
 Red. masses --      2.1557                 4.4771                 2.9271
 Frc consts  --      3.0365                 6.5024                 4.3698
 IR Inten    --    429.9152                 5.6526                84.5422

                     73                     74                     75
                      A                      A                      A
 Frequencies --   1608.8742              1637.8520              1645.9260
 Red. masses --      2.1936                 2.0090                 4.5543
 Frc consts  --      3.3455                 3.1753                 7.2693
 IR Inten    --    482.9262               890.3024                41.1017

                     76                     77                     78
                      A                      A                      A
 Frequencies --   1646.7270              1670.4514              1725.9077
 Red. masses --      1.3795                 3.7890                 2.7876
 Frc consts  --      2.2040                 6.2294                 4.8923
 IR Inten    --    600.7395               121.1829               831.8714

                     79                     80                     81
                      A                      A                      A
 Frequencies --   1744.7782              3086.7010              3155.9784
 Red. masses --      5.3217                 1.0380                 1.0986
 Frc consts  --      9.5451                 5.8269                 6.4469
 IR Inten    --    331.0247                 7.3258                14.0257

                     82                     83                     84
                      A                      A                      A
 Frequencies --   3181.5791              3205.8872              3219.8439
 Red. masses --      1.1049                 1.0872                 1.0936
 Frc consts  --      6.5898                 6.5833                 6.6799
 IR Inten    --     20.3646                12.4955                37.0392

                     85                     86                     87
                      A                      A                      A
 Frequencies --   3242.8771              3273.3832              3310.6711
 Red. masses --      1.0927                 1.0904                 1.0946
 Frc consts  --      6.7706                 6.8838                 7.0687
 IR Inten    --     11.9250                 5.3917                 8.4882

                     88                     89                     90
                      A                      A                      A
 Frequencies --   3480.7471              3549.0898              3562.3570
 Red. masses --      1.0541                 1.0502                 1.0767
 Frc consts  --      7.5246                 7.7939                 8.0504
 IR Inten    --    467.3818               205.2919               390.8090

                     91                     92                     93
                      A                      A                      A
 Frequencies --   3577.7598              3636.1678              3662.2885
 Red. masses --      1.0781                 1.1005                 1.1087
 Frc consts  --      8.1305                 8.5726                 8.7617
 IR Inten    --    111.7176               415.2515               260.5358

 - Thermochemistry -
 -------------------
 Temperature   298.150 Kelvin.  Pressure   1.00000 Atm.
 Atom     1 has atomic number  6 and mass  12.00000

 Molecular mass:   276.09191 amu.
 Principal axes and moments of inertia in atomic units:
                           1         2         3
     Eigenvalues --  2349.61966********************
           X            0.99998  -0.00595  -0.00019
           Y            0.00595   0.99998  -0.00199
           Z            0.00020   0.00199   1.00000
 This molecule is an asymmetric top.
 Rotational symmetry number  1.
 Warning -- assumption of classical behavior for rotation
           may cause significant error
 Rotational temperatures (Kelvin)      0.03686     0.00705     0.00602
 Rotational constants (GHZ):           0.76810     0.14698     0.12544
 Zero-point vibrational energy     683418.3 (Joules/Mol)
                                  163.34090 (Kcal/Mol)
 Warning -- explicit consideration of  30 degrees of freedom as
           vibrations may cause significant error
 Vibrational temperatures:     38.48    72.31    73.44    84.90   103.74
          (Kelvin)            124.33   129.15   157.31   176.38   194.10
                              301.42   364.63   382.14   385.42   401.37
                              461.85   487.91   503.42   509.18   559.11
                              576.87   651.47   707.13   771.08   782.48
                              794.89   815.22   846.72   873.83   889.65
                              921.45   938.30   969.78   996.29  1002.84
                             1014.22  1022.67  1073.52  1172.50  1187.49
                             1243.86  1281.52  1311.24  1332.35  1401.29
                             1421.24  1428.76  1450.54  1459.10  1505.37
                             1536.19  1570.33  1590.25  1627.64  1639.02
                             1726.96  1735.57  1804.08  1829.22  1878.01
                             1900.22  1934.36  1977.57  2054.50  2124.70
                             2147.72  2177.84  2184.88  2188.28  2224.62
                             2258.94  2290.22  2314.81  2356.50  2368.12
                             2369.27  2403.41  2483.20  2510.35  4441.07
                             4540.75  4577.58  4612.56  4632.64  4665.78
                             4709.67  4763.32  5008.02  5106.35  5125.44
                             5147.60  5231.63  5269.22

 Zero-point correction=                           0.260300 (Hartree/Particle)
 Thermal correction to Energy=                    0.278927
 Thermal correction to Enthalpy=                  0.279872
 Thermal correction to Gibbs Free Energy=         0.211912
 Sum of electronic and zero-point Energies=          -1212.562653
 Sum of electronic and thermal Energies=             -1212.544026
 Sum of electronic and thermal Enthalpies=           -1212.543082
 Sum of electronic and thermal Free Energies=        -1212.611042

                     E (Thermal)             CV                S
                      KCal/Mol        Cal/Mol-Kelvin    Cal/Mol-Kelvin
 Total                  175.030             69.766            143.034
 Electronic               0.000              0.000              0.000
 Translational            0.889              2.981             42.745
 Rotational               0.889              2.981             34.383
 Vibrational            173.252             63.804             65.905
 Vibration     1          0.593              1.984              6.057
 Vibration     2          0.595              1.977              4.807
 Vibration     3          0.595              1.977              4.777
 Vibration     4          0.596              1.974              4.490
 Vibration     5          0.598              1.967              4.095
 Vibration     6          0.601              1.959              3.740
 Vibration     7          0.602              1.956              3.665
 Vibration     8          0.606              1.942              3.281
 Vibration     9          0.610              1.930              3.059
 Vibration    10          0.613              1.918              2.875
 Vibration    11          0.642              1.826              2.048
 Vibration    12          0.665              1.757              1.707
 Vibration    13          0.671              1.736              1.625
 Vibration    14          0.673              1.732              1.610
 Vibration    15          0.679              1.712              1.540
 Vibration    16          0.706              1.633              1.305
 Vibration    17          0.719              1.597              1.216
 Vibration    18          0.727              1.575              1.167
 Vibration    19          0.730              1.567              1.149
 Vibration    20          0.757              1.495              1.005
 Vibration    21          0.767              1.468              0.959
 Vibration    22          0.811              1.355              0.787
 Vibration    23          0.847              1.269              0.680
 Vibration    24          0.891              1.171              0.574
 Vibration    25          0.899              1.153              0.557
 Vibration    26          0.908              1.134              0.539
 Vibration    27          0.923              1.103              0.511
 Vibration    28          0.946              1.056              0.470
 Vibration    29          0.966              1.016              0.437
 Vibration    30          0.978              0.993              0.419

                           ! Non-Optimized Parameters !
 Normal termination of Gaussian 16 at Sun Jul 18 16:10:59 2021.

 ----------------------------------------------------------------------
 #p b3lyp/6-31G(d) scrf=(iefpcm,read,solvent=water) geom=allcheck guess
 =read
 ----------------------------------------------------------------------

 Structure from the checkpoint file:  "SET_328_BBB321_conf1.geo_180_150_045.chk"
 ---------------------------------------------
 SET_328_BBB321_conf1.geo_180_150_045 geometry
 ---------------------------------------------
 Charge =  1 Multiplicity = 1

 SCF Done:  E(RB3LYP) =  -1212.82295350     A.U. after    1 cycles
 Normal termination of Gaussian 16 at Sun Jul 18 16:11:10 2021.

 -----------------------------
 #p B3LYP/6-31G* geom=allcheck
 -----------------------------

 Structure from the checkpoint file:  "SET_328_BBB321_conf1.geo_180_150_045.chk"
 ---------------------------------------------
 SET_328_BBB321_conf1.geo_180_150_045 geometry
 ---------------------------------------------
 Charge =  1 Multiplicity = 1

 SCF Done:  E(RB3LYP) =  -1212.69806775     A.U. after   17 cycles

 The electronic state is 1-A.
 Alpha  occ. eigenvalues --  -89.04977 -19.19060 -14.57505 -14.55999 -14.54553
 Alpha  occ. eigenvalues --  -14.47776 -14.45770 -10.52149 -10.43648 -10.36910
 Alpha  occ. eigenvalues --  -10.35085 -10.33736 -10.32559 -10.29823 -10.28179
 Alpha  occ. eigenvalues --  -10.28122 -10.27978 -10.27505 -10.26017  -8.11100
 Alpha  occ. eigenvalues --   -6.07533  -6.07134  -6.06762  -1.21322  -1.13060
 Alpha  occ. eigenvalues --   -1.10841  -1.08675  -1.07764  -1.02170  -0.94591
 Alpha  occ. eigenvalues --   -0.93442  -0.89889  -0.85634  -0.84335  -0.81800
 Alpha  occ. eigenvalues --   -0.80015  -0.78321  -0.78224  -0.73595  -0.71727
 Alpha  occ. eigenvalues --   -0.71057  -0.69066  -0.67856  -0.67041  -0.65634
 Alpha  occ. eigenvalues --   -0.63990  -0.63563  -0.61732  -0.58352  -0.56384
 Alpha  occ. eigenvalues --   -0.55989  -0.55320  -0.54117  -0.52786  -0.52548
 Alpha  occ. eigenvalues --   -0.51211  -0.49544  -0.48742  -0.48053  -0.47253
 Alpha  occ. eigenvalues --   -0.47111  -0.46187  -0.45736  -0.44110  -0.43782
 Alpha  occ. eigenvalues --   -0.42525  -0.41524  -0.39085  -0.36922  -0.32530
 Alpha  occ. eigenvalues --   -0.32448  -0.30483
 Alpha virt. eigenvalues --   -0.17678  -0.13706  -0.13329  -0.11228  -0.10256
 Alpha virt. eigenvalues --   -0.09261  -0.07497  -0.05303  -0.04657  -0.04521
 Alpha virt. eigenvalues --   -0.02778  -0.01900  -0.00738   0.00379   0.02692

 Mulliken charges:
               1
     1  C   -0.546129
     2  H    0.157657
     3  H    0.204683
     4  H    0.198886
     5  C    0.602421
     6  O   -0.496853
     7  N   -0.710394
     8  H    0.340422
     9  C    0.362785
    10  C   -0.184230
    11  C   -0.134381
    12  C   -0.165677
    13  H    0.119945
    14  H    0.149159
    15  H    0.145879
    16  C   -0.222761
    17  H    0.193577
    18  C    0.110587
    19  C    0.297643
    20  N   -0.553517
    21  C   -0.397791
    22  H    0.236146
    23  S    0.312705
    24  C    0.340707
    25  N   -0.688043
    26  C    0.852023
    27  N   -0.751256
    28  H    0.436823
    29  H    0.382281
    30  N   -0.761476
    31  H    0.392100
    32  H    0.394164
    33  H    0.381915
 Sum of Mulliken charges =   1.00000

 Dipole moment (field-independent basis, Debye):
    X=            -16.2055    Y=              4.0553    Z=              1.1957  Tot=             16.7479
 Quadrupole moment (field-independent basis, Debye-Ang):
   XX=             38.6535   YY=            -92.6721   ZZ=           -118.2453
   XY=              1.5498   XZ=             -8.0756   YZ=              4.3801

 Normal termination of Gaussian 16 at Sun Jul 18 16:12:00 2021.
 Gaussian 16:  ES64L-G16RevB.01 20-Dec-2017

 --------------------------------------------------------
 #p mp2/aug-cc-pVDZ scf=tight maxdisk=180GB geom=allcheck
 --------------------------------------------------------

 Structure from the checkpoint file:  "SET_328_BBB321_conf1.geo_180_150_045.chk"
 ---------------------------------------------
 SET_328_BBB321_conf1.geo_180_150_045 geometry
 ---------------------------------------------
 Charge =  1 Multiplicity = 1

                         Standard orientation:
 ---------------------------------------------------------------------
 Center     Atomic      Atomic             Coordinates (Angstroms)
 Number     Number       Type             X           Y           Z
 ---------------------------------------------------------------------
      1          6           0        6.302120   -0.838754    0.527655
      2          1           0        6.841995   -0.001208    0.082650
      3          1           0        6.670492   -1.774818    0.105664
      4          1           0        6.509147   -0.850053    1.601966
      5          6           0        4.803539   -0.765159    0.315324
      6          8           0        4.094607   -1.771353    0.371848
      7          7           0        4.322150    0.496436    0.090895
      8          1           0        5.013091    1.241097    0.074868
      9          6           0        2.991620    0.922320   -0.087199
     10          6           0        2.779429    2.299958   -0.273183
     11          6           0        1.488935    2.790062   -0.439052
     12          6           0        0.393985    1.927925   -0.427018
     13          1           0       -0.610873    2.308264   -0.560945
     14          1           0        1.336866    3.854867   -0.579861
     15          1           0        3.625872    2.978886   -0.281720
     16          6           0        1.894638    0.052520   -0.077455
     17          1           0        2.063917   -1.001935    0.083700
     18          6           0        0.595144    0.552772   -0.251937
     19          6           0       -0.558205   -0.365113   -0.252934
     20          7           0       -1.835909    0.152792   -0.077684
     21          6           0       -0.514666   -1.721258   -0.423014
     22          1           0        0.340614   -2.352777   -0.603019
     23         16           0       -2.108660   -2.407843   -0.356322
     24          6           0       -2.736114   -0.785770   -0.102603
     25          7           0       -4.096198   -0.589955    0.064932
     26          6           0       -4.720530    0.590148    0.354455
     27          7           0       -4.033714    1.715629    0.469857
     28          1           0       -3.022449    1.702934    0.343911
     29          1           0       -4.517457    2.580092    0.692254
     30          7           0       -6.039263    0.560038    0.521587
     31          1           0       -6.561752   -0.300920    0.394172
     32          1           0       -6.549622    1.420042    0.695494
     33          1           0       -4.696963   -1.410650    0.011883
 ---------------------------------------------------------------------

 SCF Done:  E(RHF) =  -1207.15997124     A.U. after   17 cycles
