 Gaussian 16, Revision B.01,

 -----------------------------------------------------------
 #p b3lyp/6-31G(d) opt freq scrf=(iefpcm,read,solvent=water)
 -----------------------------------------------------------

 --------------------------------------------
 SET_328_BBB20_conf1.geo_120_180_300 geometry
 --------------------------------------------
 Symbolic Z-matrix:
 Charge =  1 Multiplicity = 1

 SCF Done:  E(RB3LYP) =  -769.766262516     A.U. after   12 cycles
 SCF Done:  E(RB3LYP) =  -769.805794564     A.U. after   11 cycles
 SCF Done:  E(RB3LYP) =  -769.826665194     A.U. after   11 cycles
 SCF Done:  E(RB3LYP) =  -769.829939074     A.U. after   10 cycles
 SCF Done:  E(RB3LYP) =  -769.830564535     A.U. after   10 cycles
 SCF Done:  E(RB3LYP) =  -769.831089139     A.U. after   11 cycles
 SCF Done:  E(RB3LYP) =  -769.831344057     A.U. after   10 cycles
 SCF Done:  E(RB3LYP) =  -769.831632188     A.U. after    9 cycles
 SCF Done:  E(RB3LYP) =  -769.831733686     A.U. after    9 cycles
 SCF Done:  E(RB3LYP) =  -769.831772089     A.U. after    9 cycles
 SCF Done:  E(RB3LYP) =  -769.831808064     A.U. after    9 cycles
 SCF Done:  E(RB3LYP) =  -769.831810726     A.U. after    8 cycles
 SCF Done:  E(RB3LYP) =  -769.831840489     A.U. after    9 cycles
 SCF Done:  E(RB3LYP) =  -769.831844636     A.U. after    7 cycles
 SCF Done:  E(RB3LYP) =  -769.831844435     A.U. after    7 cycles
 SCF Done:  E(RB3LYP) =  -769.831845728     A.U. after    7 cycles
 Optimization completed.
    -- Stationary point found.
 Normal termination of Gaussian 16 at Sun Jul 18 13:56:20 2021.

 --------------------------------------------------------------------
 #P Geom=AllCheck Guess=TCheck SCRF=Check GenChk RB3LYP/6-31G(d) Freq
 --------------------------------------------------------------------

 Structure from the checkpoint file:  "SET_328_BBB20_conf1.geo_120_180_300.chk"
 --------------------------------------------
 SET_328_BBB20_conf1.geo_120_180_300 geometry
 --------------------------------------------
 Charge =  1 Multiplicity = 1

 SCF Done:  E(RB3LYP) =  -769.831845728     A.U. after    1 cycles

  Exact polarizability: 277.360 -21.776 288.293  36.308  32.142 194.025
 Approx polarizability: 294.021 -15.225 315.831  42.523  38.853 222.108

                      1                      2                      3
                      A                      A                      A
 Frequencies --     41.3648                49.3086                57.5581
 Red. masses --      4.1315                 3.2769                 4.1411
 Frc consts  --      0.0042                 0.0047                 0.0081
 IR Inten    --      1.8793                27.1067                 9.8641

                      4                      5                      6
                      A                      A                      A
 Frequencies --     87.2001               107.6454               136.3128
 Red. masses --      3.4120                 2.9086                 3.3118
 Frc consts  --      0.0153                 0.0199                 0.0363
 IR Inten    --      1.2478                 2.7598                15.3294

                      7                      8                      9
                      A                      A                      A
 Frequencies --    152.5754               169.6941               218.9713
 Red. masses --      2.8815                 2.9193                 2.1728
 Frc consts  --      0.0395                 0.0495                 0.0614
 IR Inten    --      6.6904                 0.8514                 2.8168

                     10                     11                     12
                      A                      A                      A
 Frequencies --    264.6509               267.1558               300.7388
 Red. masses --      3.5574                 3.0196                 2.6880
 Frc consts  --      0.1468                 0.1270                 0.1432
 IR Inten    --      4.0745                 5.9072                 5.5373

                     13                     14                     15
                      A                      A                      A
 Frequencies --    315.7906               333.5617               347.1770
 Red. masses --      2.8752                 3.9251                 1.1965
 Frc consts  --      0.1689                 0.2573                 0.0850
 IR Inten    --      0.1542                 3.5539                 0.3121

                     16                     17                     18
                      A                      A                      A
 Frequencies --    366.2286               419.1806               440.3353
 Red. masses --      3.5555                 3.8351                 2.7782
 Frc consts  --      0.2810                 0.3970                 0.3174
 IR Inten    --      4.8442                14.9807                 4.4910

                     19                     20                     21
                      A                      A                      A
 Frequencies --    448.6399               473.1595               486.1757
 Red. masses --      3.1769                 3.0712                 3.8003
 Frc consts  --      0.3768                 0.4051                 0.5292
 IR Inten    --      4.0714                 0.3889                 6.0450

                     22                     23                     24
                      A                      A                      A
 Frequencies --    525.8124               550.0923               574.8310
 Red. masses --      3.4198                 3.8730                 4.8532
 Frc consts  --      0.5571                 0.6905                 0.9448
 IR Inten    --      0.3384                 1.2520                 1.2125

                     25                     26                     27
                      A                      A                      A
 Frequencies --    597.5311               620.6080               635.1631
 Red. masses --      3.3320                 4.3305                 4.6177
 Frc consts  --      0.7009                 0.9827                 1.0976
 IR Inten    --      1.5077                14.3521                13.5205

                     28                     29                     30
                      A                      A                      A
 Frequencies --    703.7275               728.3556               756.4096
 Red. masses --      4.5100                 3.4676                 2.3796
 Frc consts  --      1.3159                 1.0838                 0.8022
 IR Inten    --      0.1601                 3.1200                13.4802

                     31                     32                     33
                      A                      A                      A
 Frequencies --    769.0491               771.6493               784.0714
 Red. masses --      1.6921                 1.5196                 1.4261
 Frc consts  --      0.5896                 0.5331                 0.5166
 IR Inten    --     13.5847                47.5780                67.3694

                     34                     35                     36
                      A                      A                      A
 Frequencies --    787.8661               810.7346               845.2399
 Red. masses --      2.2841                 3.3348                 1.7116
 Frc consts  --      0.8354                 1.2914                 0.7205
 IR Inten    --     15.5173                 1.0240                 9.5080

                     37                     38                     39
                      A                      A                      A
 Frequencies --    873.6600               884.7203               894.3796
 Red. masses --      1.3988                 1.8614                 2.0003
 Frc consts  --      0.6290                 0.8584                 0.9427
 IR Inten    --      2.9706                 7.2030                12.0870

                     40                     41                     42
                      A                      A                      A
 Frequencies --    903.4211               930.1143               948.5974
 Red. masses --      1.8046                 2.5228                 1.3982
 Frc consts  --      0.8678                 1.2859                 0.7413
 IR Inten    --     12.8996                28.8113                 9.6379

                     43                     44                     45
                      A                      A                      A
 Frequencies --    954.7958               980.1706               987.8825
 Red. masses --      1.3898                 1.2641                 2.1178
 Frc consts  --      0.7465                 0.7155                 1.2177
 IR Inten    --      5.0418                 0.6629                 2.4210

                     46                     47                     48
                      A                      A                      A
 Frequencies --    989.3006               991.9387              1027.6769
 Red. masses --      1.2934                 1.4272                 1.7795
 Frc consts  --      0.7458                 0.8274                 1.1073
 IR Inten    --      4.9272                14.2883                23.7979

                     49                     50                     51
                      A                      A                      A
 Frequencies --   1049.1397              1061.4503              1072.7227
 Red. masses --      2.5024                 3.1526                 2.1708
 Frc consts  --      1.6228                 2.0928                 1.4718
 IR Inten    --      5.2672                 3.3894                11.3558

                     52                     53                     54
                      A                      A                      A
 Frequencies --   1084.3161              1091.9738              1134.8930
 Red. masses --      2.9605                 2.2541                 2.0360
 Frc consts  --      2.0508                 1.5836                 1.5451
 IR Inten    --      5.1011                22.5868                50.7577

                     55                     56                     57
                      A                      A                      A
 Frequencies --   1147.9799              1157.8221              1173.0234
 Red. masses --      1.7992                 1.7504                 1.7034
 Frc consts  --      1.3970                 1.3825                 1.3809
 IR Inten    --     45.2294                18.1101                60.1031

                     58                     59                     60
                      A                      A                      A
 Frequencies --   1186.7027              1191.6308              1201.2395
 Red. masses --      1.1250                 1.2282                 1.1642
 Frc consts  --      0.9335                 1.0275                 0.9897
 IR Inten    --      1.8262                 0.9200                 3.5232

                     61                     62                     63
                      A                      A                      A
 Frequencies --   1211.1048              1234.9829              1249.3211
 Red. masses --      1.7259                 2.5285                 1.7415
 Frc consts  --      1.4915                 2.2721                 1.6015
 IR Inten    --      3.8409                 7.3978                57.6009

                     64                     65                     66
                      A                      A                      A
 Frequencies --   1261.4472              1267.7509              1291.6272
 Red. masses --      2.1697                 1.5648                 1.5693
 Frc consts  --      2.0342                 1.4818                 1.5426
 IR Inten    --     82.4659               122.7998                55.2787

                     67                     68                     69
                      A                      A                      A
 Frequencies --   1321.9378              1331.0589              1339.8482
 Red. masses --      1.6565                 1.7621                 3.8470
 Frc consts  --      1.7055                 1.8394                 4.0689
 IR Inten    --     20.1985                96.2380                16.3171

                     70                     71                     72
                      A                      A                      A
 Frequencies --   1351.3414              1360.6590              1380.6243
 Red. masses --      1.7973                 2.7989                 1.5135
 Frc consts  --      1.9338                 3.0530                 1.6997
 IR Inten    --     10.1616                 8.7256                 7.9585

                     73                     74                     75
                      A                      A                      A
 Frequencies --   1386.7499              1390.6300              1398.8827
 Red. masses --      1.2248                 1.2658                 1.4709
 Frc consts  --      1.3877                 1.4422                 1.6958
 IR Inten    --     16.6441                46.2035                12.0848

                     76                     77                     78
                      A                      A                      A
 Frequencies --   1438.4249              1460.2982              1483.5198
 Red. masses --      1.3541                 1.3710                 1.3232
 Frc consts  --      1.6508                 1.7225                 1.7158
 IR Inten    --     34.0469                27.8676                19.1247

                     79                     80                     81
                      A                      A                      A
 Frequencies --   1489.9621              1497.5600              1499.6395
 Red. masses --      1.7162                 1.1994                 1.1078
 Frc consts  --      2.2447                 1.5849                 1.4678
 IR Inten    --     40.8464                 5.1937                23.0908

                     82                     83                     84
                      A                      A                      A
 Frequencies --   1501.9813              1520.5197              1529.9873
 Red. masses --      2.0607                 1.0794                 1.7982
 Frc consts  --      2.7390                 1.4704                 2.4801
 IR Inten    --     57.1790                20.3628               117.2723

                     85                     86                     87
                      A                      A                      A
 Frequencies --   1530.9782              1543.4558              1549.7036
 Red. masses --      1.2654                 1.7208                 1.4679
 Frc consts  --      1.7475                 2.4153                 2.0771
 IR Inten    --    271.4150                24.2031                19.1883

                     88                     89                     90
                      A                      A                      A
 Frequencies --   1627.8570              1636.1513              1638.7656
 Red. masses --      5.9209                 1.0409                 6.3993
 Frc consts  --      9.2442                 1.6418                10.1255
 IR Inten    --     25.1466                70.9921                11.9985

                     91                     92                     93
                      A                      A                      A
 Frequencies --   1652.5835              1658.6908              1671.8993
 Red. masses --      5.7722                 5.4974                 1.0468
 Frc consts  --      9.2879                 8.9113                 1.7240
 IR Inten    --     35.0103                18.7742                98.5376

                     94                     95                     96
                      A                      A                      A
 Frequencies --   3007.6450              3034.6590              3062.4892
 Red. masses --      1.0716                 1.0675                 1.0635
 Frc consts  --      5.7115                 5.7923                 5.8767
 IR Inten    --    125.5039                48.4427                29.6043

                     97                     98                     99
                      A                      A                      A
 Frequencies --   3080.6640              3081.2318              3111.9227
 Red. masses --      1.0611                 1.0920                 1.1030
 Frc consts  --      5.9335                 6.1084                 6.2931
 IR Inten    --     18.4000                89.8498                51.0818

                    100                    101                    102
                      A                      A                      A
 Frequencies --   3117.3759              3133.7601              3140.2023
 Red. masses --      1.0973                 1.0804                 1.0749
 Frc consts  --      6.2827                 6.2511                 6.2453
 IR Inten    --      3.3716                14.5807                56.1708

                    103                    104                    105
                      A                      A                      A
 Frequencies --   3189.1336              3189.8671              3191.4799
 Red. masses --      1.0877                 1.0873                 1.1099
 Frc consts  --      6.5180                 6.5184                 6.6605
 IR Inten    --     18.0396                24.8027                14.0142

                    106                    107                    108
                      A                      A                      A
 Frequencies --   3204.2606              3207.9300              3213.1472
 Red. masses --      1.0874                 1.0881                 1.0919
 Frc consts  --      6.5780                 6.5973                 6.6420
 IR Inten    --      6.0931                16.6487                48.4402

                    109                    110                    111
                      A                      A                      A
 Frequencies --   3221.1230              3225.4073              3234.0661
 Red. masses --      1.0932                 1.0968                 1.0944
 Frc consts  --      6.6831                 6.7228                 6.7440
 IR Inten    --     53.8899                41.5449                29.6049

                    112                    113                    114
                      A                      A                      A
 Frequencies --   3366.9801              3425.3463              3465.0070
 Red. masses --      1.0364                 1.0930                 1.0914
 Frc consts  --      6.9224                 7.5558                 7.7201
 IR Inten    --    134.1201               227.8067               217.0417

 - Thermochemistry -
 -------------------
 Temperature   298.150 Kelvin.  Pressure   1.00000 Atm.
 Atom     1 has atomic number  7 and mass  14.00307

 Molecular mass:   253.17047 amu.
 Principal axes and moments of inertia in atomic units:
                           1         2         3
     Eigenvalues --  4064.105265603.680728155.37693
           X            0.99764   0.06862   0.00394
           Y           -0.06865   0.99760   0.00885
           Z           -0.00333  -0.00910   0.99995
 This molecule is an asymmetric top.
 Rotational symmetry number  1.
 Warning -- assumption of classical behavior for rotation
           may cause significant error
 Rotational temperatures (Kelvin)      0.02131     0.01546     0.01062
 Rotational constants (GHZ):           0.44407     0.32206     0.22129
 Zero-point vibrational energy     929963.5 (Joules/Mol)
                                  222.26662 (Kcal/Mol)
 Warning -- explicit consideration of  26 degrees of freedom as
           vibrations may cause significant error
 Vibrational temperatures:     59.51    70.94    82.81   125.46   154.88
          (Kelvin)            196.12   219.52   244.15   315.05   380.77
                              384.38   432.70   454.35   479.92   499.51
                              526.92   603.11   633.54   645.49   680.77
                              699.50   756.53   791.46   827.05   859.71
                              892.92   913.86  1012.51  1047.94  1088.30
                             1106.49  1110.23  1128.10  1133.56  1166.47
                             1216.11  1257.00  1272.92  1286.81  1299.82
                             1338.23  1364.82  1373.74  1410.25  1421.34
                             1423.38  1427.18  1478.60  1509.48  1527.19
                             1543.41  1560.09  1571.11  1632.86  1651.69
                             1665.85  1687.72  1707.40  1714.49  1728.32
                             1742.51  1776.86  1797.49  1814.94  1824.01
                             1858.36  1901.97  1915.10  1927.74  1944.28
                             1957.68  1986.41  1995.22  2000.81  2012.68
                             2069.57  2101.04  2134.45  2143.72  2154.65
                             2157.65  2161.02  2187.69  2201.31  2202.74
                             2220.69  2229.68  2342.12  2354.06  2357.82
                             2377.70  2386.49  2405.49  4327.33  4366.20
                             4406.24  4432.39  4433.21  4477.36  4485.21
                             4508.78  4518.05  4588.45  4589.51  4591.83
                             4610.22  4615.50  4623.00  4634.48  4640.64
                             4653.10  4844.33  4928.31  4985.37

 Zero-point correction=                           0.354204 (Hartree/Particle)
 Thermal correction to Energy=                    0.370482
 Thermal correction to Enthalpy=                  0.371426
 Thermal correction to Gibbs Free Energy=         0.310282
 Sum of electronic and zero-point Energies=           -769.477641
 Sum of electronic and thermal Energies=              -769.461364
 Sum of electronic and thermal Enthalpies=            -769.460419
 Sum of electronic and thermal Free Energies=         -769.521563

                     E (Thermal)             CV                S
                      KCal/Mol        Cal/Mol-Kelvin    Cal/Mol-Kelvin
 Total                  232.481             65.967            128.688
 Electronic               0.000              0.000              0.000
 Translational            0.889              2.981             42.487
 Rotational               0.889              2.981             33.584
 Vibrational            230.704             60.005             52.617
 Vibration     1          0.594              1.981              5.193
 Vibration     2          0.595              1.978              4.845
 Vibration     3          0.596              1.974              4.539
 Vibration     4          0.601              1.958              3.722
 Vibration     5          0.606              1.943              3.311
 Vibration     6          0.614              1.917              2.855
 Vibration     7          0.619              1.900              2.640
 Vibration     8          0.625              1.880              2.439
 Vibration     9          0.647              1.812              1.968
 Vibration    10          0.671              1.738              1.631
 Vibration    11          0.672              1.733              1.615
 Vibration    12          0.693              1.672              1.413
 Vibration    13          0.703              1.643              1.332
 Vibration    14          0.715              1.608              1.243
 Vibration    15          0.725              1.581              1.179
 Vibration    16          0.739              1.542              1.096
 Vibration    17          0.782              1.429              0.895
 Vibration    18          0.800              1.382              0.826
 Vibration    19          0.808              1.364              0.800
 Vibration    20          0.830              1.310              0.729
 Vibration    21          0.842              1.281              0.694
 Vibration    22          0.881              1.193              0.597
 Vibration    23          0.905              1.139              0.544
 Vibration    24          0.931              1.086              0.495
 Vibration    25          0.955              1.037              0.454
 Vibration    26          0.981              0.988              0.416

                           ! Non-Optimized Parameters !
 Normal termination of Gaussian 16 at Sun Jul 18 14:15:21 2021.

 ----------------------------------------------------------------------
 #p b3lyp/6-31G(d) scrf=(iefpcm,read,solvent=water) geom=allcheck guess
 =read
 ----------------------------------------------------------------------

 Structure from the checkpoint file:  "SET_328_BBB20_conf1.geo_120_180_300.chk"
 --------------------------------------------
 SET_328_BBB20_conf1.geo_120_180_300 geometry
 --------------------------------------------
 Charge =  1 Multiplicity = 1

 SCF Done:  E(RB3LYP) =  -769.831845728     A.U. after    1 cycles
 Normal termination of Gaussian 16 at Sun Jul 18 14:15:35 2021.

 -----------------------------
 #p B3LYP/6-31G* geom=allcheck
 -----------------------------

 Structure from the checkpoint file:  "SET_328_BBB20_conf1.geo_120_180_300.chk"
 --------------------------------------------
 SET_328_BBB20_conf1.geo_120_180_300 geometry
 --------------------------------------------
 Charge =  1 Multiplicity = 1

 SCF Done:  E(RB3LYP) =  -769.714533254     A.U. after   15 cycles
 Normal termination of Gaussian 16 at Sun Jul 18 14:16:52 2021.
 Gaussian 16:  ES64L-G16RevB.01 20-Dec-2017

 --------------------------------------------------------
 #p mp2/aug-cc-pVDZ scf=tight maxdisk=180GB geom=allcheck
 --------------------------------------------------------

 Structure from the checkpoint file:  "SET_328_BBB20_conf1.geo_120_180_300.chk"
 --------------------------------------------
 SET_328_BBB20_conf1.geo_120_180_300 geometry
 --------------------------------------------
 Charge =  1 Multiplicity = 1

                         Standard orientation:
 ---------------------------------------------------------------------
 Center     Atomic      Atomic             Coordinates (Angstroms)
 Number     Number       Type             X           Y           Z
 ---------------------------------------------------------------------
      1          7           0       -4.176910   -2.177039   -0.181029
      2          1           0       -4.596291   -1.249209   -0.360963
      3          1           0       -4.953202   -2.856699   -0.111329
      4          6           0       -3.357663   -2.170781    1.083612
      5          1           0       -2.963884   -3.180773    1.198009
      6          1           0       -4.061042   -1.977094    1.892783
      7          6           0       -2.257220   -1.114865    1.056498
      8          1           0       -1.864596   -1.031963    2.074889
      9          1           0       -2.691960   -0.142187    0.807438
     10          6           0       -1.094868   -1.447952    0.111069
     11          1           0       -1.458379   -1.635191   -0.910591
     12          1           0       -0.628157   -2.374147    0.450793
     13          7           0       -0.066790   -0.404975    0.146761
     14          6           0        1.283709   -0.792142   -0.103859
     15          6           0        1.532134   -1.985559   -0.812094
     16          1           0        0.697665   -2.556531   -1.200891
     17          6           0        2.823978   -2.445472   -1.049754
     18          1           0        2.969296   -3.370453   -1.597040
     19          6           0        3.915647   -1.705855   -0.598575
     20          1           0        4.930918   -2.046044   -0.773351
     21          6           0        3.678261   -0.517868    0.086865
     22          1           0        4.518578    0.065804    0.452538
     23          6           0        2.389651   -0.034453    0.354585
     24          6           0        2.331394    1.270781    1.132430
     25          1           0        2.751379    2.068851    0.505499
     26          1           0        3.012308    1.179368    1.985491
     27          6           0        0.963375    1.737638    1.639593
     28          1           0        1.104121    2.649541    2.226910
     29          1           0        0.541893    0.977147    2.306123
     30          6           0        0.011934    2.003421    0.508653
     31          6           0       -0.383340    3.295715    0.152205
     32          1           0       -0.002097    4.136844    0.725335
     33          6           0       -1.269134    3.514993   -0.904496
     34          1           0       -1.574157    4.525107   -1.158802
     35          6           0       -1.763804    2.425805   -1.624504
     36          1           0       -2.452208    2.580310   -2.448398
     37          6           0       -1.364197    1.130181   -1.292497
     38          1           0       -1.741659    0.286773   -1.860884
     39          6           0       -0.474978    0.913197   -0.231967
     40          1           0       -3.621900   -2.436068   -1.010263
 ---------------------------------------------------------------------

 SCF Done:  E(RHF) =  -764.745725985     A.U. after   16 cycles
 E2 =    -0.2714144189D+01 EUMP2 =    -0.76745987017424D+03

 The electronic state is 1-A.
 Alpha  occ. eigenvalues --  -15.89617 -15.68304 -11.47564 -11.40421 -11.39306
 Alpha  occ. eigenvalues --  -11.37196 -11.37106 -11.33836 -11.33453 -11.33336
 Alpha  occ. eigenvalues --  -11.32945 -11.32798 -11.32708 -11.32119 -11.31862
 Alpha  occ. eigenvalues --  -11.31847 -11.31697 -11.31506 -11.31106  -1.50298
 Alpha  occ. eigenvalues --   -1.37090  -1.24582  -1.23643  -1.21217  -1.16706
 Alpha  occ. eigenvalues --   -1.11581  -1.11234  -1.10707  -1.07342  -1.03668
 Alpha  occ. eigenvalues --   -0.99150  -0.96884  -0.96017  -0.94675  -0.91776
 Alpha  occ. eigenvalues --   -0.90247  -0.87956  -0.86952  -0.84313  -0.79593
 Alpha  occ. eigenvalues --   -0.79173  -0.78203  -0.75879  -0.74404  -0.73610
 Alpha  occ. eigenvalues --   -0.72710  -0.71451  -0.70109  -0.69055  -0.68550
 Alpha  occ. eigenvalues --   -0.68014  -0.66359  -0.65789  -0.63943  -0.63575
 Alpha  occ. eigenvalues --   -0.62609  -0.61258  -0.59581  -0.59123  -0.57865
 Alpha  occ. eigenvalues --   -0.56630  -0.56375  -0.55498  -0.51104  -0.42623
 Alpha  occ. eigenvalues --   -0.41377  -0.40585  -0.38422
 Alpha virt. eigenvalues --   -0.11039  -0.07468  -0.07334  -0.05825  -0.03745
 Alpha virt. eigenvalues --   -0.03673  -0.03255  -0.02854  -0.02645  -0.02024
 Alpha virt. eigenvalues --   -0.01257  -0.01125  -0.00784  -0.00746  -0.00318

 Mulliken charges:
               1
     1  N   -0.516797
     2  H    0.264977
     3  H    0.181313
     4  C    1.245618
     5  H   -0.109365
     6  H   -0.122272
     7  C    0.470251
     8  H   -0.144526
     9  H   -0.249685
    10  C    0.664769
    11  H   -0.437043
    12  H   -0.525782
    13  N   -0.216147
    14  C    0.614666
    15  C    0.710911
    16  H   -0.886601
    17  C    0.399436
    18  H   -0.514161
    19  C    0.033522
    20  H   -0.459948
    21  C    0.677627
    22  H   -0.742588
    23  C   -0.165198
    24  C    0.330109
    25  H    0.076402
    26  H   -0.022564
    27  C    0.771378
    28  H   -0.146922
    29  H   -0.080259
    30  C    0.737840
    31  C    0.621454
    32  H   -0.610741
    33  C    0.644872
    34  H   -0.462388
    35  C    0.194731
    36  H   -0.539130
    37  C    1.444969
    38  H   -0.741723
    39  C   -1.637126
    40  H    0.246121
 Sum of Mulliken charges =   1.00000

 Dipole moment (field-independent basis, Debye):
    X=            -16.3112    Y=             -8.2907    Z=              0.5267  Tot=             18.3049
 Quadrupole moment (field-independent basis, Debye-Ang):
   XX=            -28.3113   YY=            -77.9117   ZZ=           -108.4979
   XY=             39.2826   XZ=              4.9206   YZ=              3.9635

 Normal termination of Gaussian 16 at Sun Jul 18 15:24:10 2021.
