 Gaussian 16, Revision B.01,

 -----------------------------------------------------------
 #p b3lyp/6-31G(d) opt freq scrf=(iefpcm,read,solvent=water)
 -----------------------------------------------------------

 ---------------------------------------------
 SET_328_BBB256_conf1.geo_180_180_270 geometry
 ---------------------------------------------
 Symbolic Z-matrix:
 Charge =  1 Multiplicity = 1

 SCF Done:  E(RB3LYP) =  -422.020837448     A.U. after   12 cycles
 SCF Done:  E(RB3LYP) =  -422.049620322     A.U. after   11 cycles
 SCF Done:  E(RB3LYP) =  -422.056202698     A.U. after   11 cycles
 SCF Done:  E(RB3LYP) =  -422.056740607     A.U. after   10 cycles
 SCF Done:  E(RB3LYP) =  -422.057036747     A.U. after   11 cycles
 SCF Done:  E(RB3LYP) =  -422.057174052     A.U. after   11 cycles
 SCF Done:  E(RB3LYP) =  -422.057261571     A.U. after   11 cycles
 SCF Done:  E(RB3LYP) =  -422.057477297     A.U. after   10 cycles
 SCF Done:  E(RB3LYP) =  -422.057504809     A.U. after    9 cycles
 SCF Done:  E(RB3LYP) =  -422.057493781     A.U. after    9 cycles
 SCF Done:  E(RB3LYP) =  -422.057491229     A.U. after    8 cycles
 SCF Done:  E(RB3LYP) =  -422.057490324     A.U. after    7 cycles
 SCF Done:  E(RB3LYP) =  -422.057483777     A.U. after    8 cycles
 SCF Done:  E(RB3LYP) =  -422.057484240     A.U. after    8 cycles
 SCF Done:  E(RB3LYP) =  -422.057484443     A.U. after    7 cycles
 Optimization completed.
    -- Stationary point found.
 Normal termination of Gaussian 16 at Sun Jul 18 13:43:49 2021.

 --------------------------------------------------------------------
 #P Geom=AllCheck Guess=TCheck SCRF=Check GenChk RB3LYP/6-31G(d) Freq
 --------------------------------------------------------------------

 Structure from the checkpoint file:  "SET_328_BBB256_conf1.geo_180_180_270.chk"
 ---------------------------------------------
 SET_328_BBB256_conf1.geo_180_180_270 geometry
 ---------------------------------------------
 Charge =  1 Multiplicity = 1

 SCF Done:  E(RB3LYP) =  -422.057484443     A.U. after    1 cycles

  Exact polarizability: 150.675  -6.285 130.382 -19.560  -7.149  77.798
 Approx polarizability: 159.033  -5.754 153.841 -24.645 -10.449  87.806

                      1                      2                      3
                      A                      A                      A
 Frequencies --     22.2893                82.8862               111.0560
 Red. masses --      3.3477                 3.9308                 2.2373
 Frc consts  --      0.0010                 0.0159                 0.0163
 IR Inten    --      2.1631                 3.9706                11.8746

                      4                      5                      6
                      A                      A                      A
 Frequencies --    125.0634               217.6433               240.8996
 Red. masses --      1.7084                 3.4934                 1.1487
 Frc consts  --      0.0157                 0.0975                 0.0393
 IR Inten    --      6.6442                 5.5289                 4.6371

                      7                      8                      9
                      A                      A                      A
 Frequencies --    284.3416               334.1247               396.0258
 Red. masses --      4.1731                 2.5532                 2.8994
 Frc consts  --      0.1988                 0.1679                 0.2679
 IR Inten    --     16.4050                 2.1830                 0.9805

                     10                     11                     12
                      A                      A                      A
 Frequencies --    417.3068               525.7043               610.0789
 Red. masses --      3.5831                 2.9347                 5.2929
 Frc consts  --      0.3676                 0.4779                 1.1607
 IR Inten    --      5.4019                 6.4532                 5.4378

                     13                     14                     15
                      A                      A                      A
 Frequencies --    643.2618               765.4627               777.3181
 Red. masses --      6.3070                 2.2466                 1.1885
 Frc consts  --      1.5376                 0.7756                 0.4231
 IR Inten    --      3.1384                 6.2307                21.0011

                     16                     17                     18
                      A                      A                      A
 Frequencies --    792.2969               842.8400               853.0499
 Red. masses --      1.6269                 4.4902                 1.1621
 Frc consts  --      0.6017                 1.8794                 0.4983
 IR Inten    --     35.3247                 1.0683                31.0441

                     19                     20                     21
                      A                      A                      A
 Frequencies --    916.7204               955.0089               986.7407
 Red. masses --      1.3151                 2.6749                 1.4198
 Frc consts  --      0.6512                 1.4374                 0.8145
 IR Inten    --      1.2470                22.0961                 0.4477

                     22                     23                     24
                      A                      A                      A
 Frequencies --   1010.1501              1020.4564              1027.2694
 Red. masses --      4.2218                 1.3060                 2.3336
 Frc consts  --      2.5382                 0.8013                 1.4509
 IR Inten    --     10.8109                 0.0563                 5.1302

                     25                     26                     27
                      A                      A                      A
 Frequencies --   1030.1652              1062.4191              1078.0783
 Red. masses --      2.5232                 3.0298                 2.3001
 Frc consts  --      1.5777                 2.0149                 1.5751
 IR Inten    --     13.0373                12.3750                 8.7530

                     28                     29                     30
                      A                      A                      A
 Frequencies --   1110.7070              1149.4263              1181.8302
 Red. masses --      1.3470                 1.2767                 1.1206
 Frc consts  --      0.9790                 0.9938                 0.9222
 IR Inten    --      1.8052                 2.1265                 7.4411

                     31                     32                     33
                      A                      A                      A
 Frequencies --   1184.3326              1246.5155              1283.6534
 Red. masses --      1.5872                 2.2489                 1.7098
 Frc consts  --      1.3117                 2.0588                 1.6600
 IR Inten    --     19.1751                 8.7403                 2.3814

                     34                     35                     36
                      A                      A                      A
 Frequencies --   1310.5391              1331.8674              1338.1299
 Red. masses --      2.9043                 1.6451                 1.3458
 Frc consts  --      2.9390                 1.7193                 1.4198
 IR Inten    --      1.3306                 2.6234                 7.4856

                     37                     38                     39
                      A                      A                      A
 Frequencies --   1359.6440              1412.5726              1446.4770
 Red. masses --      1.2783                 1.4092                 1.1029
 Frc consts  --      1.3923                 1.6567                 1.3596
 IR Inten    --      4.6305                 0.1354                 1.5487

                     40                     41                     42
                      A                      A                      A
 Frequencies --   1464.2243              1479.5391              1482.4124
 Red. masses --      1.1581                 1.7047                 1.3563
 Frc consts  --      1.4629                 2.1987                 1.7561
 IR Inten    --     28.4385                55.5421                55.5882

                     43                     44                     45
                      A                      A                      A
 Frequencies --   1485.8260              1511.8023              1518.4690
 Red. masses --      1.1983                 1.0316                 1.0631
 Frc consts  --      1.5587                 1.3892                 1.4442
 IR Inten    --     21.9860                22.7166                50.9589

                     46                     47                     48
                      A                      A                      A
 Frequencies --   1522.4136              1526.7236              1630.0537
 Red. masses --      2.2263                 1.0816                 5.7728
 Frc consts  --      3.0402                 1.4854                 9.0373
 IR Inten    --     27.9059                 7.1557                29.9521

                     49                     50                     51
                      A                      A                      A
 Frequencies --   1641.4416              1650.7776              3075.0321
 Red. masses --      1.0723                 5.3927                 1.0603
 Frc consts  --      1.7023                 8.6584                 5.9072
 IR Inten    --    115.4559                80.6916                24.2145

                     52                     53                     54
                      A                      A                      A
 Frequencies --   3122.8974              3125.1452              3126.3073
 Red. masses --      1.0603                 1.0312                 1.1014
 Frc consts  --      6.0926                 5.9341                 6.3424
 IR Inten    --     12.4385                14.6632                17.4251

                     55                     56                     57
                      A                      A                      A
 Frequencies --   3183.0947              3191.3459              3216.7960
 Red. masses --      1.1106                 1.0895                 1.0882
 Frc consts  --      6.6299                 6.5378                 6.6342
 IR Inten    --     19.9100                42.1155                 8.3823

                     58                     59                     60
                      A                      A                      A
 Frequencies --   3222.8282              3223.1582              3231.2658
 Red. masses --      1.1090                 1.1091                 1.0934
 Frc consts  --      6.7864                 6.7887                 6.7261
 IR Inten    --      7.0827                 8.3972                28.6100

                     61                     62                     63
                      A                      A                      A
 Frequencies --   3242.2845              3407.9783              3452.8626
 Red. masses --      1.0971                 1.0562                 1.0956
 Frc consts  --      6.7954                 7.2276                 7.6960
 IR Inten    --     20.5115               135.1645               195.1768

 - Thermochemistry -
 -------------------
 Temperature   298.150 Kelvin.  Pressure   1.00000 Atm.
 Atom     1 has atomic number  6 and mass  12.00000

 Molecular mass:   137.10787 amu.
 Principal axes and moments of inertia in atomic units:
                           1         2         3
     Eigenvalues --   473.838283178.781323392.00543
           X            1.00000   0.00282   0.00077
           Y           -0.00283   0.99984   0.01741
           Z           -0.00072  -0.01741   0.99985
 This molecule is an asymmetric top.
 Rotational symmetry number  1.
 Warning -- assumption of classical behavior for rotation
           may cause significant error
 Rotational temperatures (Kelvin)      0.18279     0.02725     0.02553
 Rotational constants (GHZ):           3.80877     0.56775     0.53206
 Zero-point vibrational energy     545611.0 (Joules/Mol)
                                  130.40415 (Kcal/Mol)
 Warning -- explicit consideration of  12 degrees of freedom as
           vibrations may cause significant error
 Vibrational temperatures:     32.07   119.25   159.78   179.94   313.14
          (Kelvin)            346.60   409.10   480.73   569.79   600.41
                              756.37   877.77   925.51  1101.33  1118.39
                             1139.94  1212.66  1227.35  1318.96  1374.04
                             1419.70  1453.38  1468.21  1478.01  1482.18
                             1528.58  1551.11  1598.06  1653.77  1700.39
                             1703.99  1793.46  1846.89  1885.57  1916.26
                             1925.27  1956.22  2032.38  2081.16  2106.69
                             2128.73  2132.86  2137.77  2175.15  2184.74
                             2190.41  2196.61  2345.28  2361.67  2375.10
                             4424.29  4493.15  4496.39  4498.06  4579.76
                             4591.63  4628.25  4636.93  4637.41  4649.07
                             4664.92  4903.32  4967.90

 Zero-point correction=                           0.207812 (Hartree/Particle)
 Thermal correction to Energy=                    0.217582
 Thermal correction to Enthalpy=                  0.218526
 Thermal correction to Gibbs Free Energy=         0.171324
 Sum of electronic and zero-point Energies=           -421.849672
 Sum of electronic and thermal Energies=              -421.839903
 Sum of electronic and thermal Enthalpies=            -421.838958
 Sum of electronic and thermal Free Energies=         -421.886160

                     E (Thermal)             CV                S
                      KCal/Mol        Cal/Mol-Kelvin    Cal/Mol-Kelvin
 Total                  136.535             36.010             99.345
 Electronic               0.000              0.000              0.000
 Translational            0.889              2.981             40.659
 Rotational               0.889              2.981             30.014
 Vibrational            134.757             30.048             28.672
 Vibration     1          0.593              1.985              6.419
 Vibration     2          0.600              1.961              3.821
 Vibration     3          0.607              1.940              3.250
 Vibration     4          0.610              1.928              3.021
 Vibration     5          0.646              1.814              1.979
 Vibration     6          0.658              1.778              1.796
 Vibration     7          0.683              1.703              1.507
 Vibration     8          0.716              1.607              1.240
 Vibration     9          0.763              1.479              0.977
 Vibration    10          0.780              1.433              0.901
 Vibration    11          0.881              1.193              0.597
 Vibration    12          0.969              1.010              0.433

                           ! Non-Optimized Parameters !
 Normal termination of Gaussian 16 at Sun Jul 18 13:46:58 2021.

 ----------------------------------------------------------------------
 #p b3lyp/6-31G(d) scrf=(iefpcm,read,solvent=water) geom=allcheck guess
 =read
 ----------------------------------------------------------------------

 Structure from the checkpoint file:  "SET_328_BBB256_conf1.geo_180_180_270.chk"
 ---------------------------------------------
 SET_328_BBB256_conf1.geo_180_180_270 geometry
 ---------------------------------------------
 Charge =  1 Multiplicity = 1

 SCF Done:  E(RB3LYP) =  -422.057484443     A.U. after    1 cycles
 Normal termination of Gaussian 16 at Sun Jul 18 13:47:03 2021.

 -----------------------------
 #p B3LYP/6-31G* geom=allcheck
 -----------------------------

 Structure from the checkpoint file:  "SET_328_BBB256_conf1.geo_180_180_270.chk"
 ---------------------------------------------
 SET_328_BBB256_conf1.geo_180_180_270 geometry
 ---------------------------------------------
 Charge =  1 Multiplicity = 1

 SCF Done:  E(RB3LYP) =  -421.949314602     A.U. after   14 cycles
 Normal termination of Gaussian 16 at Sun Jul 18 13:47:21 2021.
 Gaussian 16:  ES64L-G16RevB.01 20-Dec-2017

 --------------------------------------------------------
 #p mp2/aug-cc-pVDZ scf=tight maxdisk=180GB geom=allcheck
 --------------------------------------------------------

 Structure from the checkpoint file:  "SET_328_BBB256_conf1.geo_180_180_270.chk"
 ---------------------------------------------
 SET_328_BBB256_conf1.geo_180_180_270 geometry
 ---------------------------------------------
 Charge =  1 Multiplicity = 1

                         Standard orientation:
 ---------------------------------------------------------------------
 Center     Atomic      Atomic             Coordinates (Angstroms)
 Number     Number       Type             X           Y           Z
 ---------------------------------------------------------------------
      1          6           0       -4.117008   -0.366361   -0.697051
      2          1           0       -3.962377   -1.437920   -0.808122
      3          1           0       -3.993170    0.136603   -1.654259
      4          1           0       -5.105747   -0.166593   -0.289206
      5          7           0       -3.096063    0.164199    0.255703
      6          1           0       -3.227078   -0.283473    1.174343
      7          6           0       -1.679613   -0.040677   -0.195811
      8          1           0       -1.582904    0.453550   -1.162851
      9          1           0       -1.539531   -1.114180   -0.330767
     10          6           0       -0.682275    0.517385    0.822369
     11          1           0       -0.856640    0.046543    1.795231
     12          1           0       -0.827650    1.594645    0.934410
     13          6           0        0.739371    0.232892    0.383926
     14          7           0        1.138125   -1.050493    0.447477
     15          6           0        2.386633   -1.339813    0.058072
     16          1           0        2.677517   -2.385274    0.124171
     17          6           0        3.292557   -0.386559   -0.406339
     18          1           0        4.291716   -0.680776   -0.703787
     19          6           0        2.873929    0.940839   -0.472054
     20          1           0        3.543239    1.717707   -0.825677
     21          6           0        1.576238    1.255379   -0.071979
     22          1           0        1.212871    2.275971   -0.108243
     23          1           0       -3.263673    1.168750    0.405693
 ---------------------------------------------------------------------

 SCF Done:  E(RHF) =  -419.253185311     A.U. after   14 cycles
 E2 =    -0.1456781104D+01 EUMP2 =    -0.42070996641554D+03

 The electronic state is 1-A.
 Alpha  occ. eigenvalues --  -15.88016 -15.68622 -11.46753 -11.46126 -11.40804
 Alpha  occ. eigenvalues --  -11.39846 -11.38823 -11.37038 -11.35842 -11.35042
 Alpha  occ. eigenvalues --   -1.50180  -1.37524  -1.22957  -1.19649  -1.15499
 Alpha  occ. eigenvalues --   -1.11924  -1.04896  -0.97211  -0.96285  -0.94297
 Alpha  occ. eigenvalues --   -0.86068  -0.84156  -0.80830  -0.79815  -0.76171
 Alpha  occ. eigenvalues --   -0.75701  -0.74548  -0.74122  -0.70739  -0.69522
 Alpha  occ. eigenvalues --   -0.68151  -0.66603  -0.63859  -0.62604  -0.53064
 Alpha  occ. eigenvalues --   -0.48863  -0.45247
 Alpha virt. eigenvalues --   -0.09716  -0.07206  -0.06782  -0.05614  -0.04058
 Alpha virt. eigenvalues --   -0.03585  -0.03402  -0.03178  -0.02023  -0.01863
 Alpha virt. eigenvalues --   -0.01482  -0.01274  -0.00572   0.00043   0.00434

 Mulliken charges:
               1
     1  C    0.765173
     2  H   -0.067675
     3  H   -0.066535
     4  H   -0.124704
     5  N   -0.718591
     6  H    0.218824
     7  C    1.022030
     8  H   -0.220834
     9  H   -0.185979
    10  C    0.456514
    11  H   -0.055517
    12  H   -0.174290
    13  C    0.271045
    14  N   -0.749501
    15  C    0.451120
    16  H   -0.351635
    17  C    0.923388
    18  H   -0.397229
    19  C   -0.197311
    20  H   -0.388243
    21  C    0.940461
    22  H   -0.559851
    23  H    0.209342
 Sum of Mulliken charges =   1.00000

 Dipole moment (field-independent basis, Debye):
    X=            -10.7075    Y=              1.8087    Z=             -0.3945  Tot=             10.8663
 Quadrupole moment (field-independent basis, Debye-Ang):
   XX=              2.9286   YY=            -52.7375   ZZ=            -57.9835
   XY=             -0.8706   XZ=             -4.0317   YZ=              0.6902

 Normal termination of Gaussian 16 at Sun Jul 18 13:50:50 2021.
