 Gaussian 16, Revision B.01,

 -----------------------------------------------------------
 #p b3lyp/6-31G(d) opt freq scrf=(iefpcm,read,solvent=water)
 -----------------------------------------------------------

 ---------------------------------------------
 SET_328_BBB256_conf1.geo_180_180_090 geometry
 ---------------------------------------------
 Symbolic Z-matrix:
 Charge =  1 Multiplicity = 1

 SCF Done:  E(RB3LYP) =  -422.017395440     A.U. after   12 cycles
 SCF Done:  E(RB3LYP) =  -422.045684887     A.U. after   11 cycles
 SCF Done:  E(RB3LYP) =  -422.055110301     A.U. after   11 cycles
 SCF Done:  E(RB3LYP) =  -422.056721428     A.U. after   10 cycles
 SCF Done:  E(RB3LYP) =  -422.057163367     A.U. after    9 cycles
 SCF Done:  E(RB3LYP) =  -422.057295682     A.U. after   10 cycles
 SCF Done:  E(RB3LYP) =  -422.057365902     A.U. after    9 cycles
 SCF Done:  E(RB3LYP) =  -422.057259524     A.U. after    9 cycles
 SCF Done:  E(RB3LYP) =  -422.057316755     A.U. after   11 cycles
 SCF Done:  E(RB3LYP) =  -422.057452718     A.U. after   10 cycles
 SCF Done:  E(RB3LYP) =  -422.057483187     A.U. after    9 cycles
 SCF Done:  E(RB3LYP) =  -422.057477533     A.U. after    8 cycles
 SCF Done:  E(RB3LYP) =  -422.057484499     A.U. after    8 cycles
 SCF Done:  E(RB3LYP) =  -422.057484612     A.U. after    7 cycles
 SCF Done:  E(RB3LYP) =  -422.057482976     A.U. after    7 cycles
 SCF Done:  E(RB3LYP) =  -422.057480944     A.U. after    7 cycles
 Optimization completed.
    -- Stationary point found.
 Normal termination of Gaussian 16 at Sun Jul 18 13:45:28 2021.

 --------------------------------------------------------------------
 #P Geom=AllCheck Guess=TCheck SCRF=Check GenChk RB3LYP/6-31G(d) Freq
 --------------------------------------------------------------------

 Structure from the checkpoint file:  "SET_328_BBB256_conf1.geo_180_180_090.chk"
 ---------------------------------------------
 SET_328_BBB256_conf1.geo_180_180_090 geometry
 ---------------------------------------------
 Charge =  1 Multiplicity = 1

 SCF Done:  E(RB3LYP) =  -422.057480944     A.U. after    1 cycles

  Exact polarizability: 150.496   6.016 130.494  19.689  -6.583  77.653
 Approx polarizability: 158.823   5.431 154.099  24.743  -9.689  87.546

                      1                      2                      3
                      A                      A                      A
 Frequencies --     37.7821                82.8089               124.5461
 Red. masses --      3.5755                 3.9200                 2.1566
 Frc consts  --      0.0030                 0.0158                 0.0197
 IR Inten    --      3.7932                 3.6562                 1.4504

                      4                      5                      6
                      A                      A                      A
 Frequencies --    129.3277               216.4469               239.0558
 Red. masses --      1.5623                 3.4725                 1.2327
 Frc consts  --      0.0154                 0.0959                 0.0415
 IR Inten    --     13.1095                 5.7854                 6.8367

                      7                      8                      9
                      A                      A                      A
 Frequencies --    284.7882               335.3616               395.4849
 Red. masses --      4.2308                 2.5199                 2.9079
 Frc consts  --      0.2022                 0.1670                 0.2680
 IR Inten    --     16.4482                 1.8568                 1.0569

                     10                     11                     12
                      A                      A                      A
 Frequencies --    418.2014               526.0818               611.2747
 Red. masses --      3.5835                 2.9369                 5.2885
 Frc consts  --      0.3693                 0.4789                 1.1643
 IR Inten    --      5.4447                 6.3689                 5.4760

                     13                     14                     15
                      A                      A                      A
 Frequencies --    643.6774               767.2036               781.3839
 Red. masses --      6.2934                 2.3280                 1.2435
 Frc consts  --      1.5363                 0.8073                 0.4473
 IR Inten    --      3.1329                 5.9408                24.3060

                     16                     17                     18
                      A                      A                      A
 Frequencies --    795.0044               845.6402               861.4902
 Red. masses --      1.5125                 4.5093                 1.1489
 Frc consts  --      0.5632                 1.8999                 0.5024
 IR Inten    --     30.4485                 1.0873                33.3277

                     19                     20                     21
                      A                      A                      A
 Frequencies --    917.9084               956.5556               986.6594
 Red. masses --      1.3127                 2.6613                 1.4226
 Frc consts  --      0.6517                 1.4347                 0.8160
 IR Inten    --      1.2576                21.4560                 0.5257

                     22                     23                     24
                      A                      A                      A
 Frequencies --   1010.8937              1022.6037              1029.8694
 Red. masses --      4.4627                 1.3051                 1.6748
 Frc consts  --      2.6869                 0.8041                 1.0466
 IR Inten    --     11.0044                 0.0600                 2.4844

                     25                     26                     27
                      A                      A                      A
 Frequencies --   1036.9417              1070.1523              1079.2326
 Red. masses --      4.0357                 2.9633                 2.2796
 Frc consts  --      2.5567                 1.9995                 1.5644
 IR Inten    --     15.8347                10.2349                 9.3390

                     28                     29                     30
                      A                      A                      A
 Frequencies --   1112.0871              1151.2408              1183.7630
 Red. masses --      1.3603                 1.2726                 1.1168
 Frc consts  --      0.9912                 0.9937                 0.9220
 IR Inten    --      2.0233                 1.8819                 7.2940

                     31                     32                     33
                      A                      A                      A
 Frequencies --   1186.9693              1250.4695              1285.4974
 Red. masses --      1.6009                 2.2120                 1.7372
 Frc consts  --      1.3289                 2.0379                 1.6913
 IR Inten    --     18.7408                 8.0445                 2.6510

                     34                     35                     36
                      A                      A                      A
 Frequencies --   1312.2651              1335.1959              1340.2983
 Red. masses --      2.9682                 1.6073                 1.3611
 Frc consts  --      3.0115                 1.6883                 1.4406
 IR Inten    --      1.6014                 1.5224                 9.5066

                     37                     38                     39
                      A                      A                      A
 Frequencies --   1361.4218              1416.8101              1447.9519
 Red. masses --      1.2703                 1.4245                 1.0995
 Frc consts  --      1.3872                 1.6847                 1.3582
 IR Inten    --      3.8783                 0.1160                 0.5583

                     40                     41                     42
                      A                      A                      A
 Frequencies --   1464.7657              1480.8851              1484.2815
 Red. masses --      1.1584                 1.5988                 1.4020
 Frc consts  --      1.4644                 2.0657                 1.8199
 IR Inten    --     16.1665                60.4737                47.7443

                     43                     44                     45
                      A                      A                      A
 Frequencies --   1488.1387              1512.0198              1518.5919
 Red. masses --      1.2138                 1.0314                 1.0777
 Frc consts  --      1.5838                 1.3893                 1.4643
 IR Inten    --     29.5044                23.1344                66.3564

                     46                     47                     48
                      A                      A                      A
 Frequencies --   1523.6422              1529.9608              1632.2015
 Red. masses --      2.2400                 1.0823                 5.7482
 Frc consts  --      3.0638                 1.4926                 9.0225
 IR Inten    --     24.4423                 7.3110                29.3647

                     49                     50                     51
                      A                      A                      A
 Frequencies --   1643.2576              1651.9342              3080.5761
 Red. masses --      1.0718                 5.3886                 1.0601
 Frc consts  --      1.7053                 8.6638                 5.9275
 IR Inten    --    112.0812                81.3220                24.2400

                     52                     53                     54
                      A                      A                      A
 Frequencies --   3120.2950              3125.8902              3129.3731
 Red. masses --      1.0580                 1.0308                 1.1039
 Frc consts  --      6.0693                 5.9341                 6.3694
 IR Inten    --     14.3881                14.5989                16.0111

                     55                     56                     57
                      A                      A                      A
 Frequencies --   3180.8896              3194.0295              3216.2254
 Red. masses --      1.1106                 1.0894                 1.0880
 Frc consts  --      6.6209                 6.5479                 6.6307
 IR Inten    --     21.4052                42.3479                 6.0494

                     58                     59                     60
                      A                      A                      A
 Frequencies --   3221.8065              3225.5566              3228.3147
 Red. masses --      1.1091                 1.1088                 1.0933
 Frc consts  --      6.7828                 6.7968                 6.7133
 IR Inten    --      9.3034                 7.8627                30.6477

                     61                     62                     63
                      A                      A                      A
 Frequencies --   3240.5401              3368.1066              3414.4466
 Red. masses --      1.0976                 1.0581                 1.0937
 Frc consts  --      6.7908                 7.0723                 7.5125
 IR Inten    --     21.9543               138.2009               191.8738

 - Thermochemistry -
 -------------------
 Temperature   298.150 Kelvin.  Pressure   1.00000 Atm.
 Atom     1 has atomic number  6 and mass  12.00000

 Molecular mass:   137.10787 amu.
 Principal axes and moments of inertia in atomic units:
                           1         2         3
     Eigenvalues --   471.553633178.777783388.48533
           X            1.00000  -0.00268  -0.00075
           Y            0.00269   0.99984   0.01755
           Z            0.00071  -0.01755   0.99985
 This molecule is an asymmetric top.
 Rotational symmetry number  1.
 Warning -- assumption of classical behavior for rotation
           may cause significant error
 Rotational temperatures (Kelvin)      0.18368     0.02725     0.02556
 Rotational constants (GHZ):           3.82722     0.56775     0.53261
 Zero-point vibrational energy     545892.4 (Joules/Mol)
                                  130.47141 (Kcal/Mol)
 Warning -- explicit consideration of  12 degrees of freedom as
           vibrations may cause significant error
 Vibrational temperatures:     54.36   119.14   179.19   186.07   311.42
          (Kelvin)            343.95   409.75   482.51   569.01   601.70
                              756.91   879.49   926.11  1103.83  1124.24
                             1143.83  1216.69  1239.49  1320.67  1376.27
                             1419.58  1454.45  1471.30  1481.75  1491.93
                             1539.71  1552.77  1600.05  1656.38  1703.17
                             1707.78  1799.15  1849.54  1888.06  1921.05
                             1928.39  1958.78  2038.47  2083.28  2107.47
                             2130.66  2135.55  2141.10  2175.46  2184.91
                             2192.18  2201.27  2348.37  2364.28  2376.76
                             4432.26  4489.41  4497.46  4502.47  4576.59
                             4595.50  4627.43  4635.46  4640.86  4644.82
                             4662.41  4845.95  4912.63

 Zero-point correction=                           0.207919 (Hartree/Particle)
 Thermal correction to Energy=                    0.217614
 Thermal correction to Enthalpy=                  0.218558
 Thermal correction to Gibbs Free Energy=         0.171999
 Sum of electronic and zero-point Energies=           -421.849562
 Sum of electronic and thermal Energies=              -421.839867
 Sum of electronic and thermal Enthalpies=            -421.838923
 Sum of electronic and thermal Free Energies=         -421.885482

                     E (Thermal)             CV                S
                      KCal/Mol        Cal/Mol-Kelvin    Cal/Mol-Kelvin
 Total                  136.555             35.913             97.991
 Electronic               0.000              0.000              0.000
 Translational            0.889              2.981             40.659
 Rotational               0.889              2.981             30.008
 Vibrational            134.777             29.951             27.324
 Vibration     1          0.594              1.982              5.372
 Vibration     2          0.600              1.961              3.823
 Vibration     3          0.610              1.928              3.029
 Vibration     4          0.612              1.924              2.956
 Vibration     5          0.645              1.816              1.989
 Vibration     6          0.657              1.781              1.810
 Vibration     7          0.683              1.702              1.505
 Vibration     8          0.716              1.605              1.234
 Vibration     9          0.762              1.480              0.979
 Vibration    10          0.781              1.431              0.898
 Vibration    11          0.881              1.192              0.596
 Vibration    12          0.970              1.008              0.431

 Optimization completed.
    -- Stationary point found.
 Normal termination of Gaussian 16 at Sun Jul 18 13:48:36 2021.

 ----------------------------------------------------------------------
 #p b3lyp/6-31G(d) scrf=(iefpcm,read,solvent=water) geom=allcheck guess
 =read
 ----------------------------------------------------------------------

 Structure from the checkpoint file:  "SET_328_BBB256_conf1.geo_180_180_090.chk"
 ---------------------------------------------
 SET_328_BBB256_conf1.geo_180_180_090 geometry
 ---------------------------------------------
 Charge =  1 Multiplicity = 1

 SCF Done:  E(RB3LYP) =  -422.057480944     A.U. after    1 cycles
 Normal termination of Gaussian 16 at Sun Jul 18 13:48:41 2021.

 -----------------------------
 #p B3LYP/6-31G* geom=allcheck
 -----------------------------

 Structure from the checkpoint file:  "SET_328_BBB256_conf1.geo_180_180_090.chk"
 ---------------------------------------------
 SET_328_BBB256_conf1.geo_180_180_090 geometry
 ---------------------------------------------
 Charge =  1 Multiplicity = 1

 SCF Done:  E(RB3LYP) =  -421.949014957     A.U. after   14 cycles
 Normal termination of Gaussian 16 at Sun Jul 18 13:48:58 2021.
 Gaussian 16:  ES64L-G16RevB.01 20-Dec-2017

 --------------------------------------------------------
 #p mp2/aug-cc-pVDZ scf=tight maxdisk=180GB geom=allcheck
 --------------------------------------------------------

 Structure from the checkpoint file:  "SET_328_BBB256_conf1.geo_180_180_090.chk"
 ---------------------------------------------
 SET_328_BBB256_conf1.geo_180_180_090 geometry
 ---------------------------------------------
 Charge =  1 Multiplicity = 1

                         Standard orientation:
 ---------------------------------------------------------------------
 Center     Atomic      Atomic             Coordinates (Angstroms)
 Number     Number       Type             X           Y           Z
 ---------------------------------------------------------------------
      1          6           0        4.121081   -0.334063   -0.701234
      2          1           0        4.002674    0.205345   -1.639046
      3          1           0        3.974937   -1.401421   -0.855808
      4          1           0        5.104436   -0.144106   -0.276476
      5          7           0        3.089344    0.152244    0.260747
      6          1           0        3.248339    1.156014    0.447877
      7          6           0        1.678513   -0.044270   -0.205700
      8          1           0        1.543832   -1.112651   -0.381499
      9          1           0        1.581132    0.488362   -1.152712
     10          6           0        0.684945    0.470573    0.832670
     11          1           0        0.837592    1.540563    0.993361
     12          1           0        0.859892   -0.042118    1.783246
     13          6           0       -0.736984    0.213637    0.389934
     14          7           0       -1.152028   -1.065264    0.431524
     15          6           0       -2.403902   -1.331099    0.035638
     16          1           0       -2.709355   -2.373098    0.084650
     17          6           0       -3.295376   -0.358413   -0.414375
     18          1           0       -4.298183   -0.634022   -0.718422
     19          6           0       -2.859751    0.963765   -0.457918
     20          1           0       -3.518389    1.754369   -0.800732
     21          6           0       -1.559107    1.254752   -0.050429
     22          1           0       -1.182651    2.271600   -0.068433
     23          1           0        3.218014   -0.326983    1.166590
 ---------------------------------------------------------------------

 SCF Done:  E(RHF) =  -419.252860709     A.U. after   14 cycles
 E2 =    -0.1456844645D+01 EUMP2 =    -0.42070970535319D+03

 The electronic state is 1-A.
 Alpha  occ. eigenvalues --  -15.88079 -15.68618 -11.46742 -11.46133 -11.40777
 Alpha  occ. eigenvalues --  -11.39787 -11.38807 -11.37032 -11.35853 -11.35028
 Alpha  occ. eigenvalues --   -1.50205  -1.37541  -1.23099  -1.19672  -1.15542
 Alpha  occ. eigenvalues --   -1.11886  -1.04925  -0.97230  -0.96240  -0.94318
 Alpha  occ. eigenvalues --   -0.86111  -0.84245  -0.80840  -0.79876  -0.76195
 Alpha  occ. eigenvalues --   -0.75711  -0.74508  -0.74123  -0.70861  -0.69536
 Alpha  occ. eigenvalues --   -0.68197  -0.66556  -0.63875  -0.62618  -0.53074
 Alpha  occ. eigenvalues --   -0.48873  -0.45257
 Alpha virt. eigenvalues --   -0.09733  -0.07229  -0.06794  -0.05615  -0.04059
 Alpha virt. eigenvalues --   -0.03597  -0.03401  -0.03180  -0.02061  -0.01867
 Alpha virt. eigenvalues --   -0.01473  -0.01275  -0.00557   0.00010   0.00420

 Mulliken charges:
               1
     1  C    0.764946
     2  H   -0.067789
     3  H   -0.069027
     4  H   -0.125749
     5  N   -0.727126
     6  H    0.218762
     7  C    1.027222
     8  H   -0.187666
     9  H   -0.218374
    10  C    0.465226
    11  H   -0.177178
    12  H   -0.064748
    13  C    0.276676
    14  N   -0.751324
    15  C    0.450760
    16  H   -0.351697
    17  C    0.920442
    18  H   -0.397182
    19  C   -0.195756
    20  H   -0.388416
    21  C    0.934856
    22  H   -0.560719
    23  H    0.223860
 Sum of Mulliken charges =   1.00000

 Dipole moment (field-independent basis, Debye):
    X=             10.7163    Y=              1.8251    Z=             -0.3544  Tot=             10.8763
 Quadrupole moment (field-independent basis, Debye-Ang):
   XX=              2.8097   YY=            -52.8670   ZZ=            -57.9467
   XY=              0.7528   XZ=              4.1138   YZ=              0.7227

 Normal termination of Gaussian 16 at Sun Jul 18 13:52:24 2021.
