 Gaussian 16, Revision B.01,

 -----------------------------------------------------------
 #p b3lyp/6-31G(d) opt freq scrf=(iefpcm,read,solvent=water)
 -----------------------------------------------------------

 ---------------------------------------------
 SET_328_BBB268_conf1.geo_225_240_255 geometry
 ---------------------------------------------
 Symbolic Z-matrix:
 Charge =  1 Multiplicity = 1

 SCF Done:  E(RB3LYP) =  -976.559082432     A.U. after   14 cycles
 SCF Done:  E(RB3LYP) =  -976.606173900     A.U. after   11 cycles
 SCF Done:  E(RB3LYP) =  -976.626138359     A.U. after   12 cycles
 SCF Done:  E(RB3LYP) =  -976.646842208     A.U. after   11 cycles
 SCF Done:  E(RB3LYP) =  -976.653598351     A.U. after   11 cycles
 SCF Done:  E(RB3LYP) =  -976.655757243     A.U. after   11 cycles
 SCF Done:  E(RB3LYP) =  -976.656339189     A.U. after   10 cycles
 SCF Done:  E(RB3LYP) =  -976.657602025     A.U. after   11 cycles
 SCF Done:  E(RB3LYP) =  -976.658696463     A.U. after   13 cycles
 SCF Done:  E(RB3LYP) =  -976.659627808     A.U. after   10 cycles
 SCF Done:  E(RB3LYP) =  -976.663278945     A.U. after    8 cycles
 SCF Done:  E(RB3LYP) =  -976.663276818     A.U. after    8 cycles
 SCF Done:  E(RB3LYP) =  -976.663276926     A.U. after    6 cycles
 SCF Done:  E(RB3LYP) =  -976.663278857     A.U. after    8 cycles
 SCF Done:  E(RB3LYP) =  -976.663276955     A.U. after    8 cycles
 SCF Done:  E(RB3LYP) =  -976.663277096     A.U. after    6 cycles
 Optimization completed on the basis of negligible forces.
    -- Stationary point found.
 Normal termination of Gaussian 16 at Sun Jul 18 15:13:08 2021.

 --------------------------------------------------------------------
 #P Geom=AllCheck Guess=TCheck SCRF=Check GenChk RB3LYP/6-31G(d) Freq
 --------------------------------------------------------------------

 Structure from the checkpoint file:  "SET_328_BBB268_conf1.geo_225_240_255.chk"
 ---------------------------------------------
 SET_328_BBB268_conf1.geo_225_240_255 geometry
 ---------------------------------------------
 Charge =  1 Multiplicity = 1

 SCF Done:  E(RB3LYP) =  -976.663277096     A.U. after    1 cycles

  Exact polarizability: 449.683  28.881 289.872  -4.584  56.997 204.095
 Approx polarizability: 464.901  27.561 323.251  -5.045  75.276 241.557

 ******    1 imaginary frequencies (negative Signs) ******

                      1                      2                      3
                      A                      A                      A
 Frequencies --    -30.4065                12.6993                30.5995
 Red. masses --      1.0380                 1.9394                 3.5024
 Frc consts  --      0.0006                 0.0002                 0.0019
 IR Inten    --      0.2686                 3.1835                 2.8954

                      4                      5                      6
                      A                      A                      A
 Frequencies --     39.0657                49.8587                55.5397
 Red. masses --      3.8159                 2.1346                 3.4783
 Frc consts  --      0.0034                 0.0031                 0.0063
 IR Inten    --      0.3485                 3.2859                 1.5366

                      7                      8                      9
                      A                      A                      A
 Frequencies --     63.8339                67.8485                99.7786
 Red. masses --      3.2607                 3.8345                 1.1638
 Frc consts  --      0.0078                 0.0104                 0.0068
 IR Inten    --      5.3987                 1.4267                 0.2973

                     10                     11                     12
                      A                      A                      A
 Frequencies --    104.9096               124.6061               141.0797
 Red. masses --      2.0870                 3.0759                 1.4559
 Frc consts  --      0.0135                 0.0281                 0.0171
 IR Inten    --      2.1468                 0.1827                 1.2319

                     13                     14                     15
                      A                      A                      A
 Frequencies --    169.6508               188.3052               212.9518
 Red. masses --      4.1829                 4.2320                 2.9882
 Frc consts  --      0.0709                 0.0884                 0.0798
 IR Inten    --      4.1013                 1.7247                 2.2596

                     16                     17                     18
                      A                      A                      A
 Frequencies --    228.5946               234.6584               241.7088
 Red. masses --      2.3770                 3.2086                 4.5100
 Frc consts  --      0.0732                 0.1041                 0.1552
 IR Inten    --      7.9734                 0.7086                 4.2924

                     19                     20                     21
                      A                      A                      A
 Frequencies --    269.4496               299.2443               326.8057
 Red. masses --      4.2633                 3.4850                 2.7515
 Frc consts  --      0.1824                 0.1839                 0.1731
 IR Inten    --      5.0596                 0.4359                 1.9888

                     22                     23                     24
                      A                      A                      A
 Frequencies --    355.8885               380.0465               383.5759
 Red. masses --      3.8948                 3.8374                 3.2061
 Frc consts  --      0.2906                 0.3266                 0.2779
 IR Inten    --      0.5224                14.0877                 7.3479

                     25                     26                     27
                      A                      A                      A
 Frequencies --    404.0200               420.5577               452.6431
 Red. masses --      4.6619                 3.0540                 3.2359
 Frc consts  --      0.4483                 0.3183                 0.3906
 IR Inten    --     10.9016                 1.1047                 6.7233

                     28                     29                     30
                      A                      A                      A
 Frequencies --    460.5802               494.4225               508.4735
 Red. masses --      3.4423                 4.5971                 1.6071
 Frc consts  --      0.4302                 0.6621                 0.2448
 IR Inten    --      1.8540                 9.6237                67.5781

                     31                     32                     33
                      A                      A                      A
 Frequencies --    519.9398               552.5614               582.3472
 Red. masses --      1.8462                 2.7120                 4.6617
 Frc consts  --      0.2941                 0.4879                 0.9314
 IR Inten    --    100.8996                14.3104                 6.8609

                     34                     35                     36
                      A                      A                      A
 Frequencies --    587.6484               598.1983               630.4576
 Red. masses --      3.1960                 4.2330                 4.5013
 Frc consts  --      0.6503                 0.8925                 1.0542
 IR Inten    --     24.0158                34.7558                 3.1534

                     37                     38                     39
                      A                      A                      A
 Frequencies --    640.8859               653.1834               710.8861
 Red. masses --      5.9020                 6.4675                 6.3829
 Frc consts  --      1.4283                 1.6258                 1.9005
 IR Inten    --      1.8556                 0.9727                 0.1469

                     40                     41                     42
                      A                      A                      A
 Frequencies --    730.9577               749.4710               754.9982
 Red. masses --      4.1754                 4.1915                 5.3265
 Frc consts  --      1.3144                 1.3872                 1.7889
 IR Inten    --      5.8821                 7.7920                 0.8862

                     43                     44                     45
                      A                      A                      A
 Frequencies --    795.5432               819.3024               823.6664
 Red. masses --      5.0743                 4.9020                 1.4688
 Frc consts  --      1.8921                 1.9387                 0.5871
 IR Inten    --      2.9190                 5.2841                61.2047

                     46                     47                     48
                      A                      A                      A
 Frequencies --    842.7803               851.2731               857.6376
 Red. masses --      1.8052                 1.9068                 2.0054
 Frc consts  --      0.7555                 0.8141                 0.8691
 IR Inten    --     27.1706                27.5613                11.2236

                     49                     50                     51
                      A                      A                      A
 Frequencies --    866.2491               870.9509               941.3268
 Red. masses --      1.2521                 3.9356                 3.2197
 Frc consts  --      0.5536                 1.7589                 1.6809
 IR Inten    --      0.8480                 7.2478                14.1451

                     52                     53                     54
                      A                      A                      A
 Frequencies --    978.0994               982.1984               986.0309
 Red. masses --      2.4756                 1.3668                 1.5366
 Frc consts  --      1.3954                 0.7769                 0.8802
 IR Inten    --      4.5243                 0.6965                 0.5792

                     55                     56                     57
                      A                      A                      A
 Frequencies --    988.8574               991.7397              1017.6950
 Red. masses --      2.3281                 1.2903                 1.4924
 Frc consts  --      1.3413                 0.7477                 0.9107
 IR Inten    --      6.3488                 0.0994                 6.6261

                     58                     59                     60
                      A                      A                      A
 Frequencies --   1032.6831              1041.5602              1075.9603
 Red. masses --      2.0175                 2.1108                 1.5391
 Frc consts  --      1.2676                 1.3492                 1.0498
 IR Inten    --      1.2767                30.9310                 9.9446

                     61                     62                     63
                      A                      A                      A
 Frequencies --   1076.7358              1085.8240              1090.4254
 Red. masses --      1.5049                 2.3568                 1.4492
 Frc consts  --      1.0280                 1.6372                 1.0152
 IR Inten    --      8.8863                 8.2228                10.8876

                     64                     65                     66
                      A                      A                      A
 Frequencies --   1136.5826              1145.9391              1165.8049
 Red. masses --      1.2213                 1.3743                 1.8543
 Frc consts  --      0.9296                 1.0633                 1.4848
 IR Inten    --      0.3850                15.0086               230.9919

                     67                     68                     69
                      A                      A                      A
 Frequencies --   1167.5926              1178.8399              1185.3750
 Red. masses --      1.7685                 1.4146                 1.4924
 Frc consts  --      1.4205                 1.1582                 1.2355
 IR Inten    --      9.9653                 3.1228                 7.2686

                     70                     71                     72
                      A                      A                      A
 Frequencies --   1214.2549              1230.8287              1247.2914
 Red. masses --      1.1282                 2.6454                 3.0237
 Frc consts  --      0.9801                 2.3612                 2.7716
 IR Inten    --     17.9861                35.8190                 3.2283

                     73                     74                     75
                      A                      A                      A
 Frequencies --   1261.0908              1285.8814              1289.7003
 Red. masses --      1.7058                 3.1127                 2.2583
 Frc consts  --      1.5984                 3.0324                 2.2131
 IR Inten    --     14.0933                60.0105                22.2571

                     76                     77                     78
                      A                      A                      A
 Frequencies --   1298.2139              1334.5519              1340.1432
 Red. masses --      1.6633                 2.0571                 2.3624
 Frc consts  --      1.6517                 2.1586                 2.4998
 IR Inten    --      5.6683                 5.3641                 8.6935

                     79                     80                     81
                      A                      A                      A
 Frequencies --   1351.5704              1357.3854              1393.5503
 Red. masses --      2.7438                 1.5735                 3.6559
 Frc consts  --      2.9531                 1.7081                 4.1830
 IR Inten    --      8.8499                 7.1694                14.1247

                     82                     83                     84
                      A                      A                      A
 Frequencies --   1404.7795              1435.7777              1436.4796
 Red. masses --      3.9330                 1.2716                 1.2838
 Frc consts  --      4.5728                 1.5445                 1.5608
 IR Inten    --     15.3259                 0.6952                 0.0461

                     85                     86                     87
                      A                      A                      A
 Frequencies --   1442.5123              1448.9746              1454.9631
 Red. masses --      3.1203                 1.4013                 2.7282
 Frc consts  --      3.8255                 1.7334                 3.4027
 IR Inten    --     31.7216                84.3935                 3.2829

                     88                     89                     90
                      A                      A                      A
 Frequencies --   1456.5836              1479.7915              1491.8164
 Red. masses --      1.5548                 1.2536                 2.1841
 Frc consts  --      1.9436                 1.6174                 2.8639
 IR Inten    --     90.9764                60.7280                79.6936

                     91                     92                     93
                      A                      A                      A
 Frequencies --   1498.3284              1500.9412              1504.3548
 Red. masses --      1.0439                 1.1484                 1.0452
 Frc consts  --      1.3807                 1.5244                 1.3937
 IR Inten    --     11.6018                22.8008                 8.1757

                     94                     95                     96
                      A                      A                      A
 Frequencies --   1504.9040              1506.2644              1509.0621
 Red. masses --      1.0691                 1.2038                 1.1430
 Frc consts  --      1.4265                 1.6092                 1.5335
 IR Inten    --      3.5621                27.5088                14.0919

                     97                     98                     99
                      A                      A                      A
 Frequencies --   1517.4978              1529.0795              1559.6108
 Red. masses --      1.0475                 1.0852                 2.9912
 Frc consts  --      1.4212                 1.4949                 4.2868
 IR Inten    --     20.6291                 3.9331               132.6221

                    100                    101                    102
                      A                      A                      A
 Frequencies --   1562.7893              1572.3262              1613.0901
 Red. masses --      1.3824                 3.9104                 5.3409
 Frc consts  --      1.9892                 5.6958                 8.1881
 IR Inten    --     78.0657                71.1907                13.7335

                    103                    104                    105
                      A                      A                      A
 Frequencies --   1620.2027              1658.9889              1672.1940
 Red. masses --      5.5564                 7.1319                 5.9810
 Frc consts  --      8.5937                11.5649                 9.8537
 IR Inten    --      6.1420                30.7999                44.5029

                    106                    107                    108
                      A                      A                      A
 Frequencies --   1709.7853              1713.6921              3061.3843
 Red. masses --      8.2639                 6.5591                 1.0378
 Frc consts  --     14.2337                11.3491                 5.7306
 IR Inten    --    618.8805                44.1010                50.3078

                    109                    110                    111
                      A                      A                      A
 Frequencies --   3066.4167              3069.3609              3074.8457
 Red. masses --      1.0379                 1.0402                 1.0365
 Frc consts  --      5.7499                 5.7736                 5.7738
 IR Inten    --     45.7841                99.6532                37.5819

                    112                    113                    114
                      A                      A                      A
 Frequencies --   3082.3802              3113.9597              3120.7881
 Red. masses --      1.0687                 1.1047                 1.1050
 Frc consts  --      5.9823                 6.3112                 6.3410
 IR Inten    --     18.6557                73.6065                12.7042

                    115                    116                    117
                      A                      A                      A
 Frequencies --   3120.9918              3134.2640              3153.2134
 Red. masses --      1.1005                 1.1019                 1.1018
 Frc consts  --      6.3160                 6.3774                 6.4546
 IR Inten    --     25.3280                18.1458                31.4803

                    118                    119                    120
                      A                      A                      A
 Frequencies --   3153.9405              3159.9079              3202.0732
 Red. masses --      1.0930                 1.1031                 1.0888
 Frc consts  --      6.4057                 6.4895                 6.5774
 IR Inten    --      2.9349                22.0723                23.6641

                    121                    122                    123
                      A                      A                      A
 Frequencies --   3205.4857              3211.7717              3215.8097
 Red. masses --      1.0891                 1.0976                 1.0960
 Frc consts  --      6.5936                 6.6710                 6.6780
 IR Inten    --     29.1337                 2.9590                17.6787

                    124                    125                    126
                      A                      A                      A
 Frequencies --   3224.7620              3231.7015              3231.8730
 Red. masses --      1.0934                 1.0906                 1.0933
 Frc consts  --      6.6991                 6.7109                 6.7283
 IR Inten    --     25.3829                 5.9477                14.5497

                    127                    128                    129
                      A                      A                      A
 Frequencies --   3262.2132              3289.9194              3586.6084
 Red. masses --      1.0955                 1.0939                 1.0832
 Frc consts  --      6.8686                 6.9758                 8.2098
 IR Inten    --      0.9954                 1.5431               438.7147

 - Thermochemistry -
 -------------------
 Temperature   298.150 Kelvin.  Pressure   1.00000 Atm.
 Atom     1 has atomic number  6 and mass  12.00000

 Molecular mass:   308.17629 amu.
 Principal axes and moments of inertia in atomic units:
                           1         2         3
     Eigenvalues --  5452.92032********************
           X            0.99999  -0.00291  -0.00202
           Y            0.00293   0.99994   0.01019
           Z            0.00199  -0.01020   0.99995
 This molecule is an asymmetric top.
 Rotational symmetry number  1.
 Warning -- assumption of classical behavior for rotation
           may cause significant error
 Rotational temperatures (Kelvin)      0.01588     0.00830     0.00589
 Rotational constants (GHZ):           0.33097     0.17289     0.12277
    1 imaginary frequencies ignored.
 Zero-point vibrational energy     998358.6 (Joules/Mol)
                                  238.61344 (Kcal/Mol)
 Warning -- explicit consideration of  34 degrees of freedom as
           vibrations may cause significant error
 Vibrational temperatures:     18.27    44.03    56.21    71.74    79.91
          (Kelvin)             91.84    97.62   143.56   150.94   179.28
                              202.98   244.09   270.93   306.39   328.90
                              337.62   347.77   387.68   430.55   470.20
                              512.04   546.80   551.88   581.29   605.09
                              651.25   662.67   711.36   731.58   748.08
                              795.01   837.87   845.50   860.67   907.09
                              922.09   939.79  1022.81  1051.69  1078.32
                             1086.27  1144.61  1178.79  1185.07  1212.57
                             1224.79  1233.95  1246.34  1253.10  1354.36
                             1407.27  1413.16  1418.68  1422.75  1426.89
                             1464.24  1485.80  1498.57  1548.07  1549.18
                             1562.26  1568.88  1635.29  1648.75  1677.33
                             1679.91  1696.09  1705.49  1747.04  1770.89
                             1794.57  1814.43  1850.10  1855.59  1867.84
                             1920.12  1928.17  1944.61  1952.97  2005.01
                             2021.16  2065.76  2066.77  2075.45  2084.75
                             2093.37  2095.70  2129.09  2146.39  2155.76
                             2159.52  2164.43  2165.22  2167.18  2171.20
                             2183.34  2200.00  2243.93  2248.51  2262.23
                             2320.88  2331.11  2386.92  2405.91  2460.00
                             2465.62  4404.65  4411.89  4416.13  4424.02
                             4434.86  4480.29  4490.12  4490.41  4509.51
                             4536.77  4537.82  4546.40  4607.07  4611.98
                             4621.02  4626.83  4639.71  4649.70  4649.94
                             4693.60  4733.46  5160.33

 Zero-point correction=                           0.380255 (Hartree/Particle)
 Thermal correction to Energy=                    0.401965
 Thermal correction to Enthalpy=                  0.402909
 Thermal correction to Gibbs Free Energy=         0.326860
 Sum of electronic and zero-point Energies=           -976.283022
 Sum of electronic and thermal Energies=              -976.261312
 Sum of electronic and thermal Enthalpies=            -976.260368
 Sum of electronic and thermal Free Energies=         -976.336417

                     E (Thermal)             CV                S
                      KCal/Mol        Cal/Mol-Kelvin    Cal/Mol-Kelvin
 Total                  252.237             81.849            160.058
 Electronic               0.000              0.000              0.000
 Translational            0.889              2.981             43.073
 Rotational               0.889              2.981             35.080
 Vibrational            250.459             75.887             81.905
 Vibration     1          0.593              1.987              7.536
 Vibration     2          0.594              1.984              5.790
 Vibration     3          0.594              1.981              5.306
 Vibration     4          0.595              1.978              4.823
 Vibration     5          0.596              1.975              4.610
 Vibration     6          0.597              1.972              4.335
 Vibration     7          0.598              1.970              4.215
 Vibration     8          0.604              1.949              3.459
 Vibration     9          0.605              1.945              3.361
 Vibration    10          0.610              1.928              3.028
 Vibration    11          0.615              1.912              2.789
 Vibration    12          0.625              1.880              2.439
 Vibration    13          0.633              1.856              2.244
 Vibration    14          0.644              1.821              2.018
 Vibration    15          0.651              1.797              1.890
 Vibration    16          0.654              1.788              1.843
 Vibration    17          0.658              1.776              1.790
 Vibration    18          0.674              1.729              1.600
 Vibration    19          0.692              1.675              1.421
 Vibration    20          0.710              1.622              1.276
 Vibration    21          0.731              1.563              1.140
 Vibration    22          0.750              1.513              1.039
 Vibration    23          0.753              1.505              1.025
 Vibration    24          0.769              1.461              0.948
 Vibration    25          0.783              1.426              0.890
 Vibration    26          0.811              1.355              0.788
 Vibration    27          0.818              1.337              0.764
 Vibration    28          0.850              1.262              0.672
 Vibration    29          0.864              1.231              0.637
 Vibration    30          0.875              1.206              0.610
 Vibration    31          0.908              1.134              0.539
 Vibration    32          0.939              1.070              0.481
 Vibration    33          0.945              1.058              0.471
 Vibration    34          0.956              1.036              0.453

 Optimization completed.
    -- Stationary point found.
 Normal termination of Gaussian 16 at Sun Jul 18 15:37:30 2021.

 ----------------------------------------------------------------------
 #p b3lyp/6-31G(d) scrf=(iefpcm,read,solvent=water) geom=allcheck guess
 =read
 ----------------------------------------------------------------------

 Structure from the checkpoint file:  "SET_328_BBB268_conf1.geo_225_240_255.chk"
 ---------------------------------------------
 SET_328_BBB268_conf1.geo_225_240_255 geometry
 ---------------------------------------------
 Charge =  1 Multiplicity = 1

 SCF Done:  E(RB3LYP) =  -976.663277096     A.U. after    1 cycles
 Normal termination of Gaussian 16 at Sun Jul 18 15:37:48 2021.

 -----------------------------
 #p B3LYP/6-31G* geom=allcheck
 -----------------------------

 Structure from the checkpoint file:  "SET_328_BBB268_conf1.geo_225_240_255.chk"
 ---------------------------------------------
 SET_328_BBB268_conf1.geo_225_240_255 geometry
 ---------------------------------------------
 Charge =  1 Multiplicity = 1

 SCF Done:  E(RB3LYP) =  -976.587655881     A.U. after   15 cycles
 Normal termination of Gaussian 16 at Sun Jul 18 15:39:05 2021.
 Gaussian 16:  ES64L-G16RevB.01 20-Dec-2017

 --------------------------------------------------------
 #p mp2/aug-cc-pVDZ scf=tight maxdisk=180GB geom=allcheck
 --------------------------------------------------------

 Structure from the checkpoint file:  "SET_328_BBB268_conf1.geo_225_240_255.chk"
 ---------------------------------------------
 SET_328_BBB268_conf1.geo_225_240_255 geometry
 ---------------------------------------------
 Charge =  1 Multiplicity = 1

                         Standard orientation:
 ---------------------------------------------------------------------
 Center     Atomic      Atomic             Coordinates (Angstroms)
 Number     Number       Type             X           Y           Z
 ---------------------------------------------------------------------
      1          6           0       -1.473549    4.355687   -1.241118
      2          1           0       -1.849042    3.745465   -2.058687
      3          1           0       -0.673936    5.008951   -1.606725
      4          1           0       -2.280020    4.981729   -0.845277
      5          7           0       -0.967830    3.475642   -0.194532
      6          6           0       -0.458142    4.152705    0.991314
      7          1           0       -1.239013    4.791940    1.413717
      8          1           0        0.397145    4.783429    0.727988
      9          1           0       -0.145687    3.441567    1.751401
     10          6           0       -0.967318    2.134412   -0.394853
     11          8           0       -1.394099    1.609017   -1.429776
     12          6           0       -0.413387    1.255552    0.743701
     13          1           0       -0.984892    1.431098    1.662059
     14          1           0        0.614208    1.546560    0.965745
     15          6           0       -0.422616   -0.191447    0.394784
     16          6           0        0.604766   -1.060599    0.107281
     17          6           0        2.057751   -0.859195    0.083480
     18          6           0        2.702038   -0.108024    1.080831
     19          6           0        4.079999    0.079773    1.044338
     20          6           0        4.861737   -0.479777    0.022911
     21          6           0        6.353189   -0.275666   -0.013732
     22          1           0        6.606222    0.787262   -0.073414
     23          1           0        6.795427   -0.778448   -0.876077
     24          1           0        6.830424   -0.667850    0.890769
     25          6           0        4.214774   -1.237742   -0.959592
     26          6           0        2.835574   -1.427791   -0.936049
     27          1           0        2.362278   -2.003101   -1.722915
     28          1           0        4.800849   -1.679809   -1.759165
     29          1           0        4.557501    0.660169    1.827906
     30          1           0        2.128197    0.305553    1.902502
     31          7           0        0.038331   -2.280926   -0.214139
     32          6           0       -1.304743   -2.209719   -0.117085
     33          6           0       -2.318620   -3.156160   -0.316355
     34          1           0       -2.060580   -4.163829   -0.612744
     35          6           0       -3.618660   -2.749514   -0.122259
     36          1           0       -4.426010   -3.458159   -0.267739
     37          6           0       -3.933428   -1.415028    0.264220
     38          6           0       -5.362229   -0.988354    0.472176
     39          1           0       -5.947298   -1.131807   -0.440369
     40          1           0       -5.422474    0.063884    0.756216
     41          1           0       -5.834496   -1.583972    1.258847
     42          6           0       -2.907420   -0.523046    0.442548
     43          1           0       -3.053448    0.507688    0.726742
     44          7           0       -1.606593   -0.923697    0.259830
     45          1           0        0.551775   -3.133993   -0.419919
 ---------------------------------------------------------------------

 SCF Done:  E(RHF) =  -970.471444756     A.U. after   17 cycles
 E2 =    -0.3332521634D+01 EUMP2 =    -0.97380396639035D+03

 The electronic state is 1-A.
 Alpha  occ. eigenvalues --  -20.63082 -15.81187 -15.77953 -15.69933 -11.49268
 Alpha  occ. eigenvalues --  -11.46921 -11.43560 -11.43549 -11.42104 -11.40663
 Alpha  occ. eigenvalues --  -11.39791 -11.39231 -11.38736 -11.37319 -11.37114
 Alpha  occ. eigenvalues --  -11.35909 -11.35892 -11.35587 -11.35045 -11.34988
 Alpha  occ. eigenvalues --  -11.34404 -11.34288 -11.31911  -1.53883  -1.48359
 Alpha  occ. eigenvalues --   -1.40392  -1.35048  -1.28676  -1.27146  -1.21706
 Alpha  occ. eigenvalues --   -1.19042  -1.16476  -1.12814  -1.12573  -1.09166
 Alpha  occ. eigenvalues --   -1.07130  -1.04800  -1.03718  -1.00382  -0.99694
 Alpha  occ. eigenvalues --   -0.95949  -0.94094  -0.90622  -0.89175  -0.85312
 Alpha  occ. eigenvalues --   -0.83599  -0.81609  -0.80976  -0.80774  -0.78801
 Alpha  occ. eigenvalues --   -0.78294  -0.76707  -0.75817  -0.75788  -0.74766
 Alpha  occ. eigenvalues --   -0.74281  -0.70732  -0.70491  -0.69665  -0.69406
 Alpha  occ. eigenvalues --   -0.68574  -0.68175  -0.67631  -0.66588  -0.66150
 Alpha  occ. eigenvalues --   -0.65863  -0.65258  -0.64724  -0.64613  -0.63248
 Alpha  occ. eigenvalues --   -0.62576  -0.61527  -0.60351  -0.59999  -0.59392
 Alpha  occ. eigenvalues --   -0.57304  -0.53036  -0.48539  -0.47345  -0.45529
 Alpha  occ. eigenvalues --   -0.44680  -0.41402
 Alpha virt. eigenvalues --   -0.06330  -0.05877  -0.05162  -0.04338  -0.03670
 Alpha virt. eigenvalues --   -0.03449  -0.02951  -0.02499  -0.02420  -0.02086
 Alpha virt. eigenvalues --   -0.01780  -0.01573  -0.01092  -0.00826  -0.00491

 Mulliken charges:
               1
     1  C    0.787280
     2  H   -0.238813
     3  H   -0.061169
     4  H   -0.079006
     5  N   -0.472622
     6  C    0.853193
     7  H   -0.083297
     8  H   -0.070795
     9  H   -0.317574
    10  C    0.520619
    11  O   -0.890785
    12  C   -0.107055
    13  H    0.134540
    14  H   -0.123782
    15  C    0.931565
    16  C   -0.568377
    17  C    2.114065
    18  C    0.498980
    19  C   -0.023698
    20  C    0.067811
    21  C    0.801703
    22  H    0.121199
    23  H   -0.180539
    24  H    0.120741
    25  C   -0.037702
    26  C    0.354178
    27  H   -0.755132
    28  H   -0.617079
    29  H   -0.660236
    30  H   -0.605758
    31  N   -0.809689
    32  C   -0.375980
    33  C    1.526918
    34  H   -0.505356
    35  C    0.171339
    36  H   -0.612019
    37  C   -0.048087
    38  C    0.510545
    39  H    0.124807
    40  H   -0.151265
    41  H    0.103915
    42  C    1.537801
    43  H   -0.694571
    44  N   -1.072175
    45  H   -0.118641
 Sum of Mulliken charges =   1.00000

 Dipole moment (field-independent basis, Debye):
    X=             -2.5240    Y=             -2.8641    Z=              2.9104  Tot=              4.8004
 Quadrupole moment (field-independent basis, Debye-Ang):
   XX=            -71.7920   YY=            -85.5345   ZZ=           -135.0524
   XY=              8.6104   XZ=             -5.7515   YZ=             12.7251

 Normal termination of Gaussian 16 at Sun Jul 18 17:18:50 2021.
