 Gaussian 16, Revision B.01,

 -----------------------------------------------------------
 #p b3lyp/6-31G(d) opt freq scrf=(iefpcm,read,solvent=water)
 -----------------------------------------------------------

 ---------------------------------------------
 SET_328_BBB321_conf1.geo_180_345_240 geometry
 ---------------------------------------------
 Symbolic Z-matrix:
 Charge =  1 Multiplicity = 1

 SCF Done:  E(RB3LYP) =  -1212.41959224     A.U. after   17 cycles
 SCF Done:  E(RB3LYP) =  -1212.54047223     A.U. after   13 cycles
 SCF Done:  E(RB3LYP) =  -1212.67110276     A.U. after   14 cycles
 SCF Done:  E(RB3LYP) =  -1212.74306479     A.U. after   14 cycles
 SCF Done:  E(RB3LYP) =  -1212.76915341     A.U. after   12 cycles
 SCF Done:  E(RB3LYP) =  -1212.78470191     A.U. after   13 cycles
 SCF Done:  E(RB3LYP) =  -1212.79014281     A.U. after   14 cycles
 SCF Done:  E(RB3LYP) =  -1212.80137139     A.U. after   11 cycles
 SCF Done:  E(RB3LYP) =  -1212.80839858     A.U. after   11 cycles
 SCF Done:  E(RB3LYP) =  -1212.81515707     A.U. after   13 cycles
 SCF Done:  E(RB3LYP) =  -1212.82264989     A.U. after    7 cycles
 SCF Done:  E(RB3LYP) =  -1212.82264973     A.U. after    7 cycles
 SCF Done:  E(RB3LYP) =  -1212.82265014     A.U. after    7 cycles
 SCF Done:  E(RB3LYP) =  -1212.82265133     A.U. after    7 cycles
 SCF Done:  E(RB3LYP) =  -1212.82265007     A.U. after    7 cycles
 SCF Done:  E(RB3LYP) =  -1212.82264989     A.U. after    6 cycles
 Optimization completed on the basis of negligible forces.
    -- Stationary point found.
 Normal termination of Gaussian 16 at Sun Jul 18 16:52:20 2021.

 --------------------------------------------------------------------
 #P Geom=AllCheck Guess=TCheck SCRF=Check GenChk RB3LYP/6-31G(d) Freq
 --------------------------------------------------------------------

 Structure from the checkpoint file:  "SET_328_BBB321_conf1.geo_180_345_240.chk"
 ---------------------------------------------
 SET_328_BBB321_conf1.geo_180_345_240 geometry
 ---------------------------------------------
 Charge =  1 Multiplicity = 1

 SCF Done:  E(RB3LYP) =  -1212.82264989     A.U. after    1 cycles

  Exact polarizability: 365.630 -15.313 309.891  -2.869  -0.638  91.064
 Approx polarizability: 395.609 -18.241 347.633  -3.883  -0.584 109.135

                      1                      2                      3
                      A                      A                      A
 Frequencies --     20.8950                38.1584                54.8946
 Red. masses --      4.6930                 8.6457                 5.8442
 Frc consts  --      0.0012                 0.0074                 0.0104
 IR Inten    --      1.3984                 9.2540                 1.0416

                      4                      5                      6
                      A                      A                      A
 Frequencies --     58.4947                66.2316                71.0567
 Red. masses --      5.7263                 2.6100                 2.5480
 Frc consts  --      0.0115                 0.0067                 0.0076
 IR Inten    --      5.7783                 8.3070                 0.2546

                      7                      8                      9
                      A                      A                      A
 Frequencies --    103.7279               124.2337               136.3907
 Red. masses --      4.4824                 1.7851                 5.0576
 Frc consts  --      0.0284                 0.0162                 0.0554
 IR Inten    --      5.4367                 0.1892                11.6257

                     10                     11                     12
                      A                      A                      A
 Frequencies --    180.2557               207.4280               249.4534
 Red. masses --      1.1553                 5.8474                 4.6295
 Frc consts  --      0.0221                 0.1482                 0.1697
 IR Inten    --    350.7903                21.0632                 8.7320

                     13                     14                     15
                      A                      A                      A
 Frequencies --    261.7769               265.3937               276.5615
 Red. masses --      7.0264                 3.9579                 4.8456
 Frc consts  --      0.2837                 0.1642                 0.2184
 IR Inten    --      1.9492                 7.2860                 1.8879

                     16                     17                     18
                      A                      A                      A
 Frequencies --    311.0957               334.3309               349.3549
 Red. masses --      5.3570                 6.6047                 1.2823
 Frc consts  --      0.3055                 0.4350                 0.0922
 IR Inten    --      8.7376                16.3098               259.7442

                     19                     20                     21
                      A                      A                      A
 Frequencies --    370.2597               403.0344               406.2304
 Red. masses --      4.0726                 4.0199                 1.1774
 Frc consts  --      0.3290                 0.3847                 0.1145
 IR Inten    --      0.5062                33.8994               189.6631

                     22                     23                     24
                      A                      A                      A
 Frequencies --    456.3993               492.7437               519.0247
 Red. masses --      3.3050                 5.2526                 1.6262
 Frc consts  --      0.4056                 0.7514                 0.2581
 IR Inten    --      4.5107                 5.0900                98.8440

                     25                     26                     27
                      A                      A                      A
 Frequencies --    545.7040               549.2625               557.4161
 Red. masses --      3.9768                 2.5864                 1.8199
 Frc consts  --      0.6977                 0.4597                 0.3332
 IR Inten    --     33.4598                 0.9625               158.7893

                     28                     29                     30
                      A                      A                      A
 Frequencies --    576.9824               603.0629               618.4166
 Red. masses --      2.0144                 3.1608                 9.1655
 Frc consts  --      0.3951                 0.6773                 2.0652
 IR Inten    --      3.1035                16.1240                 0.7703

                     31                     32                     33
                      A                      A                      A
 Frequencies --    636.3164               657.8783               660.4347
 Red. masses --      1.9503                 1.1879                 5.8171
 Frc consts  --      0.4653                 0.3029                 1.4949
 IR Inten    --     17.1280                 9.5436                 7.6752

                     34                     35                     36
                      A                      A                      A
 Frequencies --    697.1885               702.9641               709.0783
 Red. masses --      3.5025                 2.0710                 5.9615
 Frc consts  --      1.0031                 0.6030                 1.7660
 IR Inten    --      0.0562                 3.9652                11.0932

                     37                     38                     39
                      A                      A                      A
 Frequencies --    710.1961               749.1613               814.3169
 Red. masses --      3.2787                 1.7967                 1.5419
 Frc consts  --      0.9743                 0.5941                 0.6024
 IR Inten    --      1.8680                90.5107                25.7580

                     40                     41                     42
                      A                      A                      A
 Frequencies --    828.0485               868.5817               887.5209
 Red. masses --      6.8441                 6.4079                 4.5041
 Frc consts  --      2.7649                 2.8483                 2.0903
 IR Inten    --     42.4859                37.1674                 2.2011

                     43                     44                     45
                      A                      A                      A
 Frequencies --    906.0018               918.4687               950.8948
 Red. masses --      1.5877                 1.3746                 5.2911
 Frc consts  --      0.7679                 0.6832                 2.8188
 IR Inten    --     33.6331                 0.2258                 1.9143

                     46                     47                     48
                      A                      A                      A
 Frequencies --    993.6208              1002.6999              1007.5488
 Red. masses --      1.2700                 4.8895                 4.8858
 Frc consts  --      0.7387                 2.8964                 2.9222
 IR Inten    --      1.7406                 1.9285                20.1455

                     49                     50                     51
                      A                      A                      A
 Frequencies --   1017.8841              1047.6374              1066.9347
 Red. masses --      5.1672                 1.5312                 1.6679
 Frc consts  --      3.1543                 0.9901                 1.1187
 IR Inten    --      5.1312                29.6170                16.0092

                     52                     53                     54
                      A                      A                      A
 Frequencies --   1099.2117              1114.4894              1124.3767
 Red. masses --      1.6175                 1.5329                 1.6336
 Frc consts  --      1.1515                 1.1218                 1.2168
 IR Inten    --     21.9049                 8.5578                25.9675

                     55                     56                     57
                      A                      A                      A
 Frequencies --   1143.8146              1201.8539              1209.3164
 Red. masses --      1.6752                 1.1360                 1.7153
 Frc consts  --      1.2913                 0.9668                 1.4780
 IR Inten    --      8.7140                10.6195                51.5460

                     58                     59                     60
                      A                      A                      A
 Frequencies --   1252.0823              1270.6498              1290.4244
 Red. masses --      2.9878                 2.7540                 2.1523
 Frc consts  --      2.7597                 2.6198                 2.1117
 IR Inten    --    254.4880                47.4449                93.8937

                     61                     62                     63
                      A                      A                      A
 Frequencies --   1335.6427              1359.8565              1375.4200
 Red. masses --      1.9940                 4.6471                 3.9399
 Frc consts  --      2.0959                 5.0631                 4.3914
 IR Inten    --    249.0576                34.5572                80.2142

                     64                     65                     66
                      A                      A                      A
 Frequencies --   1428.1378              1445.5787              1493.9131
 Red. masses --      1.2386                 2.8410                 1.0462
 Frc consts  --      1.4884                 3.4979                 1.3756
 IR Inten    --     73.5741               115.1627                11.5852

                     67                     68                     69
                      A                      A                      A
 Frequencies --   1516.5353              1523.1967              1533.3609
 Red. masses --      1.1354                 1.9242                 2.6869
 Frc consts  --      1.5385                 2.6303                 3.7221
 IR Inten    --     25.1232               151.5519               279.7106

                     70                     71                     72
                      A                      A                      A
 Frequencies --   1550.8443              1562.7797              1591.0183
 Red. masses --      2.2660                 4.4246                 2.5865
 Frc consts  --      3.2110                 6.3668                 3.8575
 IR Inten    --    488.6766               115.7528               323.1717

                     73                     74                     75
                      A                      A                      A
 Frequencies --   1602.3330              1642.3860              1649.4205
 Red. masses --      2.5542                 2.1633                 3.6818
 Frc consts  --      3.8637                 3.4381                 5.9016
 IR Inten    --    197.4403               926.6053               110.3670

                     76                     77                     78
                      A                      A                      A
 Frequencies --   1653.2289              1660.7186              1729.7924
 Red. masses --      1.3057                 5.1815                 2.7690
 Frc consts  --      2.1026                 8.4198                 4.8816
 IR Inten    --    237.1539               313.3250               891.4554

                     79                     80                     81
                      A                      A                      A
 Frequencies --   1741.8329              3083.9560              3150.8853
 Red. masses --      6.0156                 1.0363                 1.1007
 Frc consts  --     10.7533                 5.8071                 6.4387
 IR Inten    --    378.3340                 8.9783                10.5317

                     82                     83                     84
                      A                      A                      A
 Frequencies --   3172.2060              3209.2069              3225.8411
 Red. masses --      1.1043                 1.0880                 1.0903
 Frc consts  --      6.5473                 6.6021                 6.6847
 IR Inten    --     24.4996                20.6028                17.5174

                     85                     86                     87
                      A                      A                      A
 Frequencies --   3228.8506              3289.7936              3311.6747
 Red. masses --      1.0935                 1.0917                 1.0946
 Frc consts  --      6.7170                 6.9610                 7.0726
 IR Inten    --     21.0854                 6.0798                 5.7264

                     88                     89                     90
                      A                      A                      A
 Frequencies --   3484.3777              3564.8710              3580.5985
 Red. masses --      1.0522                 1.0482                 1.0782
 Frc consts  --      7.5266                 7.8486                 8.1441
 IR Inten    --    427.3145               257.6442               332.6723

                     91                     92                     93
                      A                      A                      A
 Frequencies --   3596.9719              3628.1545              3677.2766
 Red. masses --      1.0782                 1.1023                 1.1088
 Frc consts  --      8.2194                 8.5490                 8.8337
 IR Inten    --    101.0795               437.2618               247.4412

 - Thermochemistry -
 -------------------
 Temperature   298.150 Kelvin.  Pressure   1.00000 Atm.
 Atom     1 has atomic number  6 and mass  12.00000

 Molecular mass:   276.09191 amu.
 Principal axes and moments of inertia in atomic units:
                           1         2         3
     Eigenvalues --  3369.98802********************
           X            1.00000   0.00287   0.00054
           Y           -0.00287   1.00000  -0.00111
           Z           -0.00054   0.00111   1.00000
 This molecule is an asymmetric top.
 Rotational symmetry number  1.
 Warning -- assumption of classical behavior for rotation
           may cause significant error
 Rotational temperatures (Kelvin)      0.02570     0.00799     0.00610
 Rotational constants (GHZ):           0.53553     0.16639     0.12709
 Zero-point vibrational energy     683956.1 (Joules/Mol)
                                  163.46943 (Kcal/Mol)
 Warning -- explicit consideration of  30 degrees of freedom as
           vibrations may cause significant error
 Vibrational temperatures:     30.06    54.90    78.98    84.16    95.29
          (Kelvin)            102.23   149.24   178.74   196.24   259.35
                              298.44   358.91   376.64   381.84   397.91
                              447.60   481.03   502.64   532.72   579.88
                              584.47   656.66   708.95   746.76   785.15
                              790.27   802.00   830.15   867.67   889.76
                              915.52   946.54   950.22  1003.10  1011.41
                             1020.21  1021.81  1077.88  1171.62  1191.38
                             1249.70  1276.94  1303.53  1321.47  1368.13
                             1429.60  1442.66  1449.64  1464.51  1507.32
                             1535.08  1581.52  1603.50  1617.73  1645.69
                             1729.20  1739.94  1801.47  1828.18  1856.63
                             1921.69  1956.53  1978.92  2054.77  2079.87
                             2149.41  2181.96  2191.54  2206.16  2231.32
                             2248.49  2289.12  2305.40  2363.03  2373.15
                             2378.63  2389.40  2488.79  2506.11  4437.12
                             4533.42  4564.10  4617.33  4641.27  4645.60
                             4733.28  4764.76  5013.24  5129.05  5151.68
                             5175.24  5220.11  5290.78

 Zero-point correction=                           0.260505 (Hartree/Particle)
 Thermal correction to Energy=                    0.279073
 Thermal correction to Enthalpy=                  0.280018
 Thermal correction to Gibbs Free Energy=         0.211817
 Sum of electronic and zero-point Energies=          -1212.562145
 Sum of electronic and thermal Energies=             -1212.543577
 Sum of electronic and thermal Enthalpies=           -1212.542632
 Sum of electronic and thermal Free Energies=        -1212.610833

                     E (Thermal)             CV                S
                      KCal/Mol        Cal/Mol-Kelvin    Cal/Mol-Kelvin
 Total                  175.121             69.750            143.541
 Electronic               0.000              0.000              0.000
 Translational            0.889              2.981             42.745
 Rotational               0.889              2.981             34.606
 Vibrational            173.344             63.788             66.190
 Vibration     1          0.593              1.986              6.547
 Vibration     2          0.594              1.982              5.352
 Vibration     3          0.596              1.976              4.633
 Vibration     4          0.596              1.974              4.507
 Vibration     5          0.598              1.970              4.262
 Vibration     6          0.598              1.968              4.124
 Vibration     7          0.605              1.946              3.383
 Vibration     8          0.610              1.929              3.033
 Vibration     9          0.614              1.917              2.854
 Vibration    10          0.629              1.867              2.326
 Vibration    11          0.641              1.829              2.066
 Vibration    12          0.662              1.764              1.734
 Vibration    13          0.669              1.743              1.650
 Vibration    14          0.671              1.736              1.626
 Vibration    15          0.678              1.717              1.555
 Vibration    16          0.700              1.653              1.356
 Vibration    17          0.716              1.607              1.239
 Vibration    18          0.727              1.577              1.169
 Vibration    19          0.742              1.533              1.079
 Vibration    20          0.768              1.464              0.952
 Vibration    21          0.771              1.457              0.940
 Vibration    22          0.815              1.347              0.777
 Vibration    23          0.848              1.266              0.677
 Vibration    24          0.874              1.208              0.612
 Vibration    25          0.901              1.149              0.553
 Vibration    26          0.905              1.141              0.546
 Vibration    27          0.913              1.123              0.529
 Vibration    28          0.933              1.081              0.491
 Vibration    29          0.961              1.025              0.444
 Vibration    30          0.978              0.993              0.419

 Optimization completed on the basis of negligible forces.
    -- Stationary point found.
 Normal termination of Gaussian 16 at Sun Jul 18 17:03:23 2021.

 ----------------------------------------------------------------------
 #p b3lyp/6-31G(d) scrf=(iefpcm,read,solvent=water) geom=allcheck guess
 =read
 ----------------------------------------------------------------------

 Structure from the checkpoint file:  "SET_328_BBB321_conf1.geo_180_345_240.chk"
 ---------------------------------------------
 SET_328_BBB321_conf1.geo_180_345_240 geometry
 ---------------------------------------------
 Charge =  1 Multiplicity = 1

 SCF Done:  E(RB3LYP) =  -1212.82264989     A.U. after    1 cycles
 Normal termination of Gaussian 16 at Sun Jul 18 17:03:34 2021.

 -----------------------------
 #p B3LYP/6-31G* geom=allcheck
 -----------------------------

 Structure from the checkpoint file:  "SET_328_BBB321_conf1.geo_180_345_240.chk"
 ---------------------------------------------
 SET_328_BBB321_conf1.geo_180_345_240 geometry
 ---------------------------------------------
 Charge =  1 Multiplicity = 1

 SCF Done:  E(RB3LYP) =  -1212.69110847     A.U. after   17 cycles
 Normal termination of Gaussian 16 at Sun Jul 18 17:04:23 2021.
 Gaussian 16:  ES64L-G16RevB.01 20-Dec-2017

 --------------------------------------------------------
 #p mp2/aug-cc-pVDZ scf=tight maxdisk=180GB geom=allcheck
 --------------------------------------------------------

 Structure from the checkpoint file:  "SET_328_BBB321_conf1.geo_180_345_240.chk"
 ---------------------------------------------
 SET_328_BBB321_conf1.geo_180_345_240 geometry
 ---------------------------------------------
 Charge =  1 Multiplicity = 1

                         Standard orientation:
 ---------------------------------------------------------------------
 Center     Atomic      Atomic             Coordinates (Angstroms)
 Number     Number       Type             X           Y           Z
 ---------------------------------------------------------------------
      1          6           0       -4.991696    2.768842   -0.094601
      2          1           0       -5.677440    2.998288    0.724445
      3          1           0       -5.528172    2.947184   -1.030895
      4          1           0       -4.135807    3.444606   -0.044851
      5          6           0       -4.622035    1.300577   -0.020446
      6          8           0       -5.488463    0.426239    0.032127
      7          7           0       -3.277840    1.042282   -0.027573
      8          1           0       -2.667099    1.849682   -0.070018
      9          6           0       -2.618545   -0.203309    0.006620
     10          6           0       -3.292259   -1.433104    0.055226
     11          6           0       -2.549585   -2.614361    0.082518
     12          6           0       -1.160023   -2.599925    0.062772
     13          1           0       -0.607170   -3.531950    0.087931
     14          1           0       -3.073858   -3.563510    0.121110
     15          1           0       -4.370898   -1.446407    0.070846
     16          6           0       -1.214814   -0.185428   -0.012334
     17          1           0       -0.683903    0.758393   -0.050719
     18          6           0       -0.476613   -1.373351    0.014521
     19          6           0        0.996041   -1.323254   -0.009931
     20          7           0        1.639452   -0.090775    0.006423
     21          6           0        1.837031   -2.400761   -0.050906
     22          1           0        1.589724   -3.449815   -0.074266
     23         16           0        3.497480   -1.895429   -0.070537
     24          6           0        2.932123   -0.231605   -0.020297
     25          7           0        3.849712    0.803445   -0.009180
     26          6           0        3.576121    2.140935    0.036825
     27          7           0        2.328254    2.581452    0.064545
     28          1           0        2.144309    3.579245    0.097043
     29          1           0        1.559807    1.912406    0.056728
     30          7           0        4.610624    2.975700    0.056492
     31          1           0        5.563253    2.630242    0.008302
     32          1           0        4.453061    3.978174    0.064807
     33          1           0        4.836327    0.554151   -0.023643
 ---------------------------------------------------------------------

 SCF Done:  E(RHF) =  -1207.15197631     A.U. after   18 cycles
 E2 =    -0.2817157435D+01 EUMP2 =    -0.12099691337464D+04

 The electronic state is 1-A.
 Alpha  occ. eigenvalues --  -92.13632 -20.60751 -15.81969 -15.80530 -15.79315
 Alpha  occ. eigenvalues --  -15.72311 -15.69693 -11.61206 -11.51658 -11.44470
 Alpha  occ. eigenvalues --  -11.41400 -11.39207 -11.38492 -11.35679 -11.34022
 Alpha  occ. eigenvalues --  -11.33121 -11.32999 -11.32013 -11.31977  -9.13792
 Alpha  occ. eigenvalues --   -6.81955  -6.81848  -6.81654  -1.55654  -1.45971
 Alpha  occ. eigenvalues --   -1.45811  -1.40035  -1.39169  -1.34295  -1.24683
 Alpha  occ. eigenvalues --   -1.20598  -1.17045  -1.11942  -1.11112  -1.06966
 Alpha  occ. eigenvalues --   -1.05488  -0.99933  -0.99181  -0.95778  -0.93257
 Alpha  occ. eigenvalues --   -0.91941  -0.89391  -0.87098  -0.86227  -0.84657
 Alpha  occ. eigenvalues --   -0.83643  -0.82401  -0.80071  -0.77098  -0.76263
 Alpha  occ. eigenvalues --   -0.72571  -0.72321  -0.70954  -0.69861  -0.69818
 Alpha  occ. eigenvalues --   -0.68872  -0.66175  -0.64452  -0.64148  -0.63757
 Alpha  occ. eigenvalues --   -0.62783  -0.61952  -0.60899  -0.59807  -0.58300
 Alpha  occ. eigenvalues --   -0.58089  -0.53301  -0.52219  -0.49845  -0.47471
 Alpha  occ. eigenvalues --   -0.41408  -0.38889
 Alpha virt. eigenvalues --   -0.09516  -0.07623  -0.06051  -0.05112  -0.04158
 Alpha virt. eigenvalues --   -0.03997  -0.03724  -0.03179  -0.01974  -0.01890
 Alpha virt. eigenvalues --   -0.01524  -0.00997  -0.00084   0.00182   0.00352

 Mulliken charges:
               1
     1  C    0.508777
     2  H    0.049764
     3  H    0.064076
     4  H   -0.214424
     5  C    0.492216
     6  O   -0.864142
     7  N   -0.553296
     8  H   -0.028490
     9  C   -0.577275
    10  C    1.322023
    11  C   -0.099395
    12  C    0.891977
    13  H   -0.657816
    14  H   -0.531694
    15  H   -0.654464
    16  C    1.129202
    17  H   -0.784178
    18  C    1.623707
    19  C   -0.722458
    20  N   -0.698684
    21  C    0.552069
    22  H   -0.579389
    23  S    0.456149
    24  C    0.502179
    25  N   -0.704499
    26  C    1.321884
    27  N   -0.111454
    28  H    0.010137
    29  H    0.095025
    30  N   -0.265379
    31  H   -0.000606
    32  H    0.030557
    33  H   -0.002099
 Sum of Mulliken charges =   1.00000

 Dipole moment (field-independent basis, Debye):
    X=             17.5933    Y=             10.1780    Z=             -0.1172  Tot=             20.3256
 Quadrupole moment (field-independent basis, Debye-Ang):
   XX=            -48.9908   YY=            -56.2153   ZZ=           -124.5252
   XY=             24.7140   XZ=              0.7052   YZ=              0.1104

 Normal termination of Gaussian 16 at Sun Jul 18 17:37:23 2021.
