 Gaussian 16, Revision B.01,

 -----------------------------------------------------------
 #p b3lyp/6-31G(d) opt freq scrf=(iefpcm,read,solvent=water)
 -----------------------------------------------------------

 --------------------------------------------
 SET_328_BBB29_conf1.geo_105_180_075 geometry
 --------------------------------------------
 Symbolic Z-matrix:
 Charge =  1 Multiplicity = 1

 SCF Done:  E(RB3LYP) =  -1548.93364358     A.U. after   13 cycles
 SCF Done:  E(RB3LYP) =  -1548.97332105     A.U. after   11 cycles
 SCF Done:  E(RB3LYP) =  -1548.98923810     A.U. after   11 cycles
 SCF Done:  E(RB3LYP) =  -1548.99325788     A.U. after   11 cycles
 SCF Done:  E(RB3LYP) =  -1548.99435203     A.U. after   10 cycles
 SCF Done:  E(RB3LYP) =  -1548.99437490     A.U. after   10 cycles
 SCF Done:  E(RB3LYP) =  -1548.99458779     A.U. after   10 cycles
 SCF Done:  E(RB3LYP) =  -1548.99486129     A.U. after   11 cycles
 SCF Done:  E(RB3LYP) =  -1548.99520439     A.U. after    9 cycles
 SCF Done:  E(RB3LYP) =  -1548.99565945     A.U. after   11 cycles
 SCF Done:  E(RB3LYP) =  -1548.99585621     A.U. after    9 cycles
 SCF Done:  E(RB3LYP) =  -1548.99579218     A.U. after    8 cycles
 SCF Done:  E(RB3LYP) =  -1548.99580219     A.U. after    7 cycles
 SCF Done:  E(RB3LYP) =  -1548.99578979     A.U. after    7 cycles
 SCF Done:  E(RB3LYP) =  -1548.99579668     A.U. after    7 cycles
 SCF Done:  E(RB3LYP) =  -1548.99579697     A.U. after    5 cycles
 Optimization completed.
    -- Stationary point found.
 Normal termination of Gaussian 16 at Sun Jul 18 14:44:59 2021.

 --------------------------------------------------------------------
 #P Geom=AllCheck Guess=TCheck SCRF=Check GenChk RB3LYP/6-31G(d) Freq
 --------------------------------------------------------------------

 Structure from the checkpoint file:  "SET_328_BBB29_conf1.geo_105_180_075.chk"
 --------------------------------------------
 SET_328_BBB29_conf1.geo_105_180_075 geometry
 --------------------------------------------
 Charge =  1 Multiplicity = 1

 SCF Done:  E(RB3LYP) =  -1548.99579697     A.U. after    1 cycles

  Exact polarizability: 370.887  22.926 276.871   7.711 -53.153 172.594
 Approx polarizability: 391.578  16.274 314.830  13.838 -64.228 202.833

                      1                      2                      3
                      A                      A                      A
 Frequencies --     41.8435                56.1183                58.9559
 Red. masses --      8.6194                 4.0291                 4.2486
 Frc consts  --      0.0089                 0.0075                 0.0087
 IR Inten    --      1.4655                28.8369                11.8202

                      4                      5                      6
                      A                      A                      A
 Frequencies --     92.0512               115.9017               126.1836
 Red. masses --      4.6058                 3.6523                 3.8499
 Frc consts  --      0.0230                 0.0289                 0.0361
 IR Inten    --      1.8317                 0.3187                12.9065

                      7                      8                      9
                      A                      A                      A
 Frequencies --    135.2140               185.8374               206.9790
 Red. masses --      4.1151                 5.3088                 3.2633
 Frc consts  --      0.0443                 0.1080                 0.0824
 IR Inten    --     12.0366                 2.3152                 0.2388

                     10                     11                     12
                      A                      A                      A
 Frequencies --    228.6516               259.4236               283.1244
 Red. masses --      3.0013                 4.6291                 4.1651
 Frc consts  --      0.0925                 0.1836                 0.1967
 IR Inten    --      1.7926                 7.5030                 0.8474

                     13                     14                     15
                      A                      A                      A
 Frequencies --    300.3623               317.0662               331.3320
 Red. masses --      4.7813                 2.8335                 1.4398
 Frc consts  --      0.2542                 0.1678                 0.0931
 IR Inten    --      5.4766                 0.6965                 2.1061

                     16                     17                     18
                      A                      A                      A
 Frequencies --    342.8453               374.3939               393.9243
 Red. masses --      3.4980                 7.4598                 4.9494
 Frc consts  --      0.2422                 0.6161                 0.4525
 IR Inten    --      2.7532                 8.8048                15.8763

                     19                     20                     21
                      A                      A                      A
 Frequencies --    431.2091               435.7572               452.4848
 Red. masses --      3.6215                 4.0049                 3.3904
 Frc consts  --      0.3968                 0.4480                 0.4090
 IR Inten    --      3.5919                 5.2228                 0.9106

                     22                     23                     24
                      A                      A                      A
 Frequencies --    457.8814               494.5124               542.8535
 Red. masses --      3.8050                 5.7757                 4.1862
 Frc consts  --      0.4700                 0.8322                 0.7268
 IR Inten    --      4.7862                17.3234                 3.3748

                     25                     26                     27
                      A                      A                      A
 Frequencies --    566.5063               593.1570               614.2999
 Red. masses --      5.8287                 6.6220                 5.6680
 Frc consts  --      1.1021                 1.3727                 1.2602
 IR Inten    --     12.7355                 9.9610                 4.8220

                     28                     29                     30
                      A                      A                      A
 Frequencies --    640.8302               694.9063               712.2420
 Red. masses --      5.0278                 5.9384                 5.5539
 Frc consts  --      1.2165                 1.6896                 1.6600
 IR Inten    --      4.0401                 5.7842                 0.6364

                     31                     32                     33
                      A                      A                      A
 Frequencies --    730.9474               745.5884               765.9202
 Red. masses --      4.7916                 3.4802                 1.3813
 Frc consts  --      1.5084                 1.1399                 0.4774
 IR Inten    --      2.3425                 6.7616                78.2829

                     34                     35                     36
                      A                      A                      A
 Frequencies --    771.0487               811.6764               817.4861
 Red. masses --      1.3486                 3.3929                 1.5088
 Frc consts  --      0.4724                 1.3170                 0.5941
 IR Inten    --     10.2897                34.6825                36.7808

                     37                     38                     39
                      A                      A                      A
 Frequencies --    845.1029               860.9266               874.2814
 Red. masses --      1.7017                 1.4713                 1.3949
 Frc consts  --      0.7161                 0.6425                 0.6282
 IR Inten    --     18.2166                34.4268                 1.7380

                     40                     41                     42
                      A                      A                      A
 Frequencies --    902.5463               930.9557               946.6782
 Red. masses --      2.3415                 2.5992                 1.3470
 Frc consts  --      1.1238                 1.3272                 0.7113
 IR Inten    --     21.1898               144.3542                 6.1217

                     43                     44                     45
                      A                      A                      A
 Frequencies --    952.2133               986.1655              1003.0471
 Red. masses --      1.3008                 1.2610                 1.4761
 Frc consts  --      0.6949                 0.7226                 0.8750
 IR Inten    --      1.5139                 0.5170                17.8486

                     46                     47                     48
                      A                      A                      A
 Frequencies --   1019.3669              1058.0447              1065.7935
 Red. masses --      1.9188                 4.4055                 4.8407
 Frc consts  --      1.1747                 2.9057                 3.2397
 IR Inten    --     11.7356                48.5822                26.2346

                     49                     50                     51
                      A                      A                      A
 Frequencies --   1076.1914              1077.9780              1120.6020
 Red. masses --      2.7280                 2.6456                 3.4802
 Frc consts  --      1.8616                 1.8113                 2.5749
 IR Inten    --      2.5920                11.1657                17.4108

                     52                     53                     54
                      A                      A                      A
 Frequencies --   1127.6303              1150.7452              1155.8191
 Red. masses --      2.1752                 1.6980                 1.5503
 Frc consts  --      1.6296                 1.3248                 1.2202
 IR Inten    --     67.5539                20.8238                36.8729

                     55                     56                     57
                      A                      A                      A
 Frequencies --   1168.7844              1179.5716              1194.4324
 Red. masses --      1.4004                 1.7845                 1.1298
 Frc consts  --      1.1271                 1.4629                 0.9497
 IR Inten    --      7.1279                52.8313                 1.1782

                     58                     59                     60
                      A                      A                      A
 Frequencies --   1255.3620              1275.7056              1286.2548
 Red. masses --      1.7786                 1.9791                 1.4761
 Frc consts  --      1.6515                 1.8977                 1.4389
 IR Inten    --    160.3437                96.3644                40.3666

                     61                     62                     63
                      A                      A                      A
 Frequencies --   1315.9009              1330.1758              1341.6184
 Red. masses --      1.9006                 2.1481                 3.3762
 Frc consts  --      1.9391                 2.2393                 3.5805
 IR Inten    --     30.1156               201.6212                 3.0795

                     64                     65                     66
                      A                      A                      A
 Frequencies --   1349.3786              1355.6769              1374.4422
 Red. masses --      1.9597                 3.7532                 1.2936
 Frc consts  --      2.1024                 4.0641                 1.4398
 IR Inten    --      1.6653                 6.4317                23.5064

                     67                     68                     69
                      A                      A                      A
 Frequencies --   1389.8522              1430.0822              1443.0096
 Red. masses --      1.2091                 1.8947                 1.5398
 Frc consts  --      1.3762                 2.2830                 1.8891
 IR Inten    --     12.8364                67.8766                78.2046

                     70                     71                     72
                      A                      A                      A
 Frequencies --   1463.5706              1488.1777              1499.4317
 Red. masses --      1.7227                 2.2592                 1.2172
 Frc consts  --      2.1742                 2.9479                 1.6123
 IR Inten    --     19.3244                28.6662               114.0414

                     73                     74                     75
                      A                      A                      A
 Frequencies --   1500.6465              1525.1141              1531.1234
 Red. masses --      1.9178                 1.0770                 2.4373
 Frc consts  --      2.5445                 1.4759                 3.3665
 IR Inten    --    339.7370                14.9156                29.7140

                     76                     77                     78
                      A                      A                      A
 Frequencies --   1538.3119              1545.1940              1612.5156
 Red. masses --      1.2020                 1.1088                 6.5296
 Frc consts  --      1.6759                 1.5598                10.0033
 IR Inten    --    188.7516                11.4122                43.0476

                     79                     80                     81
                      A                      A                      A
 Frequencies --   1625.3960              1631.1969              1646.3563
 Red. masses --      6.2955                 6.1733                 1.0619
 Frc consts  --      9.7994                 9.6778                 1.6958
 IR Inten    --    113.0058                 6.1751                80.5242

                     82                     83                     84
                      A                      A                      A
 Frequencies --   1651.4924              1663.8561              3036.7041
 Red. masses --      5.5855                 1.0437                 1.0728
 Frc consts  --      8.9756                 1.7024                 5.8288
 IR Inten    --     56.1784                76.9335                92.9472

                     85                     86                     87
                      A                      A                      A
 Frequencies --   3083.3435              3121.4331              3136.7562
 Red. masses --      1.0610                 1.0962                 1.0669
 Frc consts  --      5.9428                 6.2930                 6.1847
 IR Inten    --     18.5951                 6.5787                23.0216

                     88                     89                     90
                      A                      A                      A
 Frequencies --   3163.4225              3190.6830              3214.4584
 Red. masses --      1.0914                 1.1092                 1.0864
 Frc consts  --      6.4352                 6.6530                 6.6140
 IR Inten    --     27.3408                12.3803                 2.5342

                     91                     92                     93
                      A                      A                      A
 Frequencies --   3219.7487              3219.8323              3237.1218
 Red. masses --      1.0906                 1.0902                 1.0943
 Frc consts  --      6.6612                 6.6590                 6.7562
 IR Inten    --     15.3576                10.4153                42.9838

                     94                     95                     96
                      A                      A                      A
 Frequencies --   3245.5441              3249.9168              3269.2627
 Red. masses --      1.0937                 1.0940                 1.0907
 Frc consts  --      6.7877                 6.8078                 6.8682
 IR Inten    --     19.1931                 5.2196                 2.6466

                     97                     98                     99
                      A                      A                      A
 Frequencies --   3391.0760              3456.7575              3475.4830
 Red. masses --      1.0348                 1.0917                 1.0945
 Frc consts  --      7.0112                 7.6859                 7.7890
 IR Inten    --    113.6092               239.9943               233.4550

 - Thermochemistry -
 -------------------
 Temperature   298.150 Kelvin.  Pressure   1.00000 Atm.
 Atom     1 has atomic number  7 and mass  14.00307

 Molecular mass:   291.07227 amu.
 Principal axes and moments of inertia in atomic units:
                           1         2         3
     Eigenvalues --  4735.178737628.57452**********
           X            0.99857  -0.05114  -0.01560
           Y            0.05116   0.99869   0.00096
           Z            0.01553  -0.00175   0.99988
 This molecule is an asymmetric top.
 Rotational symmetry number  1.
 Warning -- assumption of classical behavior for rotation
           may cause significant error
 Rotational temperatures (Kelvin)      0.01829     0.01135     0.00798
 Rotational constants (GHZ):           0.38113     0.23658     0.16621
 Zero-point vibrational energy     757282.7 (Joules/Mol)
                                  180.99491 (Kcal/Mol)
 Warning -- explicit consideration of  27 degrees of freedom as
           vibrations may cause significant error
 Vibrational temperatures:     60.20    80.74    84.82   132.44   166.76
          (Kelvin)            181.55   194.54   267.38   297.80   328.98
                              373.25   407.35   432.15   456.19   476.71
                              493.28   538.67   566.77   620.41   626.96
                              651.02   658.79   711.49   781.05   815.08
                              853.42   883.84   922.01   999.82  1024.76
                             1051.67  1072.74  1101.99  1109.37  1167.82
                             1176.18  1215.91  1238.68  1257.90  1298.56
                             1339.44  1362.06  1370.02  1418.87  1443.16
                             1466.64  1522.29  1533.44  1548.40  1550.97
                             1612.30  1622.41  1655.67  1662.97  1681.62
                             1697.14  1718.52  1806.19  1835.46  1850.63
                             1893.29  1913.83  1930.29  1941.45  1950.52
                             1977.52  1999.69  2057.57  2076.17  2105.75
                             2141.16  2157.35  2159.10  2194.30  2202.95
                             2213.29  2223.19  2320.05  2338.58  2346.93
                             2368.74  2376.13  2393.92  4369.14  4436.24
                             4491.05  4513.09  4551.46  4590.68  4624.89
                             4632.50  4632.62  4657.50  4669.61  4675.91
                             4703.74  4879.00  4973.50  5000.44

 Zero-point correction=                           0.288434 (Hartree/Particle)
 Thermal correction to Energy=                    0.305138
 Thermal correction to Enthalpy=                  0.306083
 Thermal correction to Gibbs Free Energy=         0.243676
 Sum of electronic and zero-point Energies=          -1548.707363
 Sum of electronic and thermal Energies=             -1548.690659
 Sum of electronic and thermal Enthalpies=           -1548.689714
 Sum of electronic and thermal Free Energies=        -1548.752121

                     E (Thermal)             CV                S
                      KCal/Mol        Cal/Mol-Kelvin    Cal/Mol-Kelvin
 Total                  191.477             65.825            131.346
 Electronic               0.000              0.000              0.000
 Translational            0.889              2.981             42.903
 Rotational               0.889              2.981             34.327
 Vibrational            189.700             59.864             54.116
 Vibration     1          0.594              1.980              5.170
 Vibration     2          0.596              1.975              4.589
 Vibration     3          0.596              1.974              4.492
 Vibration     4          0.602              1.955              3.616
 Vibration     5          0.608              1.936              3.168
 Vibration     6          0.611              1.927              3.003
 Vibration     7          0.613              1.918              2.871
 Vibration     8          0.632              1.859              2.269
 Vibration     9          0.641              1.830              2.070
 Vibration    10          0.651              1.797              1.890
 Vibration    11          0.668              1.747              1.666
 Vibration    12          0.682              1.705              1.515
 Vibration    13          0.693              1.673              1.415
 Vibration    14          0.704              1.641              1.325
 Vibration    15          0.714              1.613              1.254
 Vibration    16          0.722              1.590              1.199
 Vibration    17          0.746              1.525              1.062
 Vibration    18          0.761              1.483              0.985
 Vibration    19          0.792              1.402              0.855
 Vibration    20          0.796              1.392              0.840
 Vibration    21          0.811              1.355              0.788
 Vibration    22          0.816              1.343              0.772
 Vibration    23          0.850              1.262              0.672
 Vibration    24          0.898              1.155              0.559
 Vibration    25          0.922              1.104              0.511
 Vibration    26          0.951              1.046              0.462
 Vibration    27          0.974              1.002              0.426

 Optimization completed.
    -- Stationary point found.
 Normal termination of Gaussian 16 at Sun Jul 18 14:59:06 2021.

 ----------------------------------------------------------------------
 #p b3lyp/6-31G(d) scrf=(iefpcm,read,solvent=water) geom=allcheck guess
 =read
 ----------------------------------------------------------------------

 Structure from the checkpoint file:  "SET_328_BBB29_conf1.geo_105_180_075.chk"
 --------------------------------------------
 SET_328_BBB29_conf1.geo_105_180_075 geometry
 --------------------------------------------
 Charge =  1 Multiplicity = 1

 SCF Done:  E(RB3LYP) =  -1548.99579697     A.U. after    3 cycles
 Normal termination of Gaussian 16 at Sun Jul 18 14:59:29 2021.

 -----------------------------
 #p B3LYP/6-31G* geom=allcheck
 -----------------------------

 Structure from the checkpoint file:  "SET_328_BBB29_conf1.geo_105_180_075.chk"
 --------------------------------------------
 SET_328_BBB29_conf1.geo_105_180_075 geometry
 --------------------------------------------
 Charge =  1 Multiplicity = 1

 SCF Done:  E(RB3LYP) =  -1548.87229307     A.U. after   15 cycles

 The electronic state is 1-A.
 Alpha  occ. eigenvalues -- -101.63975 -88.97886 -14.66921 -14.48276 -10.43656
 Alpha  occ. eigenvalues --  -10.37108 -10.35935 -10.34864 -10.34565 -10.33297
 Alpha  occ. eigenvalues --  -10.31942 -10.31108 -10.30648 -10.29659 -10.29223
 Alpha  occ. eigenvalues --  -10.28753 -10.28197 -10.28023 -10.27493  -9.55597
 Alpha  occ. eigenvalues --   -8.03929  -7.31994  -7.31019  -7.30997  -6.00438
 Alpha  occ. eigenvalues --   -6.00078  -5.99414  -1.20965  -1.08224  -0.98566
 Alpha  occ. eigenvalues --   -0.97211  -0.94757  -0.93797  -0.88878  -0.87312
 Alpha  occ. eigenvalues --   -0.86296  -0.83439  -0.82569  -0.80174  -0.79144
 Alpha  occ. eigenvalues --   -0.77433  -0.76412  -0.72586  -0.71262  -0.69694
 Alpha  occ. eigenvalues --   -0.68770  -0.65993  -0.63719  -0.63431  -0.62618
 Alpha  occ. eigenvalues --   -0.59643  -0.58143  -0.57923  -0.56916  -0.55327
 Alpha  occ. eigenvalues --   -0.54459  -0.54354  -0.53488  -0.52726  -0.51744
 Alpha  occ. eigenvalues --   -0.51077  -0.49908  -0.48592  -0.47796  -0.47369
 Alpha  occ. eigenvalues --   -0.45293  -0.44382  -0.43770  -0.41711  -0.40725
 Alpha  occ. eigenvalues --   -0.40522  -0.37836  -0.35400  -0.34067  -0.32140
 Alpha  occ. eigenvalues --   -0.28666
 Alpha virt. eigenvalues --   -0.17342  -0.11354  -0.11004  -0.10851  -0.10379
 Alpha virt. eigenvalues --   -0.09522  -0.08536  -0.07225  -0.06426  -0.04710
 Alpha virt. eigenvalues --   -0.04574  -0.03465  -0.01800  -0.00786   0.00809

 Mulliken charges:
               1
     1  N   -0.725098
     2  H    0.434678
     3  H    0.431155
     4  C   -0.223164
     5  H    0.238330
     6  H    0.230505
     7  C   -0.304894
     8  H    0.188988
     9  H    0.228191
    10  C   -0.150339
    11  H    0.185288
    12  H    0.128437
    13  N   -0.581961
    14  C    0.312748
    15  C   -0.160425
    16  H    0.094685
    17  C   -0.085202
    18  Cl  -0.016121
    19  C   -0.112911
    20  H    0.179330
    21  C   -0.173096
    22  H    0.178344
    23  C   -0.117539
    24  S    0.203206
    25  C   -0.125258
    26  C    0.302413
    27  C   -0.168895
    28  H    0.121665
    29  C   -0.143031
    30  H    0.151318
    31  C   -0.112400
    32  H    0.158327
    33  C   -0.170603
    34  H    0.167710
    35  H    0.435621
 Sum of Mulliken charges =   1.00000

 Dipole moment (field-independent basis, Debye):
    X=             -8.7353    Y=             16.4594    Z=              0.7256  Tot=             18.6479
 Quadrupole moment (field-independent basis, Debye-Ang):
   XX=            -79.8999   YY=            -45.1797   ZZ=           -121.6009
   XY=            -43.4754   XZ=             -7.1124   YZ=             -0.9654

 Normal termination of Gaussian 16 at Sun Jul 18 15:00:22 2021.
 Gaussian 16:  ES64L-G16RevB.01 20-Dec-2017

 --------------------------------------------------------
 #p mp2/aug-cc-pVDZ scf=tight maxdisk=180GB geom=allcheck
 --------------------------------------------------------

 Structure from the checkpoint file:  "SET_328_BBB29_conf1.geo_105_180_075.chk"
 --------------------------------------------
 SET_328_BBB29_conf1.geo_105_180_075 geometry
 --------------------------------------------
 Charge =  1 Multiplicity = 1

                         Standard orientation:
 ---------------------------------------------------------------------
 Center     Atomic      Atomic             Coordinates (Angstroms)
 Number     Number       Type             X           Y           Z
 ---------------------------------------------------------------------
      1          7           0       -2.779719    3.784097    0.068080
      2          1           0       -3.521092    3.078392    0.192236
      3          1           0       -2.408477    3.683176   -0.891352
      4          6           0       -1.707847    3.645365    1.118332
      5          1           0       -2.193485    3.863154    2.069155
      6          1           0       -0.974093    4.425591    0.913833
      7          6           0       -1.085451    2.253645    1.140813
      8          1           0       -1.873065    1.496540    1.198788
      9          1           0       -0.509154    2.175994    2.067824
     10          6           0       -0.140615    1.963780   -0.033452
     11          1           0        0.653555    2.709029   -0.026215
     12          1           0       -0.650900    2.049996   -1.001877
     13          7           0        0.498533    0.652638    0.111194
     14          6           0       -0.314562   -0.501207    0.083394
     15          6           0       -1.614877   -0.473654   -0.437924
     16          1           0       -2.021434    0.433862   -0.859296
     17          6           0       -2.389764   -1.629071   -0.415617
     18         17           0       -4.028309   -1.550130   -1.055770
     19          6           0       -1.909031   -2.835351    0.080166
     20          1           0       -2.529638   -3.722048    0.084910
     21          6           0       -0.602175   -2.869492    0.568616
     22          1           0       -0.196107   -3.798965    0.953541
     23          6           0        0.181312   -1.717620    0.591512
     24         16           0        1.798111   -1.734959    1.335034
     25          6           0        2.595463   -0.588746    0.227645
     26          6           0        1.862357    0.510280   -0.257258
     27          6           0        2.515047    1.424189   -1.096446
     28          1           0        1.970079    2.257066   -1.521255
     29          6           0        3.868172    1.270019   -1.399670
     30          1           0        4.351748    1.999871   -2.039551
     31          6           0        4.586926    0.182273   -0.906688
     32          1           0        5.635813    0.057847   -1.147676
     33          6           0        3.938051   -0.758628   -0.106468
     34          1           0        4.473234   -1.621463    0.274458
     35          1           0       -3.225226    4.711690    0.123378
 ---------------------------------------------------------------------

 SCF Done:  E(RHF) =  -1543.11850295     A.U. after   17 cycles
