 Gaussian 16, Revision B.01,

 -----------------------------------------------------------
 #p b3lyp/6-31G(d) opt freq scrf=(iefpcm,read,solvent=water)
 -----------------------------------------------------------

 --------------------------------------------
 SET_328_BBB29_conf1.geo_090_075_075 geometry
 --------------------------------------------
 Symbolic Z-matrix:
 Charge =  1 Multiplicity = 1

 SCF Done:  E(RB3LYP) =  -1548.94294703     A.U. after   13 cycles
 SCF Done:  E(RB3LYP) =  -1548.97851527     A.U. after   11 cycles
 SCF Done:  E(RB3LYP) =  -1548.99184472     A.U. after   11 cycles
 SCF Done:  E(RB3LYP) =  -1548.99493358     A.U. after   11 cycles
 SCF Done:  E(RB3LYP) =  -1548.99588481     A.U. after   11 cycles
 SCF Done:  E(RB3LYP) =  -1548.99625532     A.U. after   11 cycles
 SCF Done:  E(RB3LYP) =  -1548.99601961     A.U. after   11 cycles
 SCF Done:  E(RB3LYP) =  -1548.99660272     A.U. after   10 cycles
 SCF Done:  E(RB3LYP) =  -1548.99660053     A.U. after   10 cycles
 SCF Done:  E(RB3LYP) =  -1548.99695141     A.U. after   10 cycles
 SCF Done:  E(RB3LYP) =  -1548.99692645     A.U. after    9 cycles
 SCF Done:  E(RB3LYP) =  -1548.99701464     A.U. after    9 cycles
 SCF Done:  E(RB3LYP) =  -1548.99696314     A.U. after    9 cycles
 SCF Done:  E(RB3LYP) =  -1548.99694462     A.U. after    7 cycles
 SCF Done:  E(RB3LYP) =  -1548.99694342     A.U. after    8 cycles
 SCF Done:  E(RB3LYP) =  -1548.99694456     A.U. after    8 cycles
 Optimization completed.
    -- Stationary point found.
 Normal termination of Gaussian 16 at Sun Jul 18 14:54:11 2021.

 --------------------------------------------------------------------
 #P Geom=AllCheck Guess=TCheck SCRF=Check GenChk RB3LYP/6-31G(d) Freq
 --------------------------------------------------------------------

 Structure from the checkpoint file:  "SET_328_BBB29_conf1.geo_090_075_075.chk"
 --------------------------------------------
 SET_328_BBB29_conf1.geo_090_075_075 geometry
 --------------------------------------------
 Charge =  1 Multiplicity = 1

 SCF Done:  E(RB3LYP) =  -1548.99694456     A.U. after    1 cycles

  Exact polarizability: 369.694  24.581 231.160 -18.844  65.017 218.303
 Approx polarizability: 387.767  26.270 265.270 -16.788  81.567 256.564

                      1                      2                      3
                      A                      A                      A
 Frequencies --     41.6790                43.6319                52.1463
 Red. masses --      4.0120                 8.0133                 4.0206
 Frc consts  --      0.0041                 0.0090                 0.0064
 IR Inten    --     16.5684                 1.6416                26.1487

                      4                      5                      6
                      A                      A                      A
 Frequencies --     92.6763               101.3253               130.2276
 Red. masses --      4.0321                 3.7930                 4.7946
 Frc consts  --      0.0204                 0.0229                 0.0479
 IR Inten    --      7.6200                 7.6182                 0.1152

                      7                      8                      9
                      A                      A                      A
 Frequencies --    141.6091               172.7811               207.7664
 Red. masses --      4.6309                 2.0690                 3.6622
 Frc consts  --      0.0547                 0.0364                 0.0931
 IR Inten    --     15.5540                 1.4798                 1.1431

                     10                     11                     12
                      A                      A                      A
 Frequencies --    222.7708               249.8233               263.6263
 Red. masses --      4.6651                 1.9677                 2.6482
 Frc consts  --      0.1364                 0.0724                 0.1084
 IR Inten    --      4.8062                 0.5515                 4.7951

                     13                     14                     15
                      A                      A                      A
 Frequencies --    280.7677               315.5659               345.2098
 Red. masses --      6.2400                 7.5257                 3.3281
 Frc consts  --      0.2898                 0.4415                 0.2337
 IR Inten    --      5.3661                 0.9259                 5.7258

                     16                     17                     18
                      A                      A                      A
 Frequencies --    368.2527               378.0006               402.1958
 Red. masses --      3.5730                 4.3529                 3.1829
 Frc consts  --      0.2855                 0.3664                 0.3034
 IR Inten    --      3.4506                 3.1857                10.4704

                     19                     20                     21
                      A                      A                      A
 Frequencies --    430.7693               446.9022               452.8056
 Red. masses --      4.6749                 4.4831                 3.6980
 Frc consts  --      0.5111                 0.5275                 0.4467
 IR Inten    --      3.6378                 5.0161                 1.6248

                     22                     23                     24
                      A                      A                      A
 Frequencies --    481.8463               497.2474               540.3615
 Red. masses --      2.8979                 4.4890                 4.2114
 Frc consts  --      0.3964                 0.6539                 0.7245
 IR Inten    --     15.5240                 9.0801                 8.1150

                     25                     26                     27
                      A                      A                      A
 Frequencies --    560.9813               593.7715               603.4015
 Red. masses --      4.2008                 7.1620                 4.8259
 Frc consts  --      0.7789                 1.4877                 1.0352
 IR Inten    --     13.3506                12.5474                 4.2251

                     28                     29                     30
                      A                      A                      A
 Frequencies --    635.3323               692.1522               708.9392
 Red. masses --      5.4352                 5.8085                 5.0961
 Frc consts  --      1.2926                 1.6395                 1.5090
 IR Inten    --      1.0595                 7.0482                 2.2483

                     31                     32                     33
                      A                      A                      A
 Frequencies --    732.2371               745.5657               763.6853
 Red. masses --      4.9960                 3.7650                 1.3756
 Frc consts  --      1.5782                 1.2331                 0.4727
 IR Inten    --      3.6276                 1.6549               114.1244

                     34                     35                     36
                      A                      A                      A
 Frequencies --    776.7570               805.5962               816.4503
 Red. masses --      1.8947                 2.8529                 1.3723
 Frc consts  --      0.6735                 1.0909                 0.5390
 IR Inten    --      1.1028                17.2553                37.8410

                     37                     38                     39
                      A                      A                      A
 Frequencies --    828.9646               862.7391               874.9555
 Red. masses --      2.2158                 1.4758                 1.3607
 Frc consts  --      0.8971                 0.6472                 0.6137
 IR Inten    --     19.6945                31.4893                 1.4288

                     40                     41                     42
                      A                      A                      A
 Frequencies --    912.3651               935.7919               947.3405
 Red. masses --      2.7814                 1.7684                 1.3904
 Frc consts  --      1.3641                 0.9124                 0.7352
 IR Inten    --    110.2715                57.2921                 3.5124

                     43                     44                     45
                      A                      A                      A
 Frequencies --    950.7160               951.1583               987.1472
 Red. masses --      1.3239                 2.1274                 1.2627
 Frc consts  --      0.7050                 1.1340                 0.7250
 IR Inten    --      1.9210                 2.6882                 0.6208

                     46                     47                     48
                      A                      A                      A
 Frequencies --   1018.4006              1050.5818              1066.0591
 Red. masses --      1.8330                 2.0420                 3.9222
 Frc consts  --      1.1201                 1.3279                 2.6263
 IR Inten    --     33.3779                 9.3141                42.0857

                     49                     50                     51
                      A                      A                      A
 Frequencies --   1071.6560              1081.2502              1111.6098
 Red. masses --      3.6377                 2.4326                 2.6405
 Frc consts  --      2.4614                 1.6756                 1.9224
 IR Inten    --     17.7927                 9.4604                14.7620

                     52                     53                     54
                      A                      A                      A
 Frequencies --   1124.8280              1140.3957              1155.5466
 Red. masses --      1.9338                 2.1811                 1.5575
 Frc consts  --      1.4415                 1.6712                 1.2254
 IR Inten    --     51.9554                11.9885                38.4445

                     55                     56                     57
                      A                      A                      A
 Frequencies --   1159.9426              1169.6880              1193.4461
 Red. masses --      1.9103                 1.4196                 1.1204
 Frc consts  --      1.5144                 1.1443                 0.9402
 IR Inten    --     47.3567                14.2467                 1.8767

                     58                     59                     60
                      A                      A                      A
 Frequencies --   1251.2556              1278.3908              1287.5487
 Red. masses --      1.8266                 1.9097                 1.5401
 Frc consts  --      1.6849                 1.8388                 1.5043
 IR Inten    --    157.0867               118.1485                60.4393

                     61                     62                     63
                      A                      A                      A
 Frequencies --   1310.7519              1325.8733              1334.5111
 Red. masses --      1.5675                 1.6380                 4.3449
 Frc consts  --      1.5868                 1.6965                 4.5590
 IR Inten    --     35.7172                12.7184                97.6990

                     64                     65                     66
                      A                      A                      A
 Frequencies --   1350.0538              1353.1834              1367.4951
 Red. masses --      2.7372                 5.7808                 1.1785
 Frc consts  --      2.9394                 6.2367                 1.2984
 IR Inten    --     52.7831                22.7314                32.2531

                     67                     68                     69
                      A                      A                      A
 Frequencies --   1399.8453              1426.6862              1434.5723
 Red. masses --      1.3264                 2.1517                 1.5279
 Frc consts  --      1.5314                 2.5804                 1.8526
 IR Inten    --     26.9476                70.4451                25.2559

                     70                     71                     72
                      A                      A                      A
 Frequencies --   1467.8226              1486.9640              1490.3796
 Red. masses --      1.5562                 1.4777                 1.4823
 Frc consts  --      1.9755                 1.9250                 1.9398
 IR Inten    --     17.3660                43.4346                 1.4144

                     73                     74                     75
                      A                      A                      A
 Frequencies --   1500.2180              1511.3591              1527.0248
 Red. masses --      2.3144                 1.0810                 1.1919
 Frc consts  --      3.0690                 1.4548                 1.6375
 IR Inten    --    434.3113                17.6644               208.3339

                     76                     77                     78
                      A                      A                      A
 Frequencies --   1531.3221              1556.6552              1611.4861
 Red. masses --      2.5046                 1.1009                 6.3307
 Frc consts  --      3.4603                 1.5717                 9.6863
 IR Inten    --     22.8932                39.5767                46.3601

                     79                     80                     81
                      A                      A                      A
 Frequencies --   1623.5826              1630.1728              1639.4125
 Red. masses --      6.2816                 6.1182                 1.0393
 Frc consts  --      9.7559                 9.5794                 1.6457
 IR Inten    --    104.1824                 5.3698                64.8621

                     82                     83                     84
                      A                      A                      A
 Frequencies --   1649.4774              1649.8819              3053.7332
 Red. masses --      1.1704                 3.8151                 1.0738
 Frc consts  --      1.8762                 6.1187                 5.9000
 IR Inten    --     95.9275                36.0136                66.7741

                     85                     86                     87
                      A                      A                      A
 Frequencies --   3087.4689              3130.6543              3139.8502
 Red. masses --      1.0661                 1.0797                 1.0784
 Frc consts  --      5.9874                 6.2349                 6.2640
 IR Inten    --     35.5507                 1.8926                22.3029

                     88                     89                     90
                      A                      A                      A
 Frequencies --   3171.3911              3192.3698              3210.6851
 Red. masses --      1.0893                 1.1100                 1.0863
 Frc consts  --      6.4547                 6.6648                 6.5980
 IR Inten    --     35.4068                11.2721                 1.9482

                     91                     92                     93
                      A                      A                      A
 Frequencies --   3216.1889              3227.9572              3230.7950
 Red. masses --      1.0903                 1.0898                 1.0928
 Frc consts  --      6.6449                 6.6902                 6.7205
 IR Inten    --     15.2476                 7.5190                37.5768

                     94                     95                     96
                      A                      A                      A
 Frequencies --   3237.3546              3251.0841              3259.4421
 Red. masses --      1.0959                 1.0943                 1.0908
 Frc consts  --      6.7669                 6.8144                 6.8281
 IR Inten    --     25.7164                 5.2557                 1.7172

                     97                     98                     99
                      A                      A                      A
 Frequencies --   3361.3271              3433.5944              3464.4270
 Red. masses --      1.0411                 1.0870                 1.0919
 Frc consts  --      6.9305                 7.5508                 7.7214
 IR Inten    --    127.1072               213.6952               243.4632

 - Thermochemistry -
 -------------------
 Temperature   298.150 Kelvin.  Pressure   1.00000 Atm.
 Atom     1 has atomic number  7 and mass  14.00307

 Molecular mass:   291.07227 amu.
 Principal axes and moments of inertia in atomic units:
                           1         2         3
     Eigenvalues --  4297.337587904.803279795.09636
           X            0.99982  -0.01384  -0.01333
           Y            0.01363   0.99978  -0.01586
           Z            0.01355   0.01568   0.99979
 This molecule is an asymmetric top.
 Rotational symmetry number  1.
 Warning -- assumption of classical behavior for rotation
           may cause significant error
 Rotational temperatures (Kelvin)      0.02016     0.01096     0.00884
 Rotational constants (GHZ):           0.41997     0.22831     0.18425
 Zero-point vibrational energy     755762.9 (Joules/Mol)
                                  180.63167 (Kcal/Mol)
 Warning -- explicit consideration of  27 degrees of freedom as
           vibrations may cause significant error
 Vibrational temperatures:     59.97    62.78    75.03   133.34   145.78
          (Kelvin)            187.37   203.74   248.59   298.93   320.52
                              359.44   379.30   403.96   454.03   496.68
                              529.83   543.86   578.67   619.78   642.99
                              651.49   693.27   715.43   777.46   807.13
                              854.30   868.16   914.10   995.85  1020.01
                             1053.53  1072.70  1098.77  1117.58  1159.07
                             1174.69  1192.70  1241.29  1258.87  1312.69
                             1346.40  1363.01  1367.87  1368.50  1420.28
                             1465.25  1511.55  1533.82  1541.87  1555.68
                             1599.36  1618.38  1640.78  1662.57  1668.90
                             1682.92  1717.10  1800.28  1839.32  1852.50
                             1885.88  1907.64  1920.06  1942.43  1946.93
                             1967.52  2014.07  2052.68  2064.03  2111.87
                             2139.41  2144.32  2158.48  2174.51  2197.05
                             2203.23  2239.68  2318.57  2335.97  2345.46
                             2358.75  2373.23  2373.81  4393.64  4442.18
                             4504.31  4517.54  4562.92  4593.11  4619.46
                             4627.38  4644.31  4648.39  4657.83  4677.58
                             4689.61  4836.20  4940.18  4984.54

 Zero-point correction=                           0.287855 (Hartree/Particle)
 Thermal correction to Energy=                    0.304648
 Thermal correction to Enthalpy=                  0.305592
 Thermal correction to Gibbs Free Energy=         0.242744
 Sum of electronic and zero-point Energies=          -1548.709090
 Sum of electronic and thermal Energies=             -1548.692297
 Sum of electronic and thermal Enthalpies=           -1548.691353
 Sum of electronic and thermal Free Energies=        -1548.754201

                     E (Thermal)             CV                S
                      KCal/Mol        Cal/Mol-Kelvin    Cal/Mol-Kelvin
 Total                  191.169             65.948            132.275
 Electronic               0.000              0.000              0.000
 Translational            0.889              2.981             42.903
 Rotational               0.889              2.981             34.164
 Vibrational            189.392             59.986             55.208
 Vibration     1          0.594              1.981              5.178
 Vibration     2          0.595              1.980              5.087
 Vibration     3          0.596              1.977              4.734
 Vibration     4          0.602              1.954              3.603
 Vibration     5          0.604              1.948              3.429
 Vibration     6          0.612              1.923              2.943
 Vibration     7          0.615              1.912              2.782
 Vibration     8          0.626              1.876              2.405
 Vibration     9          0.641              1.829              2.063
 Vibration    10          0.648              1.806              1.936
 Vibration    11          0.663              1.763              1.732
 Vibration    12          0.670              1.740              1.638
 Vibration    13          0.680              1.709              1.529
 Vibration    14          0.703              1.644              1.333
 Vibration    15          0.724              1.585              1.188
 Vibration    16          0.741              1.538              1.087
 Vibration    17          0.748              1.517              1.047
 Vibration    18          0.768              1.465              0.955
 Vibration    19          0.792              1.403              0.856
 Vibration    20          0.806              1.368              0.805
 Vibration    21          0.811              1.355              0.787
 Vibration    22          0.838              1.290              0.705
 Vibration    23          0.853              1.256              0.665
 Vibration    24          0.895              1.161              0.565
 Vibration    25          0.917              1.116              0.522
 Vibration    26          0.951              1.045              0.460
 Vibration    27          0.962              1.025              0.444

                           ! Non-Optimized Parameters !
 Normal termination of Gaussian 16 at Sun Jul 18 15:09:07 2021.

 ----------------------------------------------------------------------
 #p b3lyp/6-31G(d) scrf=(iefpcm,read,solvent=water) geom=allcheck guess
 =read
 ----------------------------------------------------------------------

 Structure from the checkpoint file:  "SET_328_BBB29_conf1.geo_090_075_075.chk"
 --------------------------------------------
 SET_328_BBB29_conf1.geo_090_075_075 geometry
 --------------------------------------------
 Charge =  1 Multiplicity = 1

 SCF Done:  E(RB3LYP) =  -1548.99694456     A.U. after    1 cycles
 Normal termination of Gaussian 16 at Sun Jul 18 15:09:19 2021.

 -----------------------------
 #p B3LYP/6-31G* geom=allcheck
 -----------------------------

 Structure from the checkpoint file:  "SET_328_BBB29_conf1.geo_090_075_075.chk"
 --------------------------------------------
 SET_328_BBB29_conf1.geo_090_075_075 geometry
 --------------------------------------------
 Charge =  1 Multiplicity = 1

 SCF Done:  E(RB3LYP) =  -1548.87964159     A.U. after   16 cycles

 The electronic state is 1-A.
 Alpha  occ. eigenvalues -- -101.63116 -88.99059 -14.66247 -14.48890 -10.42569
 Alpha  occ. eigenvalues --  -10.37149 -10.35908 -10.34773 -10.34710 -10.34475
 Alpha  occ. eigenvalues --  -10.32345 -10.32302 -10.30374 -10.29959 -10.29907
 Alpha  occ. eigenvalues --  -10.29467 -10.29276 -10.29268 -10.28743  -9.54725
 Alpha  occ. eigenvalues --   -8.05092  -7.31139  -7.30146  -7.30111  -6.01595
 Alpha  occ. eigenvalues --   -6.01237  -6.00593  -1.20249  -1.08898  -0.98327
 Alpha  occ. eigenvalues --   -0.97260  -0.95273  -0.93721  -0.89417  -0.87498
 Alpha  occ. eigenvalues --   -0.86751  -0.84022  -0.83247  -0.79750  -0.78499
 Alpha  occ. eigenvalues --   -0.77539  -0.76699  -0.73121  -0.71440  -0.70497
 Alpha  occ. eigenvalues --   -0.67839  -0.66359  -0.64749  -0.63299  -0.61982
 Alpha  occ. eigenvalues --   -0.60146  -0.58484  -0.57519  -0.57350  -0.56030
 Alpha  occ. eigenvalues --   -0.55057  -0.54441  -0.53940  -0.52730  -0.52229
 Alpha  occ. eigenvalues --   -0.51477  -0.50469  -0.49000  -0.48087  -0.47634
 Alpha  occ. eigenvalues --   -0.46349  -0.45053  -0.44283  -0.42446  -0.41164
 Alpha  occ. eigenvalues --   -0.39588  -0.38558  -0.35991  -0.34570  -0.32965
 Alpha  occ. eigenvalues --   -0.29699
 Alpha virt. eigenvalues --   -0.16557  -0.11708  -0.11319  -0.10848  -0.10142
 Alpha virt. eigenvalues --   -0.09783  -0.09467  -0.06634  -0.05759  -0.05337
 Alpha virt. eigenvalues --   -0.03432  -0.02995  -0.01945   0.00037   0.00571

 Mulliken charges:
               1
     1  N   -0.729432
     2  H    0.435759
     3  H    0.425814
     4  C   -0.211691
     5  H    0.230149
     6  H    0.256118
     7  C   -0.310015
     8  H    0.172798
     9  H    0.225192
    10  C   -0.162123
    11  H    0.132357
    12  H    0.198076
    13  N   -0.588147
    14  C    0.301522
    15  C   -0.173885
    16  H    0.153878
    17  C   -0.088932
    18  Cl   0.008056
    19  C   -0.111794
    20  H    0.181036
    21  C   -0.173141
    22  H    0.176135
    23  C   -0.122077
    24  S    0.173496
    25  C   -0.126065
    26  C    0.279079
    27  C   -0.186677
    28  H    0.142216
    29  C   -0.146007
    30  H    0.156719
    31  C   -0.114601
    32  H    0.161708
    33  C   -0.171623
    34  H    0.170201
    35  H    0.435902
 Sum of Mulliken charges =   1.00000

 Dipole moment (field-independent basis, Debye):
    X=             -8.0474    Y=             14.6579    Z=             -3.9016  Tot=             17.1708
 Quadrupole moment (field-independent basis, Debye-Ang):
   XX=            -97.6967   YY=            -54.7817   ZZ=           -111.5551
   XY=            -24.4281   XZ=              0.9757   YZ=            -12.9453

 Normal termination of Gaussian 16 at Sun Jul 18 15:10:18 2021.
 Gaussian 16:  ES64L-G16RevB.01 20-Dec-2017

 --------------------------------------------------------
 #p mp2/aug-cc-pVDZ scf=tight maxdisk=180GB geom=allcheck
 --------------------------------------------------------

 Structure from the checkpoint file:  "SET_328_BBB29_conf1.geo_090_075_075.chk"
 --------------------------------------------
 SET_328_BBB29_conf1.geo_090_075_075 geometry
 --------------------------------------------
 Charge =  1 Multiplicity = 1

                         Standard orientation:
 ---------------------------------------------------------------------
 Center     Atomic      Atomic             Coordinates (Angstroms)
 Number     Number       Type             X           Y           Z
 ---------------------------------------------------------------------
      1          7           0       -1.804437    3.645003   -1.193439
      2          1           0       -2.221003    3.859572   -2.110520
      3          1           0       -1.789283    4.524952   -0.646925
      4          6           0       -0.423116    3.066867   -1.357306
      5          1           0        0.123157    3.761840   -1.993370
      6          1           0       -0.546411    2.122303   -1.887614
      7          6           0        0.286978    2.883855   -0.022345
      8          1           0        0.358907    3.844274    0.497469
      9          1           0        1.311157    2.578214   -0.248485
     10          6           0       -0.368891    1.875547    0.931341
     11          1           0       -1.382888    2.200216    1.157741
     12          1           0        0.170676    1.874033    1.886350
     13          7           0       -0.466594    0.532350    0.355650
     14          6           0        0.723917   -0.165759    0.057886
     15          6           0        1.951886    0.184020    0.637526
     16          1           0        2.017471    0.995859    1.348419
     17          6           0        3.101091   -0.523114    0.290447
     18         17           0        4.635240   -0.045710    1.017979
     19          6           0        3.073518   -1.595580   -0.594635
     20          1           0        3.978840   -2.132656   -0.846509
     21          6           0        1.844909   -1.959992   -1.146730
     22          1           0        1.791069   -2.796892   -1.833568
     23          6           0        0.688088   -1.245086   -0.845319
     24         16           0       -0.849910   -1.627788   -1.653147
     25          6           0       -1.938543   -1.304403   -0.279761
     26          6           0       -1.641169   -0.232420    0.581065
     27          6           0       -2.521650    0.031206    1.640925
     28          1           0       -2.299915    0.819409    2.350078
     29          6           0       -3.687984   -0.719807    1.798320
     30          1           0       -4.360189   -0.485307    2.616619
     31          6           0       -3.977792   -1.772615    0.931715
     32          1           0       -4.879287   -2.360692    1.058250
     33          6           0       -3.085520   -2.075378   -0.097364
     34          1           0       -3.281507   -2.901954   -0.772061
     35          1           0       -2.448442    2.993003   -0.721235
 ---------------------------------------------------------------------

 SCF Done:  E(RHF) =  -1543.12680532     A.U. after   17 cycles
