 Gaussian 16, Revision B.01,

 -----------------------------------------------------------
 #p b3lyp/6-31G(d) opt freq scrf=(iefpcm,read,solvent=water)
 -----------------------------------------------------------

 --------------------------------------------
 SET_328_BBB29_conf1.geo_135_285_180 geometry
 --------------------------------------------
 Symbolic Z-matrix:
 Charge =  1 Multiplicity = 1

 SCF Done:  E(RB3LYP) =  -1548.94488541     A.U. after   13 cycles
 SCF Done:  E(RB3LYP) =  -1548.97930322     A.U. after   11 cycles
 SCF Done:  E(RB3LYP) =  -1548.99270847     A.U. after   11 cycles
 SCF Done:  E(RB3LYP) =  -1548.99475134     A.U. after   11 cycles
 SCF Done:  E(RB3LYP) =  -1548.99543182     A.U. after   11 cycles
 SCF Done:  E(RB3LYP) =  -1548.99541957     A.U. after   11 cycles
 SCF Done:  E(RB3LYP) =  -1548.99660702     A.U. after   10 cycles
 SCF Done:  E(RB3LYP) =  -1548.99707741     A.U. after   11 cycles
 SCF Done:  E(RB3LYP) =  -1548.99795257     A.U. after   10 cycles
 SCF Done:  E(RB3LYP) =  -1548.99801327     A.U. after   10 cycles
 SCF Done:  E(RB3LYP) =  -1548.99806520     A.U. after   10 cycles
 SCF Done:  E(RB3LYP) =  -1548.99806077     A.U. after    9 cycles
 SCF Done:  E(RB3LYP) =  -1548.99807680     A.U. after    9 cycles
 SCF Done:  E(RB3LYP) =  -1548.99808578     A.U. after    9 cycles
 SCF Done:  E(RB3LYP) =  -1548.99807201     A.U. after    8 cycles
 SCF Done:  E(RB3LYP) =  -1548.99808200     A.U. after    7 cycles
 Optimization completed.
    -- Stationary point found.
 Normal termination of Gaussian 16 at Sun Jul 18 14:16:07 2021.

 --------------------------------------------------------------------
 #P Geom=AllCheck Guess=TCheck SCRF=Check GenChk RB3LYP/6-31G(d) Freq
 --------------------------------------------------------------------

 Structure from the checkpoint file:  "SET_328_BBB29_conf1.geo_135_285_180.chk"
 --------------------------------------------
 SET_328_BBB29_conf1.geo_135_285_180 geometry
 --------------------------------------------
 Charge =  1 Multiplicity = 1

 SCF Done:  E(RB3LYP) =  -1548.99808200     A.U. after    1 cycles

  Exact polarizability: 355.760 -44.377 243.709 -33.118 -60.017 219.556
 Approx polarizability: 372.253 -45.824 278.761 -34.425 -76.052 257.615

                      1                      2                      3
                      A                      A                      A
 Frequencies --     32.5225                50.6628                54.4119
 Red. masses --      4.2391                 6.6074                 4.8274
 Frc consts  --      0.0026                 0.0100                 0.0084
 IR Inten    --     19.1875                 3.7398                19.4270

                      4                      5                      6
                      A                      A                      A
 Frequencies --     97.4615               126.0498               131.0352
 Red. masses --      5.7810                 1.9808                 3.1047
 Frc consts  --      0.0324                 0.0185                 0.0314
 IR Inten    --      0.9476                10.1667                 7.7948

                      7                      8                      9
                      A                      A                      A
 Frequencies --    138.9818               167.8445               205.8421
 Red. masses --      6.0238                 4.8273                 4.4296
 Frc consts  --      0.0686                 0.0801                 0.1106
 IR Inten    --      3.7920                 1.7325                 2.1615

                     10                     11                     12
                      A                      A                      A
 Frequencies --    229.2388               272.8327               286.3705
 Red. masses --      4.5763                 5.3601                 5.2388
 Frc consts  --      0.1417                 0.2351                 0.2531
 IR Inten    --      0.8850                10.4578                 1.5532

                     13                     14                     15
                      A                      A                      A
 Frequencies --    292.5407               306.0307               320.1761
 Red. masses --      1.1578                 3.4630                 5.7769
 Frc consts  --      0.0584                 0.1911                 0.3489
 IR Inten    --      0.9602                 6.1884                 3.1123

                     16                     17                     18
                      A                      A                      A
 Frequencies --    340.4602               370.9570               386.6860
 Red. masses --      2.9486                 7.0157                 5.6262
 Frc consts  --      0.2014                 0.5688                 0.4957
 IR Inten    --      2.3595                14.4207                 5.7144

                     19                     20                     21
                      A                      A                      A
 Frequencies --    434.2230               450.1175               458.6905
 Red. masses --      4.4052                 4.7756                 3.5572
 Frc consts  --      0.4894                 0.5701                 0.4410
 IR Inten    --      5.1263                 6.5973                 1.9980

                     22                     23                     24
                      A                      A                      A
 Frequencies --    485.6237               518.8522               536.9018
 Red. masses --      4.1962                 5.8659                 3.6871
 Frc consts  --      0.5831                 0.9304                 0.6262
 IR Inten    --      7.9695                23.6469                 2.5867

                     25                     26                     27
                      A                      A                      A
 Frequencies --    549.8050               591.0590               613.2382
 Red. masses --      4.2405                 6.6793                 4.8097
 Frc consts  --      0.7552                 1.3748                 1.0657
 IR Inten    --      1.2387                10.4142                10.5009

                     28                     29                     30
                      A                      A                      A
 Frequencies --    635.2466               688.7885               713.0106
 Red. masses --      5.3322                 5.9666                 5.2135
 Frc consts  --      1.2678                 1.6678                 1.5616
 IR Inten    --      3.2938                 8.8083                 1.1586

                     31                     32                     33
                      A                      A                      A
 Frequencies --    734.8877               748.7793               767.3833
 Red. masses --      5.0883                 3.4351                 1.3297
 Frc consts  --      1.6191                 1.1347                 0.4613
 IR Inten    --      4.2710                 1.9160                92.9814

                     34                     35                     36
                      A                      A                      A
 Frequencies --    779.5003               801.4932               815.2173
 Red. masses --      2.3553                 1.9320                 1.3446
 Frc consts  --      0.8432                 0.7312                 0.5265
 IR Inten    --      0.9541                19.8040                39.6274

                     37                     38                     39
                      A                      A                      A
 Frequencies --    855.5976               874.3798               877.9925
 Red. masses --      1.8909                 1.4324                 1.3518
 Frc consts  --      0.8156                 0.6452                 0.6140
 IR Inten    --      8.9264                34.1849                 3.7206

                     40                     41                     42
                      A                      A                      A
 Frequencies --    924.6743               946.6564               949.6336
 Red. masses --      2.2577                 1.8517                 1.3112
 Frc consts  --      1.1374                 0.9777                 0.6967
 IR Inten    --    128.8854                31.9897                 3.2015

                     43                     44                     45
                      A                      A                      A
 Frequencies --    950.9789               986.9728               988.9853
 Red. masses --      1.3915                 2.0199                 1.3940
 Frc consts  --      0.7414                 1.1593                 0.8033
 IR Inten    --     12.9196                24.0516                 5.2470

                     46                     47                     48
                      A                      A                      A
 Frequencies --   1011.5554              1034.6648              1064.7796
 Red. masses --      1.6387                 2.4927                 5.6730
 Frc consts  --      0.9879                 1.5722                 3.7895
 IR Inten    --     11.3663                 7.6981                45.2525

                     49                     50                     51
                      A                      A                      A
 Frequencies --   1074.9976              1079.1453              1123.7516
 Red. masses --      4.1083                 2.2108                 2.2185
 Frc consts  --      2.7973                 1.5169                 1.6506
 IR Inten    --      9.7473                 2.2605                58.6036

                     52                     53                     54
                      A                      A                      A
 Frequencies --   1127.1477              1154.0264              1157.7752
 Red. masses --      3.4929                 1.8030                 1.5646
 Frc consts  --      2.6145                 1.4147                 1.2357
 IR Inten    --     29.8899                40.7222                33.4391

                     55                     56                     57
                      A                      A                      A
 Frequencies --   1168.4315              1174.6035              1196.5231
 Red. masses --      1.6271                 1.5801                 1.1326
 Frc consts  --      1.3088                 1.2845                 0.9554
 IR Inten    --     47.8227                 4.3906                 2.6681

                     58                     59                     60
                      A                      A                      A
 Frequencies --   1261.9772              1282.4880              1307.5872
 Red. masses --      2.0002                 2.4622                 1.4033
 Frc consts  --      1.8769                 2.3861                 1.4136
 IR Inten    --    171.3131               150.5483                57.7392

                     61                     62                     63
                      A                      A                      A
 Frequencies --   1311.6017              1328.0520              1334.7953
 Red. masses --      1.5155                 1.5286                 4.1890
 Frc consts  --      1.5361                 1.5884                 4.3973
 IR Inten    --      9.6620                13.8526                65.2782

                     64                     65                     66
                      A                      A                      A
 Frequencies --   1346.5492              1357.1400              1358.6855
 Red. masses --      3.9114                 1.1665                 2.8329
 Frc consts  --      4.1786                 1.2659                 3.0812
 IR Inten    --     22.3351                19.7454                41.6912

                     67                     68                     69
                      A                      A                      A
 Frequencies --   1379.7379              1429.9632              1438.2798
 Red. masses --      1.2624                 1.9930                 1.7123
 Frc consts  --      1.4159                 2.4011                 2.0869
 IR Inten    --     24.7183                47.1080                30.7039

                     70                     71                     72
                      A                      A                      A
 Frequencies --   1454.2720              1489.2699              1499.4546
 Red. masses --      1.5323                 2.1710                 2.0252
 Frc consts  --      1.9094                 2.8370                 2.6827
 IR Inten    --     61.4517                 8.2430               418.2519

                     73                     74                     75
                      A                      A                      A
 Frequencies --   1503.5731              1526.5265              1531.8555
 Red. masses --      1.1840                 1.0924                 2.5609
 Frc consts  --      1.5771                 1.4998                 3.5406
 IR Inten    --     54.1272                28.5684                45.1993

                     76                     77                     78
                      A                      A                      A
 Frequencies --   1535.1934              1543.7513              1610.5735
 Red. masses --      1.1739                 1.1125                 6.5477
 Frc consts  --      1.6300                 1.5621                10.0069
 IR Inten    --    155.2190                 2.7291                40.3434

                     79                     80                     81
                      A                      A                      A
 Frequencies --   1623.6472              1630.9480              1642.6990
 Red. masses --      6.1372                 5.9607                 1.0406
 Frc consts  --      9.5325                 9.3417                 1.6544
 IR Inten    --    107.3187                 5.3709                70.1525

                     82                     83                     84
                      A                      A                      A
 Frequencies --   1649.3576              1654.4635              3059.5020
 Red. masses --      6.3647                 1.0386                 1.0710
 Frc consts  --     10.2013                 1.6750                 5.9066
 IR Inten    --     50.4699                84.2757                64.1383

                     85                     86                     87
                      A                      A                      A
 Frequencies --   3087.3492              3132.0238              3139.0822
 Red. masses --      1.0634                 1.0915                 1.0673
 Frc consts  --      5.9721                 6.3087                 6.1967
 IR Inten    --     37.2652                10.0743                15.0111

                     88                     89                     90
                      A                      A                      A
 Frequencies --   3161.0474              3197.8322              3212.0376
 Red. masses --      1.0927                 1.1095                 1.0865
 Frc consts  --      6.4327                 6.6851                 6.6046
 IR Inten    --     30.2528                16.5473                 0.8804

                     91                     92                     93
                      A                      A                      A
 Frequencies --   3218.7073              3232.6006              3235.0424
 Red. masses --      1.0901                 1.0944                 1.0888
 Frc consts  --      6.6542                 6.7379                 6.7139
 IR Inten    --     16.1489                42.4563                 6.1676

                     94                     95                     96
                      A                      A                      A
 Frequencies --   3242.4983              3251.1226              3259.1044
 Red. masses --      1.0938                 1.0949                 1.0909
 Frc consts  --      6.7754                 6.8188                 6.8270
 IR Inten    --     20.6798                 6.5267                 1.2045

                     97                     98                     99
                      A                      A                      A
 Frequencies --   3402.4123              3466.4767              3484.2076
 Red. masses --      1.0332                 1.0942                 1.0941
 Frc consts  --      7.0472                 7.7465                 7.8255
 IR Inten    --    125.4942               233.0673               225.1035

 - Thermochemistry -
 -------------------
 Temperature   298.150 Kelvin.  Pressure   1.00000 Atm.
 Atom     1 has atomic number  7 and mass  14.00307

 Molecular mass:   291.07227 amu.
 Principal axes and moments of inertia in atomic units:
                           1         2         3
     Eigenvalues --  4404.204088346.98871**********
           X            0.99926   0.03762  -0.00805
           Y           -0.03744   0.99906   0.02200
           Z            0.00887  -0.02168   0.99973
 This molecule is an asymmetric top.
 Rotational symmetry number  1.
 Warning -- assumption of classical behavior for rotation
           may cause significant error
 Rotational temperatures (Kelvin)      0.01967     0.01038     0.00844
 Rotational constants (GHZ):           0.40978     0.21621     0.17582
 Zero-point vibrational energy     757653.0 (Joules/Mol)
                                  181.08340 (Kcal/Mol)
 Warning -- explicit consideration of  27 degrees of freedom as
           vibrations may cause significant error
 Vibrational temperatures:     46.79    72.89    78.29   140.23   181.36
          (Kelvin)            188.53   199.96   241.49   296.16   329.82
                              392.55   412.02   420.90   440.31   460.66
                              489.85   533.72   556.35   624.75   647.62
                              659.95   698.70   746.51   772.48   791.05
                              850.40   882.31   913.98   991.01  1025.86
                             1057.34  1077.33  1104.09  1121.53  1153.17
                             1172.92  1231.01  1258.04  1263.24  1330.40
                             1362.03  1366.31  1368.25  1420.03  1422.93
                             1455.40  1488.65  1531.98  1546.68  1552.65
                             1616.83  1621.71  1660.39  1665.78  1681.11
                             1689.99  1721.53  1815.70  1845.21  1881.33
                             1887.10  1910.77  1920.47  1937.38  1952.62
                             1954.85  1985.14  2057.40  2069.36  2092.37
                             2142.73  2157.38  2163.31  2196.33  2204.00
                             2208.80  2221.11  2317.26  2336.07  2346.57
                             2363.48  2373.06  2380.40  4401.94  4442.01
                             4506.28  4516.44  4548.04  4600.97  4621.41
                             4631.00  4650.99  4654.50  4665.23  4677.64
                             4689.12  4895.31  4987.49  5013.00

 Zero-point correction=                           0.288575 (Hartree/Particle)
 Thermal correction to Energy=                    0.305284
 Thermal correction to Enthalpy=                  0.306228
 Thermal correction to Gibbs Free Energy=         0.243559
 Sum of electronic and zero-point Energies=          -1548.709507
 Sum of electronic and thermal Energies=             -1548.692798
 Sum of electronic and thermal Enthalpies=           -1548.691854
 Sum of electronic and thermal Free Energies=        -1548.754523

                     E (Thermal)             CV                S
                      KCal/Mol        Cal/Mol-Kelvin    Cal/Mol-Kelvin
 Total                  191.569             65.748            131.898
 Electronic               0.000              0.000              0.000
 Translational            0.889              2.981             42.903
 Rotational               0.889              2.981             34.289
 Vibrational            189.791             59.786             54.706
 Vibration     1          0.594              1.983              5.669
 Vibration     2          0.595              1.977              4.791
 Vibration     3          0.596              1.976              4.650
 Vibration     4          0.603              1.951              3.504
 Vibration     5          0.611              1.927              3.005
 Vibration     6          0.612              1.922              2.931
 Vibration     7          0.615              1.914              2.818
 Vibration     8          0.625              1.882              2.459
 Vibration     9          0.640              1.832              2.080
 Vibration    10          0.652              1.796              1.885
 Vibration    11          0.676              1.723              1.578
 Vibration    12          0.684              1.699              1.495
 Vibration    13          0.688              1.688              1.459
 Vibration    14          0.696              1.662              1.384
 Vibration    15          0.706              1.635              1.309
 Vibration    16          0.720              1.595              1.210
 Vibration    17          0.743              1.532              1.076
 Vibration    18          0.755              1.499              1.013
 Vibration    19          0.795              1.396              0.845
 Vibration    20          0.809              1.361              0.795
 Vibration    21          0.817              1.342              0.770
 Vibration    22          0.842              1.282              0.695
 Vibration    23          0.874              1.208              0.613
 Vibration    24          0.892              1.168              0.572
 Vibration    25          0.905              1.140              0.545
 Vibration    26          0.948              1.051              0.465
 Vibration    27          0.973              1.004              0.427

 Optimization completed.
    -- Stationary point found.
 Normal termination of Gaussian 16 at Sun Jul 18 14:32:08 2021.

 ----------------------------------------------------------------------
 #p b3lyp/6-31G(d) scrf=(iefpcm,read,solvent=water) geom=allcheck guess
 =read
 ----------------------------------------------------------------------

 Structure from the checkpoint file:  "SET_328_BBB29_conf1.geo_135_285_180.chk"
 --------------------------------------------
 SET_328_BBB29_conf1.geo_135_285_180 geometry
 --------------------------------------------
 Charge =  1 Multiplicity = 1

 SCF Done:  E(RB3LYP) =  -1548.99808200     A.U. after    1 cycles
 Normal termination of Gaussian 16 at Sun Jul 18 14:32:20 2021.

 -----------------------------
 #p B3LYP/6-31G* geom=allcheck
 -----------------------------

 Structure from the checkpoint file:  "SET_328_BBB29_conf1.geo_135_285_180.chk"
 --------------------------------------------
 SET_328_BBB29_conf1.geo_135_285_180 geometry
 --------------------------------------------
 Charge =  1 Multiplicity = 1

 SCF Done:  E(RB3LYP) =  -1548.87908348     A.U. after   15 cycles

 The electronic state is 1-A.
 Alpha  occ. eigenvalues -- -101.62378 -88.98500 -14.66550 -14.48141 -10.42688
 Alpha  occ. eigenvalues --  -10.36326 -10.36089 -10.34031 -10.33904 -10.33892
 Alpha  occ. eigenvalues --  -10.31887 -10.31625 -10.29564 -10.29498 -10.29168
 Alpha  occ. eigenvalues --  -10.29143 -10.28980 -10.28517 -10.28447  -9.53990
 Alpha  occ. eigenvalues --   -8.04531  -7.30402  -7.29411  -7.29377  -6.01034
 Alpha  occ. eigenvalues --   -6.00678  -6.00031  -1.20698  -1.08122  -0.97773
 Alpha  occ. eigenvalues --   -0.96809  -0.95201  -0.92987  -0.88847  -0.87007
 Alpha  occ. eigenvalues --   -0.86059  -0.83473  -0.82832  -0.80101  -0.79080
 Alpha  occ. eigenvalues --   -0.77188  -0.75610  -0.72675  -0.70452  -0.69788
 Alpha  occ. eigenvalues --   -0.68904  -0.66056  -0.64193  -0.63466  -0.61166
 Alpha  occ. eigenvalues --   -0.59121  -0.57934  -0.57284  -0.56519  -0.55480
 Alpha  occ. eigenvalues --   -0.54891  -0.54178  -0.53224  -0.52512  -0.51635
 Alpha  occ. eigenvalues --   -0.51076  -0.49866  -0.48449  -0.47411  -0.46984
 Alpha  occ. eigenvalues --   -0.45933  -0.44516  -0.43713  -0.41821  -0.40506
 Alpha  occ. eigenvalues --   -0.38863  -0.38024  -0.35364  -0.33969  -0.32350
 Alpha  occ. eigenvalues --   -0.29102
 Alpha virt. eigenvalues --   -0.16642  -0.11022  -0.10718  -0.10272  -0.10158
 Alpha virt. eigenvalues --   -0.09930  -0.09058  -0.06673  -0.06022  -0.04662
 Alpha virt. eigenvalues --   -0.03487  -0.02058  -0.01601  -0.00021   0.01152

 Mulliken charges:
               1
     1  N   -0.725167
     2  H    0.436235
     3  H    0.428476
     4  C   -0.209940
     5  H    0.228392
     6  H    0.256979
     7  C   -0.307238
     8  H    0.181091
     9  H    0.174652
    10  C   -0.154528
    11  H    0.190036
    12  H    0.180640
    13  N   -0.593036
    14  C    0.303818
    15  C   -0.171922
    16  H    0.160525
    17  C   -0.087166
    18  Cl   0.004184
    19  C   -0.112625
    20  H    0.178147
    21  C   -0.172621
    22  H    0.172639
    23  C   -0.119993
    24  S    0.170689
    25  C   -0.128451
    26  C    0.287390
    27  C   -0.178019
    28  H    0.133081
    29  C   -0.151073
    30  H    0.153749
    31  C   -0.115575
    32  H    0.159013
    33  C   -0.173544
    34  H    0.168633
    35  H    0.432526
 Sum of Mulliken charges =   1.00000

 Dipole moment (field-independent basis, Debye):
    X=             13.2837    Y=             13.9983    Z=              4.8865  Tot=             19.9069
 Quadrupole moment (field-independent basis, Debye-Ang):
   XX=            -77.2898   YY=            -60.2260   ZZ=           -108.0655
   XY=             42.1763   XZ=             10.1739   YZ=             17.4520

 Normal termination of Gaussian 16 at Sun Jul 18 14:33:20 2021.
 Gaussian 16:  ES64L-G16RevB.01 20-Dec-2017

 --------------------------------------------------------
 #p mp2/aug-cc-pVDZ scf=tight maxdisk=180GB geom=allcheck
 --------------------------------------------------------

 Structure from the checkpoint file:  "SET_328_BBB29_conf1.geo_135_285_180.chk"
 --------------------------------------------
 SET_328_BBB29_conf1.geo_135_285_180 geometry
 --------------------------------------------
 Charge =  1 Multiplicity = 1

                         Standard orientation:
 ---------------------------------------------------------------------
 Center     Atomic      Atomic             Coordinates (Angstroms)
 Number     Number       Type             X           Y           Z
 ---------------------------------------------------------------------
      1          7           0        2.975607    3.470770    1.525115
      2          1           0        2.961826    3.648827    2.540674
      3          1           0        3.109059    4.379060    1.056078
      4          6           0        1.713362    2.797643    1.070276
      5          1           0        0.889716    3.453558    1.353268
      6          1           0        1.635771    1.869723    1.633812
      7          6           0        1.752049    2.545665   -0.431060
      8          1           0        2.653825    1.984626   -0.687919
      9          1           0        1.797551    3.497949   -0.969446
     10          6           0        0.506738    1.798814   -0.922387
     11          1           0        0.513203    1.758653   -2.018236
     12          1           0       -0.375303    2.368476   -0.631654
     13          7           0        0.371370    0.463912   -0.328975
     14          6           0       -0.921234   -0.015296   -0.016599
     15          6           0       -2.079420    0.537194   -0.582009
     16          1           0       -2.017672    1.328733   -1.315950
     17          6           0       -3.328477    0.053266   -0.199650
     18         17           0       -4.766717    0.788362   -0.907636
     19          6           0       -3.475359   -0.997314    0.699552
     20          1           0       -4.456797   -1.359697    0.977012
     21          6           0       -2.319768   -1.576334    1.224749
     22          1           0       -2.400457   -2.406155    1.916546
     23          6           0       -1.060066   -1.085851    0.888428
     24         16           0        0.401356   -1.754735    1.652827
     25          6           0        1.494952   -1.623968    0.249487
     26          6           0        1.379621   -0.501586   -0.590085
     27          6           0        2.270986   -0.377865   -1.664886
     28          1           0        2.190813    0.466709   -2.337851
     29          6           0        3.266985   -1.333217   -1.873542
     30          1           0        3.953365   -1.208354   -2.703749
     31          6           0        3.372637   -2.443093   -1.036235
     32          1           0        4.142938   -3.187689   -1.201399
     33          6           0        2.469688   -2.594763    0.018199
     34          1           0        2.526138   -3.458140    0.672665
     35          1           0        3.803530    2.894811    1.322327
 ---------------------------------------------------------------------

 SCF Done:  E(RHF) =  -1543.12669778     A.U. after   17 cycles
