 Gaussian 16, Revision B.01,

 -----------------------------------------------------------
 #p b3lyp/6-31G(d) opt freq scrf=(iefpcm,read,solvent=water)
 -----------------------------------------------------------

 --------------------------------------------
 SET_328_BBB29_conf1.geo_120_180_180 geometry
 --------------------------------------------
 Symbolic Z-matrix:
 Charge =  1 Multiplicity = 1

 SCF Done:  E(RB3LYP) =  -1548.94222597     A.U. after   13 cycles
 SCF Done:  E(RB3LYP) =  -1548.97849207     A.U. after   11 cycles
 SCF Done:  E(RB3LYP) =  -1548.99169009     A.U. after   11 cycles
 SCF Done:  E(RB3LYP) =  -1548.99410638     A.U. after   11 cycles
 SCF Done:  E(RB3LYP) =  -1548.99430966     A.U. after   11 cycles
 SCF Done:  E(RB3LYP) =  -1548.99474725     A.U. after   10 cycles
 SCF Done:  E(RB3LYP) =  -1548.99487913     A.U. after   11 cycles
 SCF Done:  E(RB3LYP) =  -1548.99497857     A.U. after    9 cycles
 SCF Done:  E(RB3LYP) =  -1548.99509534     A.U. after   10 cycles
 SCF Done:  E(RB3LYP) =  -1548.99510016     A.U. after    9 cycles
 SCF Done:  E(RB3LYP) =  -1548.99746664     A.U. after    7 cycles
 SCF Done:  E(RB3LYP) =  -1548.99750148     A.U. after    9 cycles
 SCF Done:  E(RB3LYP) =  -1548.99746357     A.U. after    9 cycles
 SCF Done:  E(RB3LYP) =  -1548.99750110     A.U. after    9 cycles
 SCF Done:  E(RB3LYP) =  -1548.99750072     A.U. after    5 cycles
 SCF Done:  E(RB3LYP) =  -1548.99750018     A.U. after    6 cycles
 Optimization completed.
    -- Stationary point found.
 Normal termination of Gaussian 16 at Sun Jul 18 14:52:04 2021.

 --------------------------------------------------------------------
 #P Geom=AllCheck Guess=TCheck SCRF=Check GenChk RB3LYP/6-31G(d) Freq
 --------------------------------------------------------------------

 Structure from the checkpoint file:  "SET_328_BBB29_conf1.geo_120_180_180.chk"
 --------------------------------------------
 SET_328_BBB29_conf1.geo_120_180_180 geometry
 --------------------------------------------
 Charge =  1 Multiplicity = 1

 SCF Done:  E(RB3LYP) =  -1548.99750018     A.U. after    1 cycles

  Exact polarizability: 348.846 -46.144 283.880 -40.521 -48.030 187.579
 Approx polarizability: 365.840 -43.436 321.321 -44.865 -61.762 221.267

                      1                      2                      3
                      A                      A                      A
 Frequencies --     42.5385                49.6712                63.1991
 Red. masses --      6.4776                 5.2503                 4.4142
 Frc consts  --      0.0069                 0.0076                 0.0104
 IR Inten    --      8.1668                 6.4422                24.4083

                      4                      5                      6
                      A                      A                      A
 Frequencies --     80.5220                93.6890               125.8729
 Red. masses --      1.6526                 5.5508                 3.5570
 Frc consts  --      0.0063                 0.0287                 0.0332
 IR Inten    --      1.1584                 0.3396                 3.6023

                      7                      8                      9
                      A                      A                      A
 Frequencies --    135.5708               161.6230               190.8040
 Red. masses --      3.4982                 5.5582                 3.5491
 Frc consts  --      0.0379                 0.0855                 0.0761
 IR Inten    --      3.0406                10.3897                 2.0106

                     10                     11                     12
                      A                      A                      A
 Frequencies --    207.5086               256.0128               271.4059
 Red. masses --      5.3172                 5.5802                 1.1879
 Frc consts  --      0.1349                 0.2155                 0.0516
 IR Inten    --      3.2548                 9.0383                 0.4020

                     13                     14                     15
                      A                      A                      A
 Frequencies --    282.8516               294.0176               308.5577
 Red. masses --      3.1390                 4.2054                 7.9750
 Frc consts  --      0.1480                 0.2142                 0.4474
 IR Inten    --      1.7479                 5.6914                 4.9460

                     16                     17                     18
                      A                      A                      A
 Frequencies --    327.4126               365.8455               389.5385
 Red. masses --      5.5127                 6.9398                 6.4785
 Frc consts  --      0.3482                 0.5473                 0.5792
 IR Inten    --      1.7278                12.1072                 5.0450

                     19                     20                     21
                      A                      A                      A
 Frequencies --    429.5829               446.0835               451.5599
 Red. masses --      4.3029                 4.3860                 3.3690
 Frc consts  --      0.4678                 0.5142                 0.4048
 IR Inten    --      8.5563                 6.1312                 5.2105

                     22                     23                     24
                      A                      A                      A
 Frequencies --    465.5246               508.5918               542.7803
 Red. masses --      3.7663                 5.7662                 5.2326
 Frc consts  --      0.4809                 0.8788                 0.9083
 IR Inten    --     11.6946                12.0444                 7.4419

                     25                     26                     27
                      A                      A                      A
 Frequencies --    550.0084               590.0532               624.1042
 Red. masses --      4.9202                 6.2519                 6.1246
 Frc consts  --      0.8769                 1.2825                 1.4055
 IR Inten    --      2.7574                 9.0259                 1.9638

                     28                     29                     30
                      A                      A                      A
 Frequencies --    639.3826               692.4244               712.8689
 Red. masses --      5.4937                 6.2666                 5.0779
 Frc consts  --      1.3232                 1.7702                 1.5204
 IR Inten    --     10.4357                 8.6415                 0.3315

                     31                     32                     33
                      A                      A                      A
 Frequencies --    735.5899               745.7802               765.0254
 Red. masses --      5.5509                 2.5984                 1.3360
 Frc consts  --      1.7696                 0.8515                 0.4607
 IR Inten    --      2.6938                19.6095                44.4286

                     34                     35                     36
                      A                      A                      A
 Frequencies --    773.2618               798.6916               815.4375
 Red. masses --      1.2992                 4.6492                 1.3465
 Frc consts  --      0.4577                 1.7474                 0.5275
 IR Inten    --     39.2553                11.2888                38.8572

                     37                     38                     39
                      A                      A                      A
 Frequencies --    854.3621               869.6182               878.9345
 Red. masses --      1.2997                 1.3870                 1.3948
 Frc consts  --      0.5590                 0.6180                 0.6349
 IR Inten    --     10.0590                 0.4071                36.3817

                     40                     41                     42
                      A                      A                      A
 Frequencies --    924.9638               944.9453               948.0407
 Red. masses --      2.8715                 1.4131                 2.0897
 Frc consts  --      1.4475                 0.7434                 1.1066
 IR Inten    --    122.4896                 4.1724                73.3080

                     43                     44                     45
                      A                      A                      A
 Frequencies --    950.5617               985.3483               992.6983
 Red. masses --      1.3110                 1.2636                 1.3287
 Frc consts  --      0.6979                 0.7228                 0.7714
 IR Inten    --      3.1201                 0.4585                15.2638

                     46                     47                     48
                      A                      A                      A
 Frequencies --   1015.2808              1061.2392              1064.4769
 Red. masses --      2.9618                 4.5314                 5.0866
 Frc consts  --      1.7988                 3.0069                 3.3959
 IR Inten    --      7.9455                 4.1102                48.0498

                     49                     50                     51
                      A                      A                      A
 Frequencies --   1071.1139              1079.3753              1120.6632
 Red. masses --      3.1746                 2.4254                 2.4774
 Frc consts  --      2.1459                 1.6649                 1.8332
 IR Inten    --     10.6132                 4.2016                48.3396

                     52                     53                     54
                      A                      A                      A
 Frequencies --   1127.3934              1155.1021              1160.5718
 Red. masses --      3.1330                 1.5687                 1.9391
 Frc consts  --      2.3462                 1.2332                 1.5389
 IR Inten    --     35.1369                34.8531                34.0025

                     55                     56                     57
                      A                      A                      A
 Frequencies --   1167.1608              1181.3543              1194.3842
 Red. masses --      1.4704                 1.5932                 1.1511
 Frc consts  --      1.1802                 1.3100                 0.9675
 IR Inten    --     38.5568                26.1863                 5.5076

                     58                     59                     60
                      A                      A                      A
 Frequencies --   1262.5215              1283.1329              1300.2636
 Red. masses --      1.9479                 2.1559                 1.3668
 Frc consts  --      1.8293                 2.0913                 1.3615
 IR Inten    --    163.2012               134.2555                31.4131

                     61                     62                     63
                      A                      A                      A
 Frequencies --   1311.1317              1322.7229              1332.6070
 Red. masses --      1.5193                 1.7862                 2.7748
 Frc consts  --      1.5388                 1.8413                 2.9033
 IR Inten    --     28.0566                32.5621               105.6284

                     64                     65                     66
                      A                      A                      A
 Frequencies --   1342.5956              1351.3723              1364.4580
 Red. masses --      2.7736                 3.4218                 1.3586
 Frc consts  --      2.9457                 3.6817                 1.4903
 IR Inten    --     24.2430                 2.8072                 3.9594

                     67                     68                     69
                      A                      A                      A
 Frequencies --   1379.8201              1432.4643              1441.0597
 Red. masses --      1.3030                 1.9507                 1.7794
 Frc consts  --      1.4617                 2.3584                 2.1772
 IR Inten    --     29.5403                65.5663                35.4171

                     70                     71                     72
                      A                      A                      A
 Frequencies --   1457.3176              1489.8798              1499.3158
 Red. masses --      1.4968                 2.2170                 2.3368
 Frc consts  --      1.8729                 2.8995                 3.0949
 IR Inten    --     63.4841                 6.4075               480.9736

                     73                     74                     75
                      A                      A                      A
 Frequencies --   1510.2498              1523.9104              1530.0856
 Red. masses --      1.1000                 1.1337                 1.2139
 Frc consts  --      1.4783                 1.5512                 1.6744
 IR Inten    --      2.4072               125.9943                38.0014

                     76                     77                     78
                      A                      A                      A
 Frequencies --   1531.2585              1546.4380              1609.9266
 Red. masses --      2.2756                 1.1037                 6.5340
 Frc consts  --      3.1437                 1.5551                 9.9780
 IR Inten    --     53.1984                 8.1662                45.0543

                     79                     80                     81
                      A                      A                      A
 Frequencies --   1623.0850              1631.1443              1634.5466
 Red. masses --      6.2606                 6.1074                 1.0369
 Frc consts  --      9.7173                 9.5740                 1.6322
 IR Inten    --    110.9962                 4.5670                72.8178

                     82                     83                     84
                      A                      A                      A
 Frequencies --   1649.8994              1654.2842              3042.7021
 Red. masses --      6.4166                 1.0415                 1.0721
 Frc consts  --     10.2913                 1.6792                 5.8481
 IR Inten    --     49.5794                82.4432                67.4939

                     85                     86                     87
                      A                      A                      A
 Frequencies --   3080.3714              3125.8941              3132.1625
 Red. masses --      1.0611                 1.0980                 1.0632
 Frc consts  --      5.9320                 6.3215                 6.1455
 IR Inten    --     27.6723                12.0677                20.5063

                     88                     89                     90
                      A                      A                      A
 Frequencies --   3163.3073              3189.0233              3212.9523
 Red. masses --      1.0922                 1.1098                 1.0870
 Frc consts  --      6.4393                 6.6497                 6.6112
 IR Inten    --     27.3659                21.1945                 2.2882

                     91                     92                     93
                      A                      A                      A
 Frequencies --   3220.2523              3223.1741              3233.2254
 Red. masses --      1.0894                 1.0899                 1.0932
 Frc consts  --      6.6559                 6.6714                 6.7329
 IR Inten    --     12.4749                 8.1405                40.3945

                     94                     95                     96
                      A                      A                      A
 Frequencies --   3241.5616              3249.8894              3251.6366
 Red. masses --      1.0953                 1.0910                 1.0940
 Frc consts  --      6.7807                 6.7893                 6.8148
 IR Inten    --     26.6050                 2.5787                 3.7461

                     97                     98                     99
                      A                      A                      A
 Frequencies --   3394.5275              3458.9292              3476.0090
 Red. masses --      1.0330                 1.0946                 1.0939
 Frc consts  --      7.0132                 7.7159                 7.7874
 IR Inten    --    126.2696               235.5258               225.5387

 - Thermochemistry -
 -------------------
 Temperature   298.150 Kelvin.  Pressure   1.00000 Atm.
 Atom     1 has atomic number  7 and mass  14.00307

 Molecular mass:   291.07227 amu.
 Principal axes and moments of inertia in atomic units:
                           1         2         3
     Eigenvalues --  5090.839958057.18959**********
           X            0.99703   0.07677  -0.00590
           Y           -0.07666   0.99691   0.01720
           Z            0.00721  -0.01670   0.99983
 This molecule is an asymmetric top.
 Rotational symmetry number  1.
 Warning -- assumption of classical behavior for rotation
           may cause significant error
 Rotational temperatures (Kelvin)      0.01701     0.01075     0.00755
 Rotational constants (GHZ):           0.35451     0.22399     0.15721
 Zero-point vibrational energy     755992.6 (Joules/Mol)
                                  180.68656 (Kcal/Mol)
 Warning -- explicit consideration of  26 degrees of freedom as
           vibrations may cause significant error
 Vibrational temperatures:     61.20    71.47    90.93   115.85   134.80
          (Kelvin)            181.10   195.06   232.54   274.52   298.56
                              368.35   390.49   406.96   423.03   443.95
                              471.07   526.37   560.46   618.07   641.81
                              649.69   669.79   731.75   780.94   791.34
                              848.96   897.95   919.93   996.24  1025.66
                             1058.35  1073.01  1100.70  1112.55  1149.14
                             1173.23  1229.24  1251.19  1264.59  1330.82
                             1359.57  1364.02  1367.65  1417.70  1428.27
                             1460.76  1526.89  1531.54  1541.09  1552.98
                             1612.38  1622.07  1661.93  1669.80  1679.28
                             1699.71  1718.45  1816.49  1846.14  1870.79
                             1886.43  1903.10  1917.32  1931.70  1944.32
                             1963.15  1985.25  2061.00  2073.36  2096.76
                             2143.60  2157.18  2172.91  2192.57  2201.45
                             2203.14  2224.98  2316.33  2335.26  2346.85
                             2351.75  2373.84  2380.15  4377.77  4431.97
                             4497.46  4506.48  4551.29  4588.29  4622.72
                             4633.22  4637.43  4651.89  4663.88  4675.87
                             4678.38  4883.97  4976.63  5001.20

 Zero-point correction=                           0.287942 (Hartree/Particle)
 Thermal correction to Energy=                    0.304919
 Thermal correction to Enthalpy=                  0.305863
 Thermal correction to Gibbs Free Energy=         0.242503
 Sum of electronic and zero-point Energies=          -1548.709558
 Sum of electronic and thermal Energies=             -1548.692581
 Sum of electronic and thermal Enthalpies=           -1548.691637
 Sum of electronic and thermal Free Energies=        -1548.754997

                     E (Thermal)             CV                S
                      KCal/Mol        Cal/Mol-Kelvin    Cal/Mol-Kelvin
 Total                  191.340             66.062            133.353
 Electronic               0.000              0.000              0.000
 Translational            0.889              2.981             42.903
 Rotational               0.889              2.981             34.509
 Vibrational            189.562             60.100             55.942
 Vibration     1          0.595              1.980              5.137
 Vibration     2          0.595              1.978              4.830
 Vibration     3          0.597              1.972              4.355
 Vibration     4          0.600              1.962              3.878
 Vibration     5          0.603              1.954              3.582
 Vibration     6          0.611              1.927              3.008
 Vibration     7          0.613              1.918              2.865
 Vibration     8          0.622              1.889              2.531
 Vibration     9          0.634              1.853              2.220
 Vibration    10          0.641              1.829              2.065
 Vibration    11          0.666              1.753              1.689
 Vibration    12          0.675              1.726              1.587
 Vibration    13          0.682              1.705              1.516
 Vibration    14          0.689              1.685              1.451
 Vibration    15          0.698              1.657              1.370
 Vibration    16          0.711              1.621              1.273
 Vibration    17          0.739              1.543              1.097
 Vibration    18          0.757              1.493              1.002
 Vibration    19          0.791              1.406              0.860
 Vibration    20          0.805              1.370              0.808
 Vibration    21          0.810              1.357              0.791
 Vibration    22          0.823              1.327              0.750
 Vibration    23          0.864              1.231              0.637
 Vibration    24          0.898              1.156              0.559
 Vibration    25          0.905              1.140              0.544
 Vibration    26          0.947              1.053              0.467

                           ! Non-Optimized Parameters !
 Normal termination of Gaussian 16 at Sun Jul 18 15:05:41 2021.

 ----------------------------------------------------------------------
 #p b3lyp/6-31G(d) scrf=(iefpcm,read,solvent=water) geom=allcheck guess
 =read
 ----------------------------------------------------------------------

 Structure from the checkpoint file:  "SET_328_BBB29_conf1.geo_120_180_180.chk"
 --------------------------------------------
 SET_328_BBB29_conf1.geo_120_180_180 geometry
 --------------------------------------------
 Charge =  1 Multiplicity = 1

 SCF Done:  E(RB3LYP) =  -1548.99750018     A.U. after    1 cycles
 Normal termination of Gaussian 16 at Sun Jul 18 15:05:53 2021.

 -----------------------------
 #p B3LYP/6-31G* geom=allcheck
 -----------------------------

 Structure from the checkpoint file:  "SET_328_BBB29_conf1.geo_120_180_180.chk"
 --------------------------------------------
 SET_328_BBB29_conf1.geo_120_180_180 geometry
 --------------------------------------------
 Charge =  1 Multiplicity = 1

 SCF Done:  E(RB3LYP) =  -1548.87314784     A.U. after   15 cycles

 The electronic state is 1-A.
 Alpha  occ. eigenvalues -- -101.62003 -88.97487 -14.67201 -14.47519 -10.43766
 Alpha  occ. eigenvalues --  -10.36367 -10.36074 -10.33442 -10.33331 -10.33245
 Alpha  occ. eigenvalues --  -10.31104 -10.30940 -10.29058 -10.28998 -10.28520
 Alpha  occ. eigenvalues --  -10.28436 -10.28416 -10.27916 -10.27806  -9.53621
 Alpha  occ. eigenvalues --   -8.03530  -7.30028  -7.29042  -7.29011  -6.00037
 Alpha  occ. eigenvalues --   -5.99679  -5.99018  -1.21372  -1.07569  -0.97688
 Alpha  occ. eigenvalues --   -0.96694  -0.94884  -0.92538  -0.88262  -0.86932
 Alpha  occ. eigenvalues --   -0.85459  -0.82860  -0.82347  -0.80374  -0.79740
 Alpha  occ. eigenvalues --   -0.76856  -0.75484  -0.72145  -0.70622  -0.69553
 Alpha  occ. eigenvalues --   -0.68578  -0.65369  -0.65103  -0.62562  -0.61799
 Alpha  occ. eigenvalues --   -0.58670  -0.57653  -0.56949  -0.56519  -0.54703
 Alpha  occ. eigenvalues --   -0.54330  -0.54100  -0.52979  -0.52437  -0.51064
 Alpha  occ. eigenvalues --   -0.50682  -0.49278  -0.47911  -0.46827  -0.46424
 Alpha  occ. eigenvalues --   -0.45365  -0.43893  -0.43070  -0.41114  -0.39842
 Alpha  occ. eigenvalues --   -0.38508  -0.37321  -0.34733  -0.33340  -0.31653
 Alpha  occ. eigenvalues --   -0.28197
 Alpha virt. eigenvalues --   -0.17214  -0.10810  -0.10639  -0.10336  -0.10076
 Alpha virt. eigenvalues --   -0.09488  -0.08315  -0.07971  -0.05344  -0.04691
 Alpha virt. eigenvalues --   -0.03950  -0.03099  -0.00862  -0.00303   0.00912

 Mulliken charges:
               1
     1  N   -0.722692
     2  H    0.435750
     3  H    0.432976
     4  C   -0.217592
     5  H    0.232316
     6  H    0.233389
     7  C   -0.301427
     8  H    0.190331
     9  H    0.185934
    10  C   -0.145011
    11  H    0.168545
    12  H    0.180196
    13  N   -0.587290
    14  C    0.307881
    15  C   -0.170378
    16  H    0.150336
    17  C   -0.085873
    18  Cl  -0.002279
    19  C   -0.112770
    20  H    0.176119
    21  C   -0.172625
    22  H    0.172249
    23  C   -0.120143
    24  S    0.190362
    25  C   -0.123782
    26  C    0.298532
    27  C   -0.172670
    28  H    0.111582
    29  C   -0.148976
    30  H    0.145659
    31  C   -0.114524
    32  H    0.156439
    33  C   -0.172213
    34  H    0.168301
    35  H    0.433348
 Sum of Mulliken charges =   1.00000

 Dipole moment (field-independent basis, Debye):
    X=             16.5656    Y=             15.5177    Z=              3.4811  Tot=             22.9639
 Quadrupole moment (field-independent basis, Debye-Ang):
   XX=            -56.2375   YY=            -47.2336   ZZ=           -117.2149
   XY=             61.6176   XZ=              8.1807   YZ=             15.2744

 Normal termination of Gaussian 16 at Sun Jul 18 15:06:47 2021.
 Gaussian 16:  ES64L-G16RevB.01 20-Dec-2017

 --------------------------------------------------------
 #p mp2/aug-cc-pVDZ scf=tight maxdisk=180GB geom=allcheck
 --------------------------------------------------------

 Structure from the checkpoint file:  "SET_328_BBB29_conf1.geo_120_180_180.chk"
 --------------------------------------------
 SET_328_BBB29_conf1.geo_120_180_180 geometry
 --------------------------------------------
 Charge =  1 Multiplicity = 1

                         Standard orientation:
 ---------------------------------------------------------------------
 Center     Atomic      Atomic             Coordinates (Angstroms)
 Number     Number       Type             X           Y           Z
 ---------------------------------------------------------------------
      1          7           0        3.697444    3.830761    1.045527
      2          1           0        3.951204    4.820035    0.906559
      3          1           0        4.512768    3.259809    0.773406
      4          6           0        2.479540    3.464288    0.249801
      5          1           0        2.726056    3.647899   -0.795260
      6          1           0        1.691458    4.154586    0.551600
      7          6           0        2.093199    2.014255    0.500413
      8          1           0        1.889802    1.859724    1.564790
      9          1           0        2.922690    1.357966    0.223477
     10          6           0        0.837238    1.646826   -0.296932
     11          1           0        0.989565    1.826754   -1.369041
     12          1           0        0.026004    2.298923    0.023508
     13          7           0        0.415333    0.270510   -0.031968
     14          6           0       -0.962465   -0.016954    0.087065
     15          6           0       -1.951235    0.830488   -0.436053
     16          1           0       -1.684868    1.721116   -0.990020
     17          6           0       -3.295010    0.516712   -0.245297
     18         17           0       -4.515430    1.613666   -0.886520
     19          6           0       -3.702612   -0.638130    0.412190
     20          1           0       -4.753386   -0.862121    0.543233
     21          6           0       -2.718202   -1.504212    0.888789
     22          1           0       -3.005935   -2.420140    1.393294
     23          6           0       -1.366860   -1.195391    0.746163
     24         16           0       -0.119963   -2.246286    1.462078
     25          6           0        1.125006   -2.051555    0.202516
     26          6           0        1.282827   -0.790118   -0.397948
     27          6           0        2.299869   -0.626106   -1.347806
     28          1           0        2.428211    0.329068   -1.841513
     29          6           0        3.151019   -1.684869   -1.665808
     30          1           0        3.938323   -1.529435   -2.394985
     31          6           0        2.984834   -2.933072   -1.066756
     32          1           0        3.642266   -3.757386   -1.317358
     33          6           0        1.955079   -3.117805   -0.141901
     34          1           0        1.800640   -4.083826    0.326777
     35          1           0        3.544120    3.690235    2.053603
 ---------------------------------------------------------------------

 SCF Done:  E(RHF) =  -1543.12044036     A.U. after   17 cycles
