 Gaussian 16, Revision B.01,

 -----------------------------------------------------------
 #p b3lyp/6-31G(d) opt freq scrf=(iefpcm,read,solvent=water)
 -----------------------------------------------------------

 ---------------------------------------------
 SET_328_BBB256_conf1.geo_075_180_255 geometry
 ---------------------------------------------
 Symbolic Z-matrix:
 Charge =  1 Multiplicity = 1

 SCF Done:  E(RB3LYP) =  -422.027153227     A.U. after   11 cycles
 SCF Done:  E(RB3LYP) =  -422.049524399     A.U. after   11 cycles
 SCF Done:  E(RB3LYP) =  -422.054546572     A.U. after   10 cycles
 SCF Done:  E(RB3LYP) =  -422.055088905     A.U. after   10 cycles
 SCF Done:  E(RB3LYP) =  -422.055197480     A.U. after    9 cycles
 SCF Done:  E(RB3LYP) =  -422.055280666     A.U. after   10 cycles
 SCF Done:  E(RB3LYP) =  -422.055318020     A.U. after    9 cycles
 SCF Done:  E(RB3LYP) =  -422.055346280     A.U. after    9 cycles
 SCF Done:  E(RB3LYP) =  -422.055342666     A.U. after   10 cycles
 SCF Done:  E(RB3LYP) =  -422.055480255     A.U. after   13 cycles
 SCF Done:  E(RB3LYP) =  -422.055675095     A.U. after    9 cycles
 SCF Done:  E(RB3LYP) =  -422.055680213     A.U. after    8 cycles
 SCF Done:  E(RB3LYP) =  -422.055680259     A.U. after    7 cycles
 SCF Done:  E(RB3LYP) =  -422.055678281     A.U. after    9 cycles
 SCF Done:  E(RB3LYP) =  -422.055682720     A.U. after    8 cycles
 SCF Done:  E(RB3LYP) =  -422.055681887     A.U. after    7 cycles
 Optimization completed.
    -- Stationary point found.
 Normal termination of Gaussian 16 at Sun Jul 18 13:46:03 2021.

 --------------------------------------------------------------------
 #P Geom=AllCheck Guess=TCheck SCRF=Check GenChk RB3LYP/6-31G(d) Freq
 --------------------------------------------------------------------

 Structure from the checkpoint file:  "SET_328_BBB256_conf1.geo_075_180_255.chk"
 ---------------------------------------------
 SET_328_BBB256_conf1.geo_075_180_255 geometry
 ---------------------------------------------
 Charge =  1 Multiplicity = 1

 SCF Done:  E(RB3LYP) =  -422.055681887     A.U. after    1 cycles

  Exact polarizability: 154.062   2.948 130.495 -14.350   3.362  73.060
 Approx polarizability: 163.583   2.062 154.452 -17.836   5.091  82.330

                      1                      2                      3
                      A                      A                      A
 Frequencies --     58.9368                61.3879                98.2176
 Red. masses --      2.6731                 3.3820                 3.8994
 Frc consts  --      0.0055                 0.0075                 0.0222
 IR Inten    --      4.5997                 9.7200                 9.2557

                      4                      5                      6
                      A                      A                      A
 Frequencies --    146.7333               232.0012               259.8798
 Red. masses --      1.8739                 1.3052                 3.3607
 Frc consts  --      0.0238                 0.0414                 0.1337
 IR Inten    --      4.9655                 1.2962                12.8320

                      7                      8                      9
                      A                      A                      A
 Frequencies --    299.1176               354.6843               418.1887
 Red. masses --      2.1362                 2.7060                 3.5227
 Frc consts  --      0.1126                 0.2006                 0.3630
 IR Inten    --      3.4250                 5.6572                 4.7696

                     10                     11                     12
                      A                      A                      A
 Frequencies --    431.3788               513.9017               617.6023
 Red. masses --      2.5887                 2.9702                 5.3623
 Frc consts  --      0.2838                 0.4622                 1.2051
 IR Inten    --      2.8625                 5.1103                 7.2052

                     13                     14                     15
                      A                      A                      A
 Frequencies --    646.9761               763.6189               778.6067
 Red. masses --      5.6303                 2.6378                 1.2128
 Frc consts  --      1.3885                 0.9063                 0.4332
 IR Inten    --      3.5211                 1.3154                35.9250

                     16                     17                     18
                      A                      A                      A
 Frequencies --    792.5624               847.9402               853.6258
 Red. masses --      1.5301                 1.5408                 3.0065
 Frc consts  --      0.5663                 0.6527                 1.2908
 IR Inten    --     34.4633                10.6599                11.3369

                     19                     20                     21
                      A                      A                      A
 Frequencies --    909.1742               921.4224               986.1949
 Red. masses --      2.2917                 1.4223                 1.4065
 Frc consts  --      1.1161                 0.7115                 0.8060
 IR Inten    --      9.0391                 2.4097                 0.1905

                     22                     23                     24
                      A                      A                      A
 Frequencies --   1011.7818              1022.1984              1024.3899
 Red. masses --      5.4683                 1.3076                 1.9850
 Frc consts  --      3.2982                 0.8050                 1.2273
 IR Inten    --     13.1118                 0.3609                14.0001

                     25                     26                     27
                      A                      A                      A
 Frequencies --   1043.8684              1071.6812              1080.0172
 Red. masses --      2.0089                 3.0482                 2.3227
 Frc consts  --      1.2897                 2.0627                 1.5962
 IR Inten    --     25.4530                14.1722                11.6066

                     28                     29                     30
                      A                      A                      A
 Frequencies --   1121.8924              1154.7566              1183.8450
 Red. masses --      1.4524                 1.2904                 1.1193
 Frc consts  --      1.0771                 1.0138                 0.9242
 IR Inten    --      5.7221                 3.5632                 6.2313

                     31                     32                     33
                      A                      A                      A
 Frequencies --   1188.7885              1250.9560              1274.7532
 Red. masses --      1.4613                 2.2086                 1.7731
 Frc consts  --      1.2167                 2.0364                 1.6976
 IR Inten    --      7.8444                 7.1290                 1.0196

                     34                     35                     36
                      A                      A                      A
 Frequencies --   1311.8495              1334.6493              1342.8020
 Red. masses --      3.4762                 1.4454                 1.3139
 Frc consts  --      3.5247                 1.5169                 1.3958
 IR Inten    --      0.6487                 4.5993                 0.2849

                     37                     38                     39
                      A                      A                      A
 Frequencies --   1367.0629              1407.1092              1450.2352
 Red. masses --      1.2489                 1.3121                 1.2129
 Frc consts  --      1.3751                 1.5307                 1.5029
 IR Inten    --      2.1857                 7.3732                18.4507

                     40                     41                     42
                      A                      A                      A
 Frequencies --   1466.2177              1470.5092              1481.8413
 Red. masses --      1.2409                 1.2471                 2.1220
 Frc consts  --      1.5717                 1.5889                 2.7453
 IR Inten    --     11.6447                50.9056                48.1797

                     43                     44                     45
                      A                      A                      A
 Frequencies --   1501.0637              1514.1837              1519.6208
 Red. masses --      1.1029                 1.0501                 1.1177
 Frc consts  --      1.4642                 1.4186                 1.5207
 IR Inten    --      2.8170                23.0593                11.1296

                     46                     47                     48
                      A                      A                      A
 Frequencies --   1522.2196              1524.3663              1630.9165
 Red. masses --      1.0651                 2.0419                 5.1799
 Frc consts  --      1.4542                 2.7955                 8.1178
 IR Inten    --     30.8242                39.7974                22.8697

                     49                     50                     51
                      A                      A                      A
 Frequencies --   1637.0763              1651.4332              3085.8555
 Red. masses --      1.0930                 5.3602                 1.0634
 Frc consts  --      1.7259                 8.6129                 5.9664
 IR Inten    --    135.1325                89.0067                20.1200

                     52                     53                     54
                      A                      A                      A
 Frequencies --   3127.2243              3127.7960              3145.8340
 Red. masses --      1.0548                 1.0365                 1.0985
 Frc consts  --      6.0778                 5.9742                 6.4048
 IR Inten    --     17.9592                 7.2528                19.0443

                     55                     56                     57
                      A                      A                      A
 Frequencies --   3187.7471              3193.9948              3215.3176
 Red. masses --      1.1090                 1.0896                 1.0880
 Frc consts  --      6.6399                 6.5492                 6.6274
 IR Inten    --     16.6434                42.2302                 6.9604

                     58                     59                     60
                      A                      A                      A
 Frequencies --   3222.6926              3228.0801              3229.2486
 Red. masses --      1.1091                 1.0937                 1.1084
 Frc consts  --      6.7866                 6.7149                 6.8099
 IR Inten    --      6.8503                28.2647                 9.8190

                     61                     62                     63
                      A                      A                      A
 Frequencies --   3241.4870              3401.5753              3446.9497
 Red. masses --      1.0971                 1.0574                 1.0942
 Frc consts  --      6.7918                 7.2087                 7.6600
 IR Inten    --     22.3668               158.9907               194.6356

 - Thermochemistry -
 -------------------
 Temperature   298.150 Kelvin.  Pressure   1.00000 Atm.
 Atom     1 has atomic number  6 and mass  12.00000

 Molecular mass:   137.10787 amu.
 Principal axes and moments of inertia in atomic units:
                           1         2         3
     Eigenvalues --   468.143692969.511913287.14498
           X            1.00000   0.00239  -0.00179
           Y           -0.00240   0.99997  -0.00747
           Z            0.00177   0.00747   0.99997
 This molecule is an asymmetric top.
 Rotational symmetry number  1.
 Warning -- assumption of classical behavior for rotation
           may cause significant error
 Rotational temperatures (Kelvin)      0.18502     0.02917     0.02635
 Rotational constants (GHZ):           3.85510     0.60776     0.54903
 Zero-point vibrational energy     546741.5 (Joules/Mol)
                                  130.67435 (Kcal/Mol)
 Warning -- explicit consideration of  12 degrees of freedom as
           vibrations may cause significant error
 Vibrational temperatures:     84.80    88.32   141.31   211.12   333.80
          (Kelvin)            373.91   430.36   510.31   601.68   620.66
                              739.39   888.59   930.85  1098.68  1120.24
                             1140.32  1220.00  1228.18  1308.10  1325.72
                             1418.91  1455.73  1470.72  1473.87  1501.89
                             1541.91  1553.90  1614.15  1661.44  1703.29
                             1710.40  1799.85  1834.09  1887.46  1920.26
                             1931.99  1966.90  2024.52  2086.57  2109.56
                             2115.73  2132.04  2159.70  2178.57  2186.40
                             2190.13  2193.22  2346.53  2355.39  2376.04
                             4439.86  4499.38  4500.20  4526.15  4586.46
                             4595.45  4626.12  4636.74  4644.49  4646.17
                             4663.78  4894.11  4959.39

 Zero-point correction=                           0.208243 (Hartree/Particle)
 Thermal correction to Energy=                    0.217843
 Thermal correction to Enthalpy=                  0.218787
 Thermal correction to Gibbs Free Energy=         0.172562
 Sum of electronic and zero-point Energies=           -421.847439
 Sum of electronic and thermal Energies=              -421.837839
 Sum of electronic and thermal Enthalpies=            -421.836895
 Sum of electronic and thermal Free Energies=         -421.883119

                     E (Thermal)             CV                S
                      KCal/Mol        Cal/Mol-Kelvin    Cal/Mol-Kelvin
 Total                  136.698             35.796             97.288
 Electronic               0.000              0.000              0.000
 Translational            0.889              2.981             40.659
 Rotational               0.889              2.981             29.903
 Vibrational            134.921             29.835             26.726
 Vibration     1          0.596              1.974              4.492
 Vibration     2          0.597              1.973              4.412
 Vibration     3          0.604              1.950              3.489
 Vibration     4          0.617              1.906              2.714
 Vibration     5          0.653              1.792              1.863
 Vibration     6          0.668              1.746              1.663
 Vibration     7          0.692              1.675              1.422
 Vibration     8          0.731              1.566              1.145
 Vibration     9          0.781              1.431              0.898
 Vibration    10          0.792              1.402              0.854
 Vibration    11          0.869              1.219              0.624
 Vibration    12          0.977              0.995              0.420

 Optimization completed.
    -- Stationary point found.
 Normal termination of Gaussian 16 at Sun Jul 18 13:48:53 2021.

 ----------------------------------------------------------------------
 #p b3lyp/6-31G(d) scrf=(iefpcm,read,solvent=water) geom=allcheck guess
 =read
 ----------------------------------------------------------------------

 Structure from the checkpoint file:  "SET_328_BBB256_conf1.geo_075_180_255.chk"
 ---------------------------------------------
 SET_328_BBB256_conf1.geo_075_180_255 geometry
 ---------------------------------------------
 Charge =  1 Multiplicity = 1

 SCF Done:  E(RB3LYP) =  -422.055681887     A.U. after    1 cycles
 Normal termination of Gaussian 16 at Sun Jul 18 13:48:57 2021.

 -----------------------------
 #p B3LYP/6-31G* geom=allcheck
 -----------------------------

 Structure from the checkpoint file:  "SET_328_BBB256_conf1.geo_075_180_255.chk"
 ---------------------------------------------
 SET_328_BBB256_conf1.geo_075_180_255 geometry
 ---------------------------------------------
 Charge =  1 Multiplicity = 1

 SCF Done:  E(RB3LYP) =  -421.947755537     A.U. after   14 cycles
 Normal termination of Gaussian 16 at Sun Jul 18 13:49:13 2021.
 Gaussian 16:  ES64L-G16RevB.01 20-Dec-2017

 --------------------------------------------------------
 #p mp2/aug-cc-pVDZ scf=tight maxdisk=180GB geom=allcheck
 --------------------------------------------------------

 Structure from the checkpoint file:  "SET_328_BBB256_conf1.geo_075_180_255.chk"
 ---------------------------------------------
 SET_328_BBB256_conf1.geo_075_180_255 geometry
 ---------------------------------------------
 Charge =  1 Multiplicity = 1

                         Standard orientation:
 ---------------------------------------------------------------------
 Center     Atomic      Atomic             Coordinates (Angstroms)
 Number     Number       Type             X           Y           Z
 ---------------------------------------------------------------------
      1          6           0        3.805437    0.733105    0.105148
      2          1           0        3.351893    1.354299   -0.663413
      3          1           0        4.854503    0.557470   -0.123658
      4          1           0        3.703388    1.201395    1.081829
      5          7           0        3.107221   -0.584958    0.141456
      6          1           0        3.565830   -1.181490    0.847047
      7          6           0        1.641682   -0.520021    0.457031
      8          1           0        1.546896    0.019774    1.400085
      9          1           0        1.308029   -1.546601    0.605081
     10          6           0        0.835062    0.142301   -0.656851
     11          1           0        1.011045   -0.392735   -1.596076
     12          1           0        1.148087    1.178357   -0.795632
     13          6           0       -0.641261    0.100583   -0.328379
     14          7           0       -1.209501   -1.117783   -0.281511
     15          6           0       -2.513543   -1.190484    0.016450
     16          1           0       -2.941698   -2.188955    0.044988
     17          6           0       -3.310676   -0.076233    0.278120
     18          1           0       -4.361437   -0.197418    0.512307
     19          6           0       -2.716331    1.182947    0.228275
     20          1           0       -3.296082    2.078586    0.424175
     21          6           0       -1.359686    1.272889   -0.078331
     22          1           0       -0.859586    2.233983   -0.126685
     23          1           0        3.240985   -1.067995   -0.758439
 ---------------------------------------------------------------------

 SCF Done:  E(RHF) =  -419.251162736     A.U. after   14 cycles
 E2 =    -0.1457816915D+01 EUMP2 =    -0.42070897965149D+03

 The electronic state is 1-A.
 Alpha  occ. eigenvalues --  -15.88026 -15.68672 -11.46774 -11.46024 -11.40829
 Alpha  occ. eigenvalues --  -11.39810 -11.38884 -11.37084 -11.35885 -11.35084
 Alpha  occ. eigenvalues --   -1.50195  -1.37604  -1.22858  -1.19702  -1.16019
 Alpha  occ. eigenvalues --   -1.12394  -1.04157  -0.97183  -0.96460  -0.92824
 Alpha  occ. eigenvalues --   -0.88994  -0.83329  -0.81196  -0.79628  -0.76000
 Alpha  occ. eigenvalues --   -0.75597  -0.75228  -0.73721  -0.70766  -0.69661
 Alpha  occ. eigenvalues --   -0.67955  -0.66561  -0.63919  -0.62694  -0.53145
 Alpha  occ. eigenvalues --   -0.48921  -0.45289
 Alpha virt. eigenvalues --   -0.09699  -0.07183  -0.07001  -0.05508  -0.03845
 Alpha virt. eigenvalues --   -0.03647  -0.03468  -0.03148  -0.02577  -0.01759
 Alpha virt. eigenvalues --   -0.01473  -0.01433  -0.00549   0.00184   0.00426

 Mulliken charges:
               1
     1  C    0.826826
     2  H   -0.080337
     3  H   -0.110846
     4  H   -0.067153
     5  N   -0.606657
     6  H    0.171383
     7  C    0.935804
     8  H   -0.232657
     9  H   -0.129490
    10  C    0.396619
    11  H   -0.049413
    12  H   -0.223569
    13  C    0.301169
    14  N   -0.761213
    15  C    0.446039
    16  H   -0.350996
    17  C    0.937004
    18  H   -0.397672
    19  C   -0.188119
    20  H   -0.392654
    21  C    0.955572
    22  H   -0.562973
    23  H    0.183333
 Sum of Mulliken charges =   1.00000

 Dipole moment (field-independent basis, Debye):
    X=             10.7311    Y=              0.1382    Z=              1.0818  Tot=             10.7863
 Quadrupole moment (field-independent basis, Debye-Ang):
   XX=              1.6296   YY=            -51.4883   ZZ=            -58.9109
   XY=             -5.5691   XZ=             -0.4267   YZ=             -0.7872

 Normal termination of Gaussian 16 at Sun Jul 18 13:52:35 2021.
