 Gaussian 16, Revision B.01,

 -----------------------------------------------------------
 #p b3lyp/6-31G(d) opt freq scrf=(iefpcm,read,solvent=water)
 -----------------------------------------------------------

 ---------------------------------------------
 SET_328_BBB321_conf1.geo_180_330_120 geometry
 ---------------------------------------------
 Symbolic Z-matrix:
 Charge =  1 Multiplicity = 1

 SCF Done:  E(RB3LYP) =  -1212.47496106     A.U. after   14 cycles
 SCF Done:  E(RB3LYP) =  -1212.62961803     A.U. after   12 cycles
 SCF Done:  E(RB3LYP) =  -1212.75906957     A.U. after   14 cycles
 SCF Done:  E(RB3LYP) =  -1212.79379781     A.U. after   12 cycles
 SCF Done:  E(RB3LYP) =  -1212.80983703     A.U. after   13 cycles
 SCF Done:  E(RB3LYP) =  -1212.81554363     A.U. after   13 cycles
 SCF Done:  E(RB3LYP) =  -1212.81510081     A.U. after   14 cycles
 SCF Done:  E(RB3LYP) =  -1212.82015573     A.U. after   11 cycles
 SCF Done:  E(RB3LYP) =  -1212.82072691     A.U. after   12 cycles
 SCF Done:  E(RB3LYP) =  -1212.82175091     A.U. after   11 cycles
 SCF Done:  E(RB3LYP) =  -1212.82274857     A.U. after    9 cycles
 SCF Done:  E(RB3LYP) =  -1212.82274906     A.U. after    6 cycles
 SCF Done:  E(RB3LYP) =  -1212.82275189     A.U. after    8 cycles
 SCF Done:  E(RB3LYP) =  -1212.82275222     A.U. after    7 cycles
 SCF Done:  E(RB3LYP) =  -1212.82274911     A.U. after    9 cycles
 SCF Done:  E(RB3LYP) =  -1212.82274921     A.U. after    6 cycles
 Optimization completed on the basis of negligible forces.
    -- Stationary point found.
 Normal termination of Gaussian 16 at Sun Jul 18 17:54:59 2021.

 --------------------------------------------------------------------
 #P Geom=AllCheck Guess=TCheck SCRF=Check GenChk RB3LYP/6-31G(d) Freq
 --------------------------------------------------------------------

 Structure from the checkpoint file:  "SET_328_BBB321_conf1.geo_180_330_120.chk"
 ---------------------------------------------
 SET_328_BBB321_conf1.geo_180_330_120 geometry
 ---------------------------------------------
 Charge =  1 Multiplicity = 1

 SCF Done:  E(RB3LYP) =  -1212.82274921     A.U. after    1 cycles

  Exact polarizability: 363.826  15.107 308.546   9.597  -2.589  93.391
 Approx polarizability: 393.866  17.962 345.794  12.776  -3.116 111.772

                      1                      2                      3
                      A                      A                      A
 Frequencies --     24.9353                39.7842                51.5385
 Red. masses --      4.8964                 7.3785                 4.8500
 Frc consts  --      0.0018                 0.0069                 0.0076
 IR Inten    --      0.4678                10.4074                 1.4465

                      4                      5                      6
                      A                      A                      A
 Frequencies --     61.4201                71.4985                79.1947
 Red. masses --      5.0787                 1.9793                 3.5042
 Frc consts  --      0.0113                 0.0060                 0.0129
 IR Inten    --      2.3420                10.1292                 3.4352

                      7                      8                      9
                      A                      A                      A
 Frequencies --    104.2701               121.5464               138.6268
 Red. masses --      4.3233                 1.9504                 4.9662
 Frc consts  --      0.0277                 0.0170                 0.0562
 IR Inten    --      1.3584                 0.5976                13.4608

                     10                     11                     12
                      A                      A                      A
 Frequencies --    205.5985               210.1659               247.1951
 Red. masses --      5.7634                 1.1984                 5.3105
 Frc consts  --      0.1435                 0.0312                 0.1912
 IR Inten    --     18.0141               315.4282                 3.8324

                     13                     14                     15
                      A                      A                      A
 Frequencies --    262.7460               265.5999               277.9901
 Red. masses --      5.7529                 4.2498                 4.9687
 Frc consts  --      0.2340                 0.1766                 0.2262
 IR Inten    --      1.5713                 4.5594                 1.7821

                     16                     17                     18
                      A                      A                      A
 Frequencies --    315.1972               335.9105               336.8539
 Red. masses --      4.4765                 1.4513                 4.3551
 Frc consts  --      0.2620                 0.0965                 0.2912
 IR Inten    --     30.8901               358.6016                50.9658

                     19                     20                     21
                      A                      A                      A
 Frequencies --    370.7634               404.0200               410.7545
 Red. masses --      4.0570                 3.6172                 1.2425
 Frc consts  --      0.3286                 0.3479                 0.1235
 IR Inten    --      0.5042                10.0947                93.8432

                     22                     23                     24
                      A                      A                      A
 Frequencies --    454.8770               491.3827               529.6755
 Red. masses --      3.3800                 5.0271                 1.8469
 Frc consts  --      0.4121                 0.7152                 0.3053
 IR Inten    --      5.8952                 3.4090                90.0567

                     25                     26                     27
                      A                      A                      A
 Frequencies --    545.5770               552.0606               555.7981
 Red. masses --      3.2332                 2.4295                 1.7515
 Frc consts  --      0.5670                 0.4363                 0.3188
 IR Inten    --     58.9216                30.9936               133.8484

                     28                     29                     30
                      A                      A                      A
 Frequencies --    578.9725               604.9847               619.8443
 Red. masses --      2.1332                 2.8024                 8.9275
 Frc consts  --      0.4213                 0.6043                 2.0209
 IR Inten    --      4.1022                18.7947                 0.3341

                     31                     32                     33
                      A                      A                      A
 Frequencies --    633.7339               645.8297               660.8003
 Red. masses --      2.0987                 1.1447                 6.4997
 Frc consts  --      0.4966                 0.2813                 1.6722
 IR Inten    --     12.4876                 2.5382                 6.5324

                     34                     35                     36
                      A                      A                      A
 Frequencies --    697.3872               703.2935               708.5347
 Red. masses --      3.9355                 3.0369                 2.5243
 Frc consts  --      1.1277                 0.8850                 0.7467
 IR Inten    --      0.4039                 5.7223                 3.3922

                     37                     38                     39
                      A                      A                      A
 Frequencies --    710.5136               750.9054               813.7163
 Red. masses --      4.8842                 1.7344                 1.5748
 Frc consts  --      1.4527                 0.5762                 0.6144
 IR Inten    --     10.2900                86.3661                30.3321

                     40                     41                     42
                      A                      A                      A
 Frequencies --    828.8110               868.9977               886.1412
 Red. masses --      6.0498                 6.3648                 4.4511
 Frc consts  --      2.4485                 2.8318                 2.0593
 IR Inten    --     39.7065                37.1372                 1.0848

                     43                     44                     45
                      A                      A                      A
 Frequencies --    906.9491               918.9469               951.4195
 Red. masses --      1.5692                 1.3827                 5.3026
 Frc consts  --      0.7605                 0.6879                 2.8280
 IR Inten    --     33.2606                 0.2449                 1.8242

                     46                     47                     48
                      A                      A                      A
 Frequencies --    992.6572              1005.3730              1009.7862
 Red. masses --      1.2718                 4.8110                 5.1463
 Frc consts  --      0.7383                 2.8651                 3.0918
 IR Inten    --      1.6905                 0.7306                21.2520

                     49                     50                     51
                      A                      A                      A
 Frequencies --   1018.7684              1048.8701              1067.3829
 Red. masses --      5.0618                 1.5265                 1.6720
 Frc consts  --      3.0953                 0.9895                 1.1223
 IR Inten    --      7.2434                30.0932                15.3599

                     52                     53                     54
                      A                      A                      A
 Frequencies --   1099.7222              1113.8985              1119.2910
 Red. masses --      1.5707                 1.5763                 1.6199
 Frc consts  --      1.1192                 1.1523                 1.1957
 IR Inten    --     18.7257                 9.7378                28.0983

                     55                     56                     57
                      A                      A                      A
 Frequencies --   1142.7766              1196.9629              1209.4361
 Red. masses --      1.6678                 1.1198                 1.6918
 Frc consts  --      1.2833                 0.9453                 1.4580
 IR Inten    --      7.5524                12.5937                35.0835

                     58                     59                     60
                      A                      A                      A
 Frequencies --   1253.8673              1269.7634              1290.9230
 Red. masses --      2.9328                 2.8916                 2.0931
 Frc consts  --      2.7167                 2.7468                 2.0551
 IR Inten    --    258.8614                54.5296                88.9877

                     61                     62                     63
                      A                      A                      A
 Frequencies --   1335.1457              1360.7335              1376.5611
 Red. masses --      1.9271                 4.4133                 4.6264
 Frc consts  --      2.0240                 4.8146                 5.1652
 IR Inten    --    218.7595                26.1766                98.8465

                     64                     65                     66
                      A                      A                      A
 Frequencies --   1428.4868              1445.4312              1493.3374
 Red. masses --      1.2439                 2.8598                 1.0487
 Frc consts  --      1.4955                 3.5203                 1.3779
 IR Inten    --     79.1603               118.1086                12.7423

                     67                     68                     69
                      A                      A                      A
 Frequencies --   1517.8103              1522.5895              1533.9014
 Red. masses --      1.1408                 1.9077                 2.7247
 Frc consts  --      1.5484                 2.6057                 3.7772
 IR Inten    --     28.1690               150.3638               265.0879

                     70                     71                     72
                      A                      A                      A
 Frequencies --   1549.3393              1562.9217              1589.5609
 Red. masses --      2.1974                 4.3285                 2.6506
 Frc consts  --      3.1078                 6.2297                 3.9459
 IR Inten    --    486.9924               125.1928               335.0560

                     73                     74                     75
                      A                      A                      A
 Frequencies --   1600.7269              1641.1490              1649.1894
 Red. masses --      2.6390                 2.1013                 2.1951
 Frc consts  --      3.9840                 3.3346                 3.5176
 IR Inten    --    211.7090               853.0110               254.8688

                     76                     77                     78
                      A                      A                      A
 Frequencies --   1650.6763              1663.6535              1729.4117
 Red. masses --      1.7727                 5.4726                 2.7613
 Frc consts  --      2.8459                 8.9242                 4.8659
 IR Inten    --    183.0118               298.2896               880.7217

                     79                     80                     81
                      A                      A                      A
 Frequencies --   1741.1707              3085.6554              3151.6274
 Red. masses --      5.9422                 1.0375                 1.1001
 Frc consts  --     10.6141                 5.8199                 6.4378
 IR Inten    --    376.0997                 8.5394                10.6458

                     82                     83                     84
                      A                      A                      A
 Frequencies --   3180.5142              3208.5812              3226.8180
 Red. masses --      1.1038                 1.0878                 1.0936
 Frc consts  --      6.5785                 6.5984                 6.7088
 IR Inten    --     24.4836                19.6541                35.2726

                     85                     86                     87
                      A                      A                      A
 Frequencies --   3231.3457              3289.5328              3301.2716
 Red. masses --      1.0904                 1.0917                 1.0948
 Frc consts  --      6.7081                 6.9604                 7.0301
 IR Inten    --      3.2078                 5.2378                 6.1930

                     88                     89                     90
                      A                      A                      A
 Frequencies --   3482.4215              3544.7219              3581.1551
 Red. masses --      1.0507                 1.0494                 1.0792
 Frc consts  --      7.5074                 7.7689                 8.1545
 IR Inten    --    423.2586               299.4554               286.5177

                     91                     92                     93
                      A                      A                      A
 Frequencies --   3595.3178              3617.3188              3663.7821
 Red. masses --      1.0782                 1.1043                 1.1066
 Frc consts  --      8.2114                 8.5138                 8.7521
 IR Inten    --    100.2499               457.5163               246.8584

 - Thermochemistry -
 -------------------
 Temperature   298.150 Kelvin.  Pressure   1.00000 Atm.
 Atom     1 has atomic number  6 and mass  12.00000

 Molecular mass:   276.09191 amu.
 Principal axes and moments of inertia in atomic units:
                           1         2         3
     Eigenvalues --  3378.65564********************
           X            0.99999  -0.00297  -0.00147
           Y            0.00296   0.99999  -0.00245
           Z            0.00148   0.00245   1.00000
 This molecule is an asymmetric top.
 Rotational symmetry number  1.
 Warning -- assumption of classical behavior for rotation
           may cause significant error
 Rotational temperatures (Kelvin)      0.02564     0.00800     0.00612
 Rotational constants (GHZ):           0.53416     0.16664     0.12754
 Zero-point vibrational energy     683941.6 (Joules/Mol)
                                  163.46596 (Kcal/Mol)
 Warning -- explicit consideration of  30 degrees of freedom as
           vibrations may cause significant error
 Vibrational temperatures:     35.88    57.24    74.15    88.37   102.87
          (Kelvin)            113.94   150.02   174.88   199.45   295.81
                              302.38   355.66   378.03   382.14   399.97
                              453.50   483.30   484.66   533.45   581.29
                              590.98   654.47   706.99   762.08   784.96
                              794.29   799.67   833.01   870.44   891.82
                              911.80   929.20   950.74  1003.38  1011.88
                             1019.42  1022.27  1080.39  1170.76  1192.47
                             1250.29  1274.96  1304.90  1322.16  1368.88
                             1428.21  1446.51  1452.86  1465.78  1509.09
                             1535.73  1582.25  1602.65  1610.41  1644.20
                             1722.16  1740.11  1804.04  1826.91  1857.35
                             1920.98  1957.79  1980.56  2055.27  2079.65
                             2148.58  2183.79  2190.67  2206.94  2229.15
                             2248.70  2287.02  2303.09  2361.25  2372.82
                             2374.96  2393.63  2488.24  2505.16  4439.57
                             4534.49  4576.05  4616.43  4642.67  4649.19
                             4732.90  4749.79  5010.43  5100.06  5152.48
                             5172.86  5204.51  5271.37

 Zero-point correction=                           0.260500 (Hartree/Particle)
 Thermal correction to Energy=                    0.278983
 Thermal correction to Enthalpy=                  0.279927
 Thermal correction to Gibbs Free Energy=         0.212221
 Sum of electronic and zero-point Energies=          -1212.562250
 Sum of electronic and thermal Energies=             -1212.543766
 Sum of electronic and thermal Enthalpies=           -1212.542822
 Sum of electronic and thermal Free Energies=        -1212.610528

                     E (Thermal)             CV                S
                      KCal/Mol        Cal/Mol-Kelvin    Cal/Mol-Kelvin
 Total                  175.065             69.697            142.500
 Electronic               0.000              0.000              0.000
 Translational            0.889              2.981             42.745
 Rotational               0.889              2.981             34.603
 Vibrational            173.287             63.735             65.151
 Vibration     1          0.593              1.985              6.196
 Vibration     2          0.594              1.981              5.270
 Vibration     3          0.596              1.977              4.757
 Vibration     4          0.597              1.973              4.411
 Vibration     5          0.598              1.968              4.112
 Vibration     6          0.600              1.963              3.911
 Vibration     7          0.605              1.946              3.373
 Vibration     8          0.609              1.931              3.076
 Vibration     9          0.614              1.915              2.823
 Vibration    10          0.640              1.832              2.082
 Vibration    11          0.642              1.825              2.042
 Vibration    12          0.661              1.767              1.750
 Vibration    13          0.670              1.741              1.643
 Vibration    14          0.671              1.736              1.625
 Vibration    15          0.679              1.714              1.546
 Vibration    16          0.703              1.645              1.335
 Vibration    17          0.717              1.604              1.232
 Vibration    18          0.718              1.602              1.227
 Vibration    19          0.743              1.532              1.077
 Vibration    20          0.769              1.461              0.948
 Vibration    21          0.775              1.447              0.924
 Vibration    22          0.813              1.350              0.781
 Vibration    23          0.847              1.269              0.680
 Vibration    24          0.885              1.184              0.588
 Vibration    25          0.901              1.149              0.553
 Vibration    26          0.907              1.135              0.540
 Vibration    27          0.911              1.127              0.532
 Vibration    28          0.936              1.077              0.487
 Vibration    29          0.964              1.021              0.441
 Vibration    30          0.980              0.990              0.417

 Optimization completed.
    -- Stationary point found.
 Normal termination of Gaussian 16 at Sun Jul 18 18:15:05 2021.

 ----------------------------------------------------------------------
 #p b3lyp/6-31G(d) scrf=(iefpcm,read,solvent=water) geom=allcheck guess
 =read
 ----------------------------------------------------------------------

 Structure from the checkpoint file:  "SET_328_BBB321_conf1.geo_180_330_120.chk"
 ---------------------------------------------
 SET_328_BBB321_conf1.geo_180_330_120 geometry
 ---------------------------------------------
 Charge =  1 Multiplicity = 1

 SCF Done:  E(RB3LYP) =  -1212.82274921     A.U. after    1 cycles
 Normal termination of Gaussian 16 at Sun Jul 18 18:15:25 2021.

 -----------------------------
 #p B3LYP/6-31G* geom=allcheck
 -----------------------------

 Structure from the checkpoint file:  "SET_328_BBB321_conf1.geo_180_330_120.chk"
 ---------------------------------------------
 SET_328_BBB321_conf1.geo_180_330_120 geometry
 ---------------------------------------------
 Charge =  1 Multiplicity = 1

 SCF Done:  E(RB3LYP) =  -1212.69131476     A.U. after   17 cycles
 Normal termination of Gaussian 16 at Sun Jul 18 18:16:39 2021.
 Gaussian 16:  ES64L-G16RevB.01 20-Dec-2017

 --------------------------------------------------------
 #p mp2/aug-cc-pVDZ scf=tight maxdisk=180GB geom=allcheck
 --------------------------------------------------------

 Structure from the checkpoint file:  "SET_328_BBB321_conf1.geo_180_330_120.chk"
 ---------------------------------------------
 SET_328_BBB321_conf1.geo_180_330_120 geometry
 ---------------------------------------------
 Charge =  1 Multiplicity = 1

                         Standard orientation:
 ---------------------------------------------------------------------
 Center     Atomic      Atomic             Coordinates (Angstroms)
 Number     Number       Type             X           Y           Z
 ---------------------------------------------------------------------
      1          6           0        4.969673    2.767393   -0.250026
      2          1           0        5.466010    2.897189   -1.216286
      3          1           0        5.684210    3.047595    0.527065
      4          1           0        4.109587    3.436353   -0.205374
      5          6           0        4.612823    1.304215   -0.077303
      6          8           0        5.484897    0.444640    0.062239
      7          7           0        3.271578    1.033801   -0.104850
      8          1           0        2.657796    1.831205   -0.224766
      9          6           0        2.618024   -0.208506    0.004563
     10          6           0        3.291615   -1.428817    0.163669
     11          6           0        2.547284   -2.605794    0.263091
     12          6           0        1.158382   -2.595675    0.206936
     13          1           0        0.605342   -3.523357    0.300840
     14          1           0        3.069568   -3.548096    0.391868
     15          1           0        4.369438   -1.440014    0.209356
     16          6           0        1.217871   -0.196253   -0.053086
     17          1           0        0.691117    0.741637   -0.179623
     18          6           0        0.477792   -1.377630    0.043306
     19          6           0       -0.992840   -1.326390   -0.030690
     20          7           0       -1.634525   -0.093752    0.008981
     21          6           0       -1.832642   -2.399278   -0.146926
     22          1           0       -1.586437   -3.447437   -0.218252
     23         16           0       -3.491115   -1.888725   -0.202813
     24          6           0       -2.925767   -0.229691   -0.068180
     25          7           0       -3.842777    0.806250   -0.045882
     26          6           0       -3.572121    2.135968    0.112663
     27          7           0       -4.603565    2.974672    0.113188
     28          1           0       -4.451452    3.968359    0.256694
     29          1           0       -5.555850    2.631301    0.042786
     30          7           0       -2.328587    2.566845    0.252576
     31          1           0       -1.561321    1.896965    0.242525
     32          1           0       -2.147995    3.558955    0.372590
     33          1           0       -4.826786    0.559851   -0.128519
 ---------------------------------------------------------------------

 SCF Done:  E(RHF) =  -1207.15227047     A.U. after   18 cycles
 E2 =    -0.2816934939D+01 EUMP2 =    -0.12099692054122D+04

 The electronic state is 1-A.
 Alpha  occ. eigenvalues --  -92.13629 -20.60761 -15.81970 -15.80531 -15.79307
 Alpha  occ. eigenvalues --  -15.72311 -15.69674 -11.61202 -11.51657 -11.44458
 Alpha  occ. eigenvalues --  -11.41398 -11.39239 -11.38445 -11.35652 -11.33935
 Alpha  occ. eigenvalues --  -11.33125 -11.33003 -11.32007 -11.31998  -9.13791
 Alpha  occ. eigenvalues --   -6.81954  -6.81846  -6.81653  -1.55639  -1.45941
 Alpha  occ. eigenvalues --   -1.45805  -1.40021  -1.39165  -1.34357  -1.24706
 Alpha  occ. eigenvalues --   -1.20589  -1.17046  -1.11980  -1.11112  -1.06964
 Alpha  occ. eigenvalues --   -1.05491  -0.99900  -0.99176  -0.95797  -0.93249
 Alpha  occ. eigenvalues --   -0.91960  -0.89393  -0.87072  -0.86212  -0.84646
 Alpha  occ. eigenvalues --   -0.83628  -0.82388  -0.80089  -0.77095  -0.76236
 Alpha  occ. eigenvalues --   -0.72579  -0.72343  -0.70945  -0.69876  -0.69821
 Alpha  occ. eigenvalues --   -0.68857  -0.66159  -0.64488  -0.64121  -0.63771
 Alpha  occ. eigenvalues --   -0.62803  -0.61941  -0.60887  -0.59794  -0.58310
 Alpha  occ. eigenvalues --   -0.58096  -0.53296  -0.52212  -0.49852  -0.47451
 Alpha  occ. eigenvalues --   -0.41417  -0.38932
 Alpha virt. eigenvalues --   -0.09512  -0.07610  -0.06044  -0.05131  -0.04155
 Alpha virt. eigenvalues --   -0.03989  -0.03933  -0.03160  -0.02171  -0.01832
 Alpha virt. eigenvalues --   -0.01522  -0.00949  -0.00283   0.00003   0.00438

 Mulliken charges:
               1
     1  C    0.490182
     2  H    0.067711
     3  H    0.043461
     4  H   -0.203391
     5  C    0.508531
     6  O   -0.861631
     7  N   -0.558929
     8  H   -0.031420
     9  C   -0.369009
    10  C    1.304816
    11  C   -0.068175
    12  C    0.842087
    13  H   -0.655638
    14  H   -0.515471
    15  H   -0.643983
    16  C    0.903167
    17  H   -0.809203
    18  C    1.690900
    19  C   -0.692839
    20  N   -0.657898
    21  C    0.498605
    22  H   -0.564556
    23  S    0.463998
    24  C    0.429892
    25  N   -0.695681
    26  C    1.355962
    27  N   -0.269158
    28  H    0.031923
    29  H    0.002186
    30  N   -0.159574
    31  H    0.115547
    32  H    0.010251
    33  H   -0.002666
 Sum of Mulliken charges =   1.00000

 Dipole moment (field-independent basis, Debye):
    X=            -17.6162    Y=             10.1080    Z=              0.0791  Tot=             20.3103
 Quadrupole moment (field-independent basis, Debye-Ang):
   XX=            -49.4739   YY=            -56.7463   ZZ=           -123.9165
   XY=            -24.9226   XZ=             -2.7172   YZ=              1.6324

 Normal termination of Gaussian 16 at Sun Jul 18 19:01:57 2021.
