 Gaussian 16, Revision B.01,

 -----------------------------------------------------------
 #p b3lyp/6-31G(d) opt freq scrf=(iefpcm,read,solvent=water)
 -----------------------------------------------------------

 ---------------------------------------------
 SET_328_BBB227_conf1.geo_075_180_060 geometry
 ---------------------------------------------
 Symbolic Z-matrix:
 Charge =  1 Multiplicity = 1

 SCF Done:  E(RB3LYP) =  -1203.63665794     A.U. after   12 cycles
 SCF Done:  E(RB3LYP) =  -1203.67824133     A.U. after   11 cycles
 SCF Done:  E(RB3LYP) =  -1203.70019194     A.U. after   11 cycles
 SCF Done:  E(RB3LYP) =  -1203.70033620     A.U. after   11 cycles
 SCF Done:  E(RB3LYP) =  -1203.70327690     A.U. after   11 cycles
 SCF Done:  E(RB3LYP) =  -1203.70403931     A.U. after   10 cycles
 SCF Done:  E(RB3LYP) =  -1203.70450071     A.U. after   10 cycles
 SCF Done:  E(RB3LYP) =  -1203.70462066     A.U. after   10 cycles
 SCF Done:  E(RB3LYP) =  -1203.70473657     A.U. after    9 cycles
 SCF Done:  E(RB3LYP) =  -1203.70478753     A.U. after   10 cycles
 SCF Done:  E(RB3LYP) =  -1203.70479786     A.U. after    6 cycles
 SCF Done:  E(RB3LYP) =  -1203.70479677     A.U. after    6 cycles
 SCF Done:  E(RB3LYP) =  -1203.70479592     A.U. after    6 cycles
 SCF Done:  E(RB3LYP) =  -1203.70479544     A.U. after    6 cycles
 SCF Done:  E(RB3LYP) =  -1203.70479470     A.U. after    7 cycles
 SCF Done:  E(RB3LYP) =  -1203.70479676     A.U. after    8 cycles
 Optimization completed.
    -- Stationary point found.
 Normal termination of Gaussian 16 at Sun Jul 18 14:13:53 2021.

 --------------------------------------------------------------------
 #P Geom=AllCheck Guess=TCheck SCRF=Check GenChk RB3LYP/6-31G(d) Freq
 --------------------------------------------------------------------

 Structure from the checkpoint file:  "SET_328_BBB227_conf1.geo_075_180_060.chk"
 ---------------------------------------------
 SET_328_BBB227_conf1.geo_075_180_060 geometry
 ---------------------------------------------
 Charge =  1 Multiplicity = 1

 SCF Done:  E(RB3LYP) =  -1203.70479676     A.U. after    1 cycles

  Exact polarizability: 308.839   0.120 245.717 -21.657  -8.856 236.601
 Approx polarizability: 307.659   0.944 262.003 -28.212 -12.673 263.138

                      1                      2                      3
                      A                      A                      A
 Frequencies --     19.7652                23.8872                41.0339
 Red. masses --      5.0244                 3.0436                 8.4233
 Frc consts  --      0.0012                 0.0010                 0.0084
 IR Inten    --      6.9577                 1.4178                11.8404

                      4                      5                      6
                      A                      A                      A
 Frequencies --     44.7322                53.8847                80.7126
 Red. masses --      4.1097                 4.3763                 3.9213
 Frc consts  --      0.0048                 0.0075                 0.0151
 IR Inten    --     12.2055                11.3134                 1.7233

                      7                      8                      9
                      A                      A                      A
 Frequencies --    102.7923               112.4528               156.8457
 Red. masses --      4.0454                 3.5569                 2.7585
 Frc consts  --      0.0252                 0.0265                 0.0400
 IR Inten    --      7.3524                14.9697                 2.1986

                     10                     11                     12
                      A                      A                      A
 Frequencies --    204.5518               227.4004               232.1291
 Red. masses --      3.4213                 3.9911                 1.9068
 Frc consts  --      0.0843                 0.1216                 0.0605
 IR Inten    --      7.2103                 4.5156                 0.2585

                     13                     14                     15
                      A                      A                      A
 Frequencies --    257.7578               270.0238               326.9439
 Red. masses --      3.4929                 4.6019                 2.8142
 Frc consts  --      0.1367                 0.1977                 0.1772
 IR Inten    --      8.7412                 9.2985                42.0495

                     16                     17                     18
                      A                      A                      A
 Frequencies --    336.1234               358.2880               368.0940
 Red. masses --      1.8705                 3.5836                 3.5649
 Frc consts  --      0.1245                 0.2710                 0.2846
 IR Inten    --      1.2009                 2.0157                 4.4649

                     19                     20                     21
                      A                      A                      A
 Frequencies --    412.6489               428.1629               437.8295
 Red. masses --      2.5927                 2.1588                 2.1566
 Frc consts  --      0.2601                 0.2332                 0.2436
 IR Inten    --      0.9859                 4.1996                36.7132

                     22                     23                     24
                      A                      A                      A
 Frequencies --    447.5309               454.9657               465.8850
 Red. masses --      2.2630                 2.9373                 3.1532
 Frc consts  --      0.2670                 0.3582                 0.4032
 IR Inten    --      8.9243                 2.6641                 7.8441

                     25                     26                     27
                      A                      A                      A
 Frequencies --    485.8408               496.6721               515.8702
 Red. masses --      2.6244                 2.3005                 1.3417
 Frc consts  --      0.3650                 0.3344                 0.2104
 IR Inten    --      4.7280                 2.7521                83.3737

                     28                     29                     30
                      A                      A                      A
 Frequencies --    570.2501               588.8791               634.1973
 Red. masses --      2.3361                 2.8819                 8.2891
 Frc consts  --      0.4476                 0.5888                 1.9643
 IR Inten    --     23.8012                 7.3664                45.3566

                     31                     32                     33
                      A                      A                      A
 Frequencies --    689.9056               700.9122               739.0188
 Red. masses --      2.7123                 3.9279                 1.3266
 Frc consts  --      0.7606                 1.1369                 0.4269
 IR Inten    --      5.3258                31.0071                17.5899

                     34                     35                     36
                      A                      A                      A
 Frequencies --    760.5958               781.5272               802.4267
 Red. masses --      2.9070                 1.4086                 1.4423
 Frc consts  --      0.9909                 0.5069                 0.5472
 IR Inten    --      3.1126                56.2387                 0.4179

                     37                     38                     39
                      A                      A                      A
 Frequencies --    807.0401               826.0007               828.4179
 Red. masses --      2.4404                 1.6835                 2.7867
 Frc consts  --      0.9365                 0.6768                 1.1268
 IR Inten    --      1.8542                 0.4521                 2.9451

                     40                     41                     42
                      A                      A                      A
 Frequencies --    856.5903               863.3102               887.2989
 Red. masses --      2.4425                 4.3707                 2.4097
 Frc consts  --      1.0559                 1.9193                 1.1178
 IR Inten    --      3.4730                 3.7849                20.3380

                     43                     44                     45
                      A                      A                      A
 Frequencies --    906.0292               914.7576               923.5545
 Red. masses --      1.7963                 2.2454                 3.9830
 Frc consts  --      0.8688                 1.1070                 2.0016
 IR Inten    --     12.2093                 4.8231                 6.3590

                     46                     47                     48
                      A                      A                      A
 Frequencies --    936.2527               938.9295               948.9133
 Red. masses --      1.8172                 1.5489                 3.1357
 Frc consts  --      0.9385                 0.8045                 1.6635
 IR Inten    --      5.3037                 0.3613                40.4935

                     49                     50                     51
                      A                      A                      A
 Frequencies --    969.3925               994.8381              1000.1957
 Red. masses --      2.0198                 2.1851                 1.7086
 Frc consts  --      1.1183                 1.2742                 1.0071
 IR Inten    --      0.4250                19.6378                 8.3377

                     52                     53                     54
                      A                      A                      A
 Frequencies --   1008.6515              1020.8960              1025.9997
 Red. masses --      2.1256                 2.5280                 2.2651
 Frc consts  --      1.2741                 1.5524                 1.4049
 IR Inten    --     85.6692                28.7994                34.4631

                     55                     56                     57
                      A                      A                      A
 Frequencies --   1040.1155              1066.4340              1092.0251
 Red. masses --      1.7337                 1.3558                 1.1067
 Frc consts  --      1.1050                 0.9085                 0.7776
 IR Inten    --      2.6429                 2.8402                 0.3305

                     58                     59                     60
                      A                      A                      A
 Frequencies --   1096.7425              1109.3493              1117.1620
 Red. masses --      3.1709                 2.8306                 2.9424
 Frc consts  --      2.2472                 2.0524                 2.1636
 IR Inten    --      5.4997                 5.2090                24.1052

                     61                     62                     63
                      A                      A                      A
 Frequencies --   1123.8476              1177.2922              1186.9869
 Red. masses --      2.9533                 2.3454                 1.5640
 Frc consts  --      2.1977                 1.9153                 1.2983
 IR Inten    --     64.0468                27.7020                 8.2895

                     64                     65                     66
                      A                      A                      A
 Frequencies --   1196.5014              1199.3727              1205.6913
 Red. masses --      1.3938                 1.6495                 1.1513
 Frc consts  --      1.1757                 1.3980                 0.9860
 IR Inten    --     22.1735                77.3920                 9.3436

                     67                     68                     69
                      A                      A                      A
 Frequencies --   1211.8708              1226.7120              1272.1644
 Red. masses --      1.5567                 1.7985                 2.4307
 Frc consts  --      1.3470                 1.5946                 2.3178
 IR Inten    --     52.0427               188.8063                49.8052

                     70                     71                     72
                      A                      A                      A
 Frequencies --   1280.5250              1286.7639              1288.6532
 Red. masses --      1.3553                 1.3369                 1.3188
 Frc consts  --      1.3094                 1.3042                 1.2904
 IR Inten    --     22.2455                 3.7606                21.6772

                     73                     74                     75
                      A                      A                      A
 Frequencies --   1292.4185              1298.5674              1302.7970
 Red. masses --      1.3000                 1.3633                 1.4686
 Frc consts  --      1.2794                 1.3545                 1.4686
 IR Inten    --     11.2877                45.8161                37.9022

                     76                     77                     78
                      A                      A                      A
 Frequencies --   1335.5998              1338.9571              1347.1176
 Red. masses --      1.2648                 1.2692                 1.6478
 Frc consts  --      1.3293                 1.3407                 1.7618
 IR Inten    --      9.0595                 4.0945               135.0847

                     79                     80                     81
                      A                      A                      A
 Frequencies --   1351.0389              1357.7691              1373.1176
 Red. masses --      1.2747                 1.4771                 1.3630
 Frc consts  --      1.3708                 1.6044                 1.5141
 IR Inten    --      5.1184                52.9416                43.2140

                     82                     83                     84
                      A                      A                      A
 Frequencies --   1381.1464              1385.5485              1386.1580
 Red. masses --      1.4110                 1.2428                 1.9956
 Frc consts  --      1.5858                 1.4057                 2.2591
 IR Inten    --     14.0131                 9.3396               329.0082

                     85                     86                     87
                      A                      A                      A
 Frequencies --   1391.0629              1394.8864              1401.7089
 Red. masses --      1.4249                 1.4818                 1.7016
 Frc consts  --      1.6246                 1.6988                 1.9698
 IR Inten    --     28.3278                 2.5165                81.2671

                     88                     89                     90
                      A                      A                      A
 Frequencies --   1407.5290              1408.6640              1414.1293
 Red. masses --      1.4901                 1.4601                 1.5509
 Frc consts  --      1.7393                 1.7071                 1.8273
 IR Inten    --     63.8106                39.6726                26.3588

                     91                     92                     93
                      A                      A                      A
 Frequencies --   1460.7697              1501.6198              1503.6791
 Red. masses --      1.8438                 1.0887                 1.0882
 Frc consts  --      2.3181                 1.4464                 1.4497
 IR Inten    --    157.2113                 2.5376                 0.1762

                     94                     95                     96
                      A                      A                      A
 Frequencies --   1505.1658              1508.1000              1509.5314
 Red. masses --      1.0957                 1.0931                 1.1003
 Frc consts  --      1.4626                 1.4648                 1.4773
 IR Inten    --      3.0157                 3.4280                 5.3290

                     97                     98                     99
                      A                      A                      A
 Frequencies --   1510.8659              1515.7708              1525.2732
 Red. masses --      1.0970                 1.0897                 1.0955
 Frc consts  --      1.4754                 1.4751                 1.5016
 IR Inten    --     11.3668                11.2062               205.1891

                    100                    101                    102
                      A                      A                      A
 Frequencies --   1528.5828              1545.4294              1601.6137
 Red. masses --      1.1041                 1.4265                 1.4211
 Frc consts  --      1.5200                 2.0073                 2.1477
 IR Inten    --      3.8564               290.2983               508.6040

                    103                    104                    105
                      A                      A                      A
 Frequencies --   1667.6356              1709.4210              3032.9691
 Red. masses --      6.3995                 7.2383                 1.0668
 Frc consts  --     10.4857                12.4620                 5.7820
 IR Inten    --     11.5138                88.5324                40.6333

                    106                    107                    108
                      A                      A                      A
 Frequencies --   3036.9584              3040.4509              3041.9639
 Red. masses --      1.0681                 1.0641                 1.0669
 Frc consts  --      5.8041                 5.7957                 5.8169
 IR Inten    --     35.0313                45.2463                 7.4594

                    109                    110                    111
                      A                      A                      A
 Frequencies --   3043.9480              3054.1979              3061.3244
 Red. masses --      1.0609                 1.0721                 1.0738
 Frc consts  --      5.7914                 5.8923                 5.9293
 IR Inten    --    105.8991                57.7678                72.2904

                    112                    113                    114
                      A                      A                      A
 Frequencies --   3065.9952              3070.9284              3078.2537
 Red. masses --      1.0716                 1.0705                 1.0621
 Frc consts  --      5.9350                 5.9483                 5.9297
 IR Inten    --     10.0641                32.2318                38.1681

                    115                    116                    117
                      A                      A                      A
 Frequencies --   3085.2640              3087.5117              3090.4707
 Red. masses --      1.0964                 1.0965                 1.0965
 Frc consts  --      6.1489                 6.1585                 6.1704
 IR Inten    --    112.0665               130.7426                45.0101

                    118                    119                    120
                      A                      A                      A
 Frequencies --   3091.6365              3093.4430              3115.9544
 Red. masses --      1.0975                 1.1026                 1.1040
 Frc consts  --      6.1808                 6.2164                 6.3153
 IR Inten    --     74.0398                92.7429                58.6107

                    121                    122                    123
                      A                      A                      A
 Frequencies --   3122.1498              3123.9307              3168.5355
 Red. masses --      1.0860                 1.1050                 1.0918
 Frc consts  --      6.2374                 6.3538                 6.4583
 IR Inten    --     35.7826                65.3870                36.2623

                    124                    125                    126
                      A                      A                      A
 Frequencies --   3187.8181              3300.2698              3319.2118
 Red. masses --      1.0928                 1.0547                 1.1009
 Frc consts  --      6.5431                 6.7681                 7.1461
 IR Inten    --      9.1993               489.0758                 6.5036

                    127                    128                    129
                      A                      A                      A
 Frequencies --   3330.1815              3332.9666              3596.7194
 Red. masses --      1.0919                 1.1014                 1.0758
 Frc consts  --      7.1348                 7.2089                 8.1997
 IR Inten    --    322.7722                10.4660                92.9694

 - Thermochemistry -
 -------------------
 Temperature   298.150 Kelvin.  Pressure   1.00000 Atm.
 Atom     1 has atomic number 16 and mass  31.97207

 Molecular mass:   293.17999 amu.
 Principal axes and moments of inertia in atomic units:
                           1         2         3
     Eigenvalues --  2953.87606********************
           X            0.99994  -0.01099   0.00067
           Y            0.01097   0.99962   0.02546
           Z           -0.00095  -0.02545   0.99968
 This molecule is an asymmetric top.
 Rotational symmetry number  1.
 Warning -- assumption of classical behavior for rotation
           may cause significant error
 Rotational temperatures (Kelvin)      0.02932     0.00606     0.00554
 Rotational constants (GHZ):           0.61097     0.12617     0.11547
 Zero-point vibrational energy    1053913.3 (Joules/Mol)
                                  251.89132 (Kcal/Mol)
 Warning -- explicit consideration of  29 degrees of freedom as
           vibrations may cause significant error
 Vibrational temperatures:     28.44    34.37    59.04    64.36    77.53
          (Kelvin)            116.13   147.90   161.79   225.67   294.30
                              327.18   333.98   370.86   388.50   470.40
                              483.61   515.50   529.61   593.71   616.03
                              629.94   643.90   654.59   670.30   699.02
                              714.60   742.22   820.46   847.27   912.47
                              992.62  1008.46  1063.28  1094.33  1124.44
                             1154.51  1161.15  1188.43  1191.91  1232.44
                             1242.11  1276.63  1303.57  1316.13  1328.79
                             1347.06  1350.91  1365.27  1394.74  1431.35
                             1439.06  1451.22  1468.84  1476.18  1496.49
                             1534.36  1571.18  1577.97  1596.11  1607.35
                             1616.97  1693.86  1707.81  1721.50  1725.63
                             1734.72  1743.61  1764.97  1830.36  1842.39
                             1851.37  1854.08  1859.50  1868.35  1874.43
                             1921.63  1926.46  1938.20  1943.84  1953.53
                             1975.61  1987.16  1993.50  1994.37  2001.43
                             2006.93  2016.75  2025.12  2026.75  2034.62
                             2101.72  2160.50  2163.46  2165.60  2169.82
                             2171.88  2173.80  2180.86  2194.53  2199.29
                             2223.53  2304.36  2399.36  2459.48  4363.77
                             4369.51  4374.53  4376.71  4379.56  4394.31
                             4404.56  4411.28  4418.38  4428.92  4439.01
                             4442.24  4446.50  4448.18  4450.77  4483.16
                             4492.08  4494.64  4558.82  4586.56  4748.35
                             4775.61  4791.39  4795.40  5174.88

 Zero-point correction=                           0.401414 (Hartree/Particle)
 Thermal correction to Energy=                    0.420229
 Thermal correction to Enthalpy=                  0.421173
 Thermal correction to Gibbs Free Energy=         0.351732
 Sum of electronic and zero-point Energies=          -1203.303382
 Sum of electronic and thermal Energies=             -1203.284568
 Sum of electronic and thermal Enthalpies=           -1203.283624
 Sum of electronic and thermal Free Energies=        -1203.353065

                     E (Thermal)             CV                S
                      KCal/Mol        Cal/Mol-Kelvin    Cal/Mol-Kelvin
 Total                  263.697             74.132            146.151
 Electronic               0.000              0.000              0.000
 Translational            0.889              2.981             42.924
 Rotational               0.889              2.981             34.845
 Vibrational            261.920             68.171             68.382
 Vibration     1          0.593              1.986              6.658
 Vibration     2          0.593              1.985              6.282
 Vibration     3          0.594              1.981              5.209
 Vibration     4          0.595              1.980              5.038
 Vibration     5          0.596              1.976              4.669
 Vibration     6          0.600              1.962              3.873
 Vibration     7          0.605              1.947              3.401
 Vibration     8          0.607              1.939              3.226
 Vibration     9          0.621              1.895              2.587
 Vibration    10          0.640              1.833              2.092
 Vibration    11          0.651              1.799              1.899
 Vibration    12          0.653              1.792              1.862
 Vibration    13          0.667              1.750              1.677
 Vibration    14          0.674              1.728              1.596
 Vibration    15          0.711              1.622              1.275
 Vibration    16          0.717              1.603              1.230
 Vibration    17          0.733              1.558              1.130
 Vibration    18          0.741              1.538              1.088
 Vibration    19          0.776              1.443              0.917
 Vibration    20          0.790              1.409              0.865
 Vibration    21          0.798              1.388              0.833
 Vibration    22          0.807              1.366              0.803
 Vibration    23          0.813              1.350              0.781
 Vibration    24          0.823              1.326              0.749
 Vibration    25          0.842              1.281              0.694
 Vibration    26          0.852              1.257              0.666
 Vibration    27          0.871              1.215              0.620
 Vibration    28          0.926              1.096              0.504
 Vibration    29          0.946              1.055              0.469

                           ! Non-Optimized Parameters !
 Normal termination of Gaussian 16 at Sun Jul 18 14:32:33 2021.

 ----------------------------------------------------------------------
 #p b3lyp/6-31G(d) scrf=(iefpcm,read,solvent=water) geom=allcheck guess
 =read
 ----------------------------------------------------------------------

 Structure from the checkpoint file:  "SET_328_BBB227_conf1.geo_075_180_060.chk"
 ---------------------------------------------
 SET_328_BBB227_conf1.geo_075_180_060 geometry
 ---------------------------------------------
 Charge =  1 Multiplicity = 1

 SCF Done:  E(RB3LYP) =  -1203.70479676     A.U. after    1 cycles
 Normal termination of Gaussian 16 at Sun Jul 18 14:32:48 2021.

 -----------------------------
 #p B3LYP/6-31G* geom=allcheck
 -----------------------------

 Structure from the checkpoint file:  "SET_328_BBB227_conf1.geo_075_180_060.chk"
 ---------------------------------------------
 SET_328_BBB227_conf1.geo_075_180_060 geometry
 ---------------------------------------------
 Charge =  1 Multiplicity = 1

 SCF Done:  E(RB3LYP) =  -1203.56840666     A.U. after   21 cycles
 Normal termination of Gaussian 16 at Sun Jul 18 14:34:12 2021.
 Gaussian 16:  ES64L-G16RevB.01 20-Dec-2017

 --------------------------------------------------------
 #p mp2/aug-cc-pVDZ scf=tight maxdisk=180GB geom=allcheck
 --------------------------------------------------------

 Structure from the checkpoint file:  "SET_328_BBB227_conf1.geo_075_180_060.chk"
 ---------------------------------------------
 SET_328_BBB227_conf1.geo_075_180_060 geometry
 ---------------------------------------------
 Charge =  1 Multiplicity = 1

                         Standard orientation:
 ---------------------------------------------------------------------
 Center     Atomic      Atomic             Coordinates (Angstroms)
 Number     Number       Type             X           Y           Z
 ---------------------------------------------------------------------
      1         16           0        1.520866    2.168287   -1.432392
      2          6           0        0.980641    1.159338   -0.141409
      3          7           0        1.711181    0.102171    0.269368
      4          6           0        3.074824   -0.242731   -0.143359
      5          6           0        4.104944    0.221798    0.899848
      6          6           0        5.529388   -0.184639    0.496892
      7          6           0        5.633437   -1.694559    0.247470
      8          6           0        4.602777   -2.158121   -0.789749
      9          6           0        3.175037   -1.754706   -0.392923
     10          1           0        2.887078   -2.290856    0.522448
     11          1           0        2.461708   -2.045320   -1.171742
     12          1           0        4.655043   -3.244307   -0.921420
     13          1           0        4.845172   -1.713122   -1.763826
     14          1           0        5.463210   -2.229930    1.191307
     15          1           0        6.644894   -1.955122   -0.083812
     16          1           0        6.236776    0.124825    1.274038
     17          1           0        5.813607    0.353455   -0.417313
     18          1           0        3.854164   -0.226808    1.870337
     19          1           0        4.032406    1.307984    1.020832
     20          1           0        3.254111    0.289822   -1.079305
     21          1           0        1.312247   -0.525245    0.957032
     22          7           0       -0.188445    1.403367    0.512714
     23          6           0       -0.671223    0.660924    1.684671
     24          6           0       -1.825396   -0.273614    1.308803
     25          1           0       -1.465383   -1.037494    0.612043
     26          1           0       -2.184680   -0.787049    2.205819
     27          1           0        0.139943    0.123525    2.171841
     28          1           0       -1.020568    1.407355    2.408018
     29          6           0       -1.239073    2.265249   -0.039454
     30          1           0       -0.819520    2.821091   -0.873361
     31          1           0       -1.538507    2.975874    0.740872
     32          6           0       -2.440977    1.421838   -0.486929
     33          1           0       -2.138295    0.790541   -1.330230
     34          1           0       -3.233669    2.087030   -0.843422
     35          6           0       -2.977520    0.533583    0.662668
     36          1           0       -3.407808    1.186363    1.430920
     37          6           0       -4.068798   -0.368813    0.182273
     38          6           0       -5.348921   -0.439402    0.573110
     39          1           0       -5.929126    0.099335    1.303639
     40          7           0       -5.986651   -1.486956   -0.220924
     41          1           0       -6.784185   -1.135761   -0.790963
     42          6           0       -4.881043   -1.958124   -1.075138
     43          1           0       -5.065842   -2.751666   -1.782530
     44          7           0       -3.802143   -1.330762   -0.848690
     45          1           0       -6.372812   -2.259979    0.359134
 ---------------------------------------------------------------------

 SCF Done:  E(RHF) =  -1197.74734689     A.U. after   15 cycles
 E2 =    -0.2969764064D+01 EUMP2 =    -0.12007171109527D+04

 The electronic state is 1-A.
 Alpha  occ. eigenvalues --  -91.94732 -15.91705 -15.79394 -15.68937 -15.67513
 Alpha  occ. eigenvalues --  -11.53994 -11.48195 -11.47088 -11.45045 -11.39391
 Alpha  occ. eigenvalues --  -11.38567 -11.36484 -11.36157 -11.35312 -11.33206
 Alpha  occ. eigenvalues --  -11.29447 -11.28484 -11.28464 -11.27955 -11.27881
 Alpha  occ. eigenvalues --   -8.94967  -6.63212  -6.62901  -6.62850  -1.57871
 Alpha  occ. eigenvalues --   -1.42828  -1.40021  -1.31630  -1.26486  -1.19985
 Alpha  occ. eigenvalues --   -1.17160  -1.14478  -1.09349  -1.06739  -1.05703
 Alpha  occ. eigenvalues --   -1.04692  -1.01993  -0.98290  -0.97767  -0.97181
 Alpha  occ. eigenvalues --   -0.95164  -0.91395  -0.89885  -0.89291  -0.84818
 Alpha  occ. eigenvalues --   -0.84330  -0.82408  -0.80927  -0.80568  -0.76235
 Alpha  occ. eigenvalues --   -0.74911  -0.73772  -0.72176  -0.71290  -0.70330
 Alpha  occ. eigenvalues --   -0.68654  -0.67727  -0.66808  -0.66424  -0.66133
 Alpha  occ. eigenvalues --   -0.65596  -0.64541  -0.62651  -0.61557  -0.61115
 Alpha  occ. eigenvalues --   -0.59617  -0.59334  -0.58837  -0.56543  -0.55525
 Alpha  occ. eigenvalues --   -0.54846  -0.54558  -0.53970  -0.51701  -0.50675
 Alpha  occ. eigenvalues --   -0.49813  -0.45038  -0.37711  -0.37578
 Alpha virt. eigenvalues --   -0.11200  -0.09854  -0.07873  -0.07337  -0.06098
 Alpha virt. eigenvalues --   -0.04880  -0.04172  -0.03871  -0.03095  -0.02454
 Alpha virt. eigenvalues --   -0.01713  -0.01513  -0.01146  -0.00593  -0.00291

 Mulliken charges:
               1
     1  S   -0.279055
     2  C   -0.064583
     3  N   -0.136438
     4  C   -1.031783
     5  C    0.606665
     6  C    0.374799
     7  C    0.431190
     8  C    0.421005
     9  C    0.821675
    10  H   -0.232093
    11  H   -0.220756
    12  H   -0.103418
    13  H   -0.101252
    14  H   -0.115747
    15  H   -0.135076
    16  H   -0.111332
    17  H   -0.098847
    18  H   -0.124738
    19  H   -0.147750
    20  H   -0.400653
    21  H   -0.104336
    22  N   -0.154722
    23  C    0.933211
    24  C    0.597834
    25  H   -0.097527
    26  H   -0.231128
    27  H   -0.249612
    28  H   -0.247112
    29  C    0.746430
    30  H   -0.149604
    31  H   -0.174127
    32  C    0.627279
    33  H   -0.054248
    34  H   -0.248152
    35  C    0.055933
    36  H   -0.299117
    37  C    0.215172
    38  C    0.995718
    39  H   -0.299226
    40  N   -0.803733
    41  H    0.249472
    42  C    0.877459
    43  H   -0.194379
    44  N   -0.592079
    45  H    0.248782
 Sum of Mulliken charges =   1.00000

 Dipole moment (field-independent basis, Debye):
    X=            -26.8655    Y=             -9.1571    Z=              3.5575  Tot=             28.6053
 Quadrupole moment (field-independent basis, Debye-Ang):
   XX=             44.7440   YY=           -118.8921   ZZ=           -125.0714
   XY=             28.9847   XZ=              8.6258   YZ=              9.8739

 Normal termination of Gaussian 16 at Sun Jul 18 15:45:19 2021.
