 Gaussian 16, Revision B.01,

 -----------------------------------------------------------
 #p b3lyp/6-31G(d) opt freq scrf=(iefpcm,read,solvent=water)
 -----------------------------------------------------------

 ---------------------------------------------
 SET_328_BBB301_conf1.geo_165_105_045 geometry
 ---------------------------------------------
 Symbolic Z-matrix:
 Charge =  1 Multiplicity = 1

 SCF Done:  E(RB3LYP) =  -788.872619017     A.U. after   12 cycles
 SCF Done:  E(RB3LYP) =  -788.905916480     A.U. after   11 cycles
 SCF Done:  E(RB3LYP) =  -788.919919589     A.U. after   11 cycles
 SCF Done:  E(RB3LYP) =  -788.923429618     A.U. after   11 cycles
 SCF Done:  E(RB3LYP) =  -788.925969622     A.U. after   10 cycles
 SCF Done:  E(RB3LYP) =  -788.927781542     A.U. after   10 cycles
 SCF Done:  E(RB3LYP) =  -788.928046586     A.U. after   10 cycles
 SCF Done:  E(RB3LYP) =  -788.928474170     A.U. after    9 cycles
 SCF Done:  E(RB3LYP) =  -788.928851904     A.U. after   10 cycles
 SCF Done:  E(RB3LYP) =  -788.928835717     A.U. after    9 cycles
 SCF Done:  E(RB3LYP) =  -788.932255887     A.U. after    6 cycles
 SCF Done:  E(RB3LYP) =  -788.932255603     A.U. after    6 cycles
 SCF Done:  E(RB3LYP) =  -788.932255452     A.U. after    6 cycles
 SCF Done:  E(RB3LYP) =  -788.932254369     A.U. after    6 cycles
 SCF Done:  E(RB3LYP) =  -788.932254305     A.U. after    7 cycles
 SCF Done:  E(RB3LYP) =  -788.932254388     A.U. after    6 cycles
 Optimization completed.
    -- Stationary point found.
 Normal termination of Gaussian 16 at Sun Jul 18 15:31:27 2021.

 --------------------------------------------------------------------
 #P Geom=AllCheck Guess=TCheck SCRF=Check GenChk RB3LYP/6-31G(d) Freq
 --------------------------------------------------------------------

 Structure from the checkpoint file:  "SET_328_BBB301_conf1.geo_165_105_045.chk"
 ---------------------------------------------
 SET_328_BBB301_conf1.geo_165_105_045 geometry
 ---------------------------------------------
 Charge =  1 Multiplicity = 1

 SCF Done:  E(RB3LYP) =  -788.932254388     A.U. after    1 cycles

  Exact polarizability: 245.945 -17.340 195.043 -19.743 -29.031 164.075
 Approx polarizability: 257.452 -18.150 215.313 -26.251 -34.850 182.631

                      1                      2                      3
                      A                      A                      A
 Frequencies --     25.5329                42.3912                56.3176
 Red. masses --      4.6233                 4.3842                 3.0804
 Frc consts  --      0.0018                 0.0046                 0.0058
 IR Inten    --      0.9883                 1.2272                 0.3843

                      4                      5                      6
                      A                      A                      A
 Frequencies --     72.8409                95.9903               126.1056
 Red. masses --      3.1277                 3.5595                 3.0707
 Frc consts  --      0.0098                 0.0193                 0.0288
 IR Inten    --      2.3420                 5.6348                 5.9563

                      7                      8                      9
                      A                      A                      A
 Frequencies --    147.8908               176.6732               187.9607
 Red. masses --      3.6571                 3.5223                 2.7228
 Frc consts  --      0.0471                 0.0648                 0.0567
 IR Inten    --      6.9424                 8.7961                 2.7527

                     10                     11                     12
                      A                      A                      A
 Frequencies --    209.8505               236.9241               253.8236
 Red. masses --      3.6710                 1.0989                 2.1768
 Frc consts  --      0.0952                 0.0363                 0.0826
 IR Inten    --      5.5376                 2.3416                 3.6240

                     13                     14                     15
                      A                      A                      A
 Frequencies --    265.9457               281.2493               284.4167
 Red. masses --      1.8891                 1.2906                 1.0905
 Frc consts  --      0.0787                 0.0602                 0.0520
 IR Inten    --     50.0065                 1.4179                 1.5298

                     16                     17                     18
                      A                      A                      A
 Frequencies --    301.5326               318.8271               338.7824
 Red. masses --      2.1863                 2.7392                 2.2231
 Frc consts  --      0.1171                 0.1641                 0.1503
 IR Inten    --    108.5381               109.5218                 4.3266

                     19                     20                     21
                      A                      A                      A
 Frequencies --    351.6319               359.6326               402.9773
 Red. masses --      2.6802                 1.7721                 2.5549
 Frc consts  --      0.1952                 0.1350                 0.2445
 IR Inten    --      5.6452                50.8571                21.8142

                     22                     23                     24
                      A                      A                      A
 Frequencies --    412.2134               433.8764               435.0929
 Red. masses --      2.9077                 3.0686                 2.4563
 Frc consts  --      0.2911                 0.3404                 0.2740
 IR Inten    --     21.6639                41.6355                15.0516

                     25                     26                     27
                      A                      A                      A
 Frequencies --    455.0059               469.1709               486.5332
 Red. masses --      2.5420                 3.4322                 3.1601
 Frc consts  --      0.3101                 0.4451                 0.4407
 IR Inten    --     11.8208                30.7203                11.4528

                     28                     29                     30
                      A                      A                      A
 Frequencies --    526.4469               597.8764               615.4985
 Red. masses --      2.8422                 3.2676                 5.7747
 Frc consts  --      0.4641                 0.6882                 1.2889
 IR Inten    --      9.0275                11.2610                16.0438

                     31                     32                     33
                      A                      A                      A
 Frequencies --    659.7799               692.5399               734.4936
 Red. masses --      3.9327                 1.1322                 4.2925
 Frc consts  --      1.0086                 0.3199                 1.3644
 IR Inten    --     61.4473               180.0243                 7.5980

                     34                     35                     36
                      A                      A                      A
 Frequencies --    742.9197               773.4279               809.5291
 Red. masses --      4.4408                 4.5885                 3.2633
 Frc consts  --      1.4441                 1.6172                 1.2600
 IR Inten    --      7.7372                13.0344                 8.7559

                     37                     38                     39
                      A                      A                      A
 Frequencies --    833.9223               849.1632               876.6438
 Red. masses --      1.4116                 1.4508                 2.8491
 Frc consts  --      0.5784                 0.6164                 1.2901
 IR Inten    --     15.4253                28.2057                 7.5882

                     40                     41                     42
                      A                      A                      A
 Frequencies --    914.8353               925.2145               950.9337
 Red. masses --      1.4510                 2.7305                 1.8048
 Frc consts  --      0.7155                 1.3772                 0.9616
 IR Inten    --     36.5100                19.1329                 3.0408

                     43                     44                     45
                      A                      A                      A
 Frequencies --    952.7135               957.7474               967.0021
 Red. masses --      1.6177                 1.9666                 1.2962
 Frc consts  --      0.8651                 1.0629                 0.7141
 IR Inten    --      0.7661                 7.6586                 0.6850

                     46                     47                     48
                      A                      A                      A
 Frequencies --    996.3580              1016.9842              1018.8973
 Red. masses --      1.2202                 2.5920                 2.2550
 Frc consts  --      0.7137                 1.5795                 1.3793
 IR Inten    --      0.3971                22.9710                13.5340

                     49                     50                     51
                      A                      A                      A
 Frequencies --   1037.2720              1043.5447              1076.0411
 Red. masses --      2.4070                 3.4694                 1.8095
 Frc consts  --      1.5259                 2.2260                 1.2344
 IR Inten    --     90.6925                39.2884                90.0826

                     52                     53                     54
                      A                      A                      A
 Frequencies --   1089.2024              1118.8100              1134.6119
 Red. masses --      1.5847                 2.1054                 1.7227
 Frc consts  --      1.1076                 1.5527                 1.3066
 IR Inten    --     20.6034                12.1116                63.6706

                     55                     56                     57
                      A                      A                      A
 Frequencies --   1167.6581              1190.3816              1224.4547
 Red. masses --      1.4920                 1.2069                 1.5477
 Frc consts  --      1.1985                 1.0076                 1.3672
 IR Inten    --     48.4374                18.4085                 7.2882

                     58                     59                     60
                      A                      A                      A
 Frequencies --   1231.6474              1246.4875              1262.6916
 Red. masses --      2.1104                 1.2060                 1.3074
 Frc consts  --      1.8862                 1.1040                 1.2281
 IR Inten    --    105.6444                42.7076               108.8825

                     61                     62                     63
                      A                      A                      A
 Frequencies --   1267.1723              1283.5602              1293.6842
 Red. masses --      1.8964                 1.9305                 1.9713
 Frc consts  --      1.7941                 1.8739                 1.9438
 IR Inten    --     27.4080               160.5000                40.0647

                     64                     65                     66
                      A                      A                      A
 Frequencies --   1302.0013              1314.6581              1335.7277
 Red. masses --      2.3547                 1.9350                 1.4298
 Frc consts  --      2.3519                 1.9704                 1.5030
 IR Inten    --    104.8995                48.7896                55.1447

                     67                     68                     69
                      A                      A                      A
 Frequencies --   1354.9164              1383.3132              1423.4319
 Red. masses --      1.9844                 1.6661                 1.4386
 Frc consts  --      2.1463                 1.8784                 1.7174
 IR Inten    --     36.3409                45.6806                77.4043

                     70                     71                     72
                      A                      A                      A
 Frequencies --   1432.5337              1436.9800              1442.9610
 Red. masses --      1.7943                 1.2668                 1.2644
 Frc consts  --      2.1695                 1.5412                 1.5511
 IR Inten    --     69.1332                19.0380                63.4904

                     73                     74                     75
                      A                      A                      A
 Frequencies --   1445.4644              1448.3975              1460.0617
 Red. masses --      1.2069                 1.4917                 1.2366
 Frc consts  --      1.4857                 1.8438                 1.5532
 IR Inten    --     30.4941                19.0231                37.6062

                     76                     77                     78
                      A                      A                      A
 Frequencies --   1483.1412              1503.7739              1506.7549
 Red. masses --      1.2163                 1.0448                 1.0595
 Frc consts  --      1.5763                 1.3920                 1.4172
 IR Inten    --     77.1082                 0.6907                 2.9596

                     79                     80                     81
                      A                      A                      A
 Frequencies --   1510.1849              1511.0791              1514.2653
 Red. masses --      1.1335                 1.8366                 1.0726
 Frc consts  --      1.5231                 2.4708                 1.4491
 IR Inten    --     10.0844                41.1478                 9.4278

                     82                     83                     84
                      A                      A                      A
 Frequencies --   1530.6017              1531.9190              1536.2984
 Red. masses --      1.0686                 1.1650                 1.0626
 Frc consts  --      1.4750                 1.6109                 1.4776
 IR Inten    --      2.5458                 7.9406                20.7097

                     85                     86                     87
                      A                      A                      A
 Frequencies --   1541.4086              1541.6245              1625.0220
 Red. masses --      1.2754                 2.0291                 1.0695
 Frc consts  --      1.7853                 2.8412                 1.6640
 IR Inten    --     58.7294               128.6637               112.1116

                     88                     89                     90
                      A                      A                      A
 Frequencies --   1648.6824              1681.1153              3033.9525
 Red. masses --      4.9730                 5.6019                 1.0631
 Frc consts  --      7.9642                 9.3278                 5.7658
 IR Inten    --     87.3021                54.6407                62.6481

                     91                     92                     93
                      A                      A                      A
 Frequencies --   3036.7250              3077.3437              3081.0587
 Red. masses --      1.0845                 1.0361                 1.0362
 Frc consts  --      5.8924                 5.7812                 5.7954
 IR Inten    --     86.3986                26.2848                20.9137

                     94                     95                     96
                      A                      A                      A
 Frequencies --   3085.0668              3091.5208              3147.5032
 Red. masses --      1.1013                 1.0361                 1.0818
 Frc consts  --      6.1758                 5.8342                 6.3145
 IR Inten    --     64.2070                 7.6885                 5.8427

                     97                     98                     99
                      A                      A                      A
 Frequencies --   3149.0445              3151.5190              3157.7367
 Red. masses --      1.1020                 1.0854                 1.0990
 Frc consts  --      6.4384                 6.3515                 6.4567
 IR Inten    --     32.2479                24.1134                16.4386

                    100                    101                    102
                      A                      A                      A
 Frequencies --   3160.8152              3164.4071              3165.8357
 Red. masses --      1.1025                 1.1018                 1.1014
 Frc consts  --      6.4896                 6.5005                 6.5041
 IR Inten    --     11.1667                49.8933                52.6896

                    103                    104                    105
                      A                      A                      A
 Frequencies --   3185.1354              3216.6719              3218.6124
 Red. masses --      1.0898                 1.1085                 1.0879
 Frc consts  --      6.5143                 6.7579                 6.6400
 IR Inten    --     25.5427                10.5415                10.9450

                    106                    107                    108
                      A                      A                      A
 Frequencies --   3232.9604              3353.3776              3400.5946
 Red. masses --      1.0941                 1.0559                 1.0940
 Frc consts  --      6.7376                 6.9961                 7.4537
 IR Inten    --     20.6306               122.0223               173.2122

                    109                    110                    111
                      A                      A                      A
 Frequencies --   3422.1840              3700.3175              3719.3060
 Red. masses --      1.0663                 1.0664                 1.0666
 Frc consts  --      7.3574                 8.6033                 8.6928
 IR Inten    --    782.8036               123.8173               119.0762

 - Thermochemistry -
 -------------------
 Temperature   298.150 Kelvin.  Pressure   1.00000 Atm.
 Atom     1 has atomic number  6 and mass  12.00000

 Molecular mass:   240.15997 amu.
 Principal axes and moments of inertia in atomic units:
                           1         2         3
     Eigenvalues --  1844.74128********************
           X            0.99997   0.00162   0.00733
           Y           -0.00141   0.99956  -0.02955
           Z           -0.00737   0.02954   0.99954
 This molecule is an asymmetric top.
 Rotational symmetry number  1.
 Warning -- assumption of classical behavior for rotation
           may cause significant error
 Rotational temperatures (Kelvin)      0.04695     0.00840     0.00792
 Rotational constants (GHZ):           0.97832     0.17502     0.16513
 Zero-point vibrational energy     907411.4 (Joules/Mol)
                                  216.87654 (Kcal/Mol)
 Warning -- explicit consideration of  30 degrees of freedom as
           vibrations may cause significant error
 Vibrational temperatures:     36.74    60.99    81.03   104.80   138.11
          (Kelvin)            181.44   212.78   254.19   270.43   301.93
                              340.88   365.20   382.64   404.65   409.21
                              433.84   458.72   487.43   505.92   517.43
                              579.79   593.08   624.25   626.00   654.65
                              675.03   700.01   757.44   860.21   885.57
                              949.28   996.41  1056.77  1068.90  1112.79
                             1164.73  1199.83  1221.76  1261.29  1316.24
                             1331.18  1368.18  1370.74  1377.98  1391.30
                             1433.54  1463.21  1465.97  1492.40  1501.43
                             1548.18  1567.12  1609.72  1632.45  1680.00
                             1712.69  1761.72  1772.07  1793.42  1816.73
                             1823.18  1846.76  1861.32  1873.29  1891.50
                             1921.81  1949.42  1990.28  2048.00  2061.10
                             2067.49  2076.10  2079.70  2083.92  2100.70
                             2133.91  2163.60  2167.88  2172.82  2174.11
                             2178.69  2202.19  2204.09  2210.39  2217.74
                             2218.05  2338.04  2372.09  2418.75  4365.18
                             4369.17  4427.61  4432.96  4438.72  4448.01
                             4528.56  4530.77  4534.33  4543.28  4547.71
                             4552.88  4554.93  4582.70  4628.07  4630.87
                             4651.51  4824.76  4892.70  4923.76  5323.93
                             5351.25

 Zero-point correction=                           0.345615 (Hartree/Particle)
 Thermal correction to Energy=                    0.363865
 Thermal correction to Enthalpy=                  0.364809
 Thermal correction to Gibbs Free Energy=         0.299376
 Sum of electronic and zero-point Energies=           -788.586640
 Sum of electronic and thermal Energies=              -788.568389
 Sum of electronic and thermal Enthalpies=            -788.567445
 Sum of electronic and thermal Free Energies=         -788.632879

                     E (Thermal)             CV                S
                      KCal/Mol        Cal/Mol-Kelvin    Cal/Mol-Kelvin
 Total                  228.329             70.457            137.716
 Electronic               0.000              0.000              0.000
 Translational            0.889              2.981             42.330
 Rotational               0.889              2.981             33.697
 Vibrational            226.551             64.495             61.690
 Vibration     1          0.593              1.985              6.149
 Vibration     2          0.595              1.980              5.144
 Vibration     3          0.596              1.975              4.582
 Vibration     4          0.599              1.967              4.075
 Vibration     5          0.603              1.952              3.534
 Vibration     6          0.611              1.927              3.005
 Vibration     7          0.617              1.905              2.699
 Vibration     8          0.628              1.871              2.363
 Vibration     9          0.633              1.856              2.248
 Vibration    10          0.642              1.826              2.045
 Vibration    11          0.656              1.784              1.826
 Vibration    12          0.665              1.756              1.704
 Vibration    13          0.672              1.736              1.622
 Vibration    14          0.681              1.708              1.526
 Vibration    15          0.683              1.703              1.507
 Vibration    16          0.694              1.671              1.408
 Vibration    17          0.705              1.638              1.316
 Vibration    18          0.719              1.598              1.218
 Vibration    19          0.728              1.572              1.159
 Vibration    20          0.734              1.555              1.124
 Vibration    21          0.768              1.464              0.952
 Vibration    22          0.776              1.444              0.919
 Vibration    23          0.795              1.396              0.846
 Vibration    24          0.796              1.394              0.842
 Vibration    25          0.813              1.350              0.781
 Vibration    26          0.826              1.318              0.740
 Vibration    27          0.843              1.280              0.693
 Vibration    28          0.881              1.191              0.595
 Vibration    29          0.956              1.036              0.453
 Vibration    30          0.975              0.999              0.424

                           ! Non-Optimized Parameters !
 Normal termination of Gaussian 16 at Sun Jul 18 15:43:15 2021.

 ----------------------------------------------------------------------
 #p b3lyp/6-31G(d) scrf=(iefpcm,read,solvent=water) geom=allcheck guess
 =read
 ----------------------------------------------------------------------

 Structure from the checkpoint file:  "SET_328_BBB301_conf1.geo_165_105_045.chk"
 ---------------------------------------------
 SET_328_BBB301_conf1.geo_165_105_045 geometry
 ---------------------------------------------
 Charge =  1 Multiplicity = 1

 SCF Done:  E(RB3LYP) =  -788.932254388     A.U. after    1 cycles
 Normal termination of Gaussian 16 at Sun Jul 18 15:43:27 2021.

 -----------------------------
 #p B3LYP/6-31G* geom=allcheck
 -----------------------------

 Structure from the checkpoint file:  "SET_328_BBB301_conf1.geo_165_105_045.chk"
 ---------------------------------------------
 SET_328_BBB301_conf1.geo_165_105_045 geometry
 ---------------------------------------------
 Charge =  1 Multiplicity = 1

 SCF Done:  E(RB3LYP) =  -788.826564194     A.U. after   13 cycles
 Normal termination of Gaussian 16 at Sun Jul 18 15:44:08 2021.
 Gaussian 16:  ES64L-G16RevB.01 20-Dec-2017

 --------------------------------------------------------
 #p mp2/aug-cc-pVDZ scf=tight maxdisk=180GB geom=allcheck
 --------------------------------------------------------

 Structure from the checkpoint file:  "SET_328_BBB301_conf1.geo_165_105_045.chk"
 ---------------------------------------------
 SET_328_BBB301_conf1.geo_165_105_045 geometry
 ---------------------------------------------
 Charge =  1 Multiplicity = 1

                         Standard orientation:
 ---------------------------------------------------------------------
 Center     Atomic      Atomic             Coordinates (Angstroms)
 Number     Number       Type             X           Y           Z
 ---------------------------------------------------------------------
      1          6           0        4.158407   -0.354307    1.606303
      2          1           0        4.291477   -1.409023    1.349500
      3          1           0        3.262896   -0.254563    2.223101
      4          1           0        5.013065   -0.045567    2.212150
      5          6           0        4.098971    0.523861    0.352774
      6          6           0        3.810836    1.989502    0.692771
      7          1           0        3.747802    2.604262   -0.209925
      8          1           0        4.623057    2.378699    1.310616
      9          1           0        2.882160    2.099565    1.255790
     10          6           0        5.381482    0.384656   -0.473326
     11          1           0        5.566983   -0.657199   -0.748152
     12          1           0        6.231597    0.734419    0.115411
     13          1           0        5.335879    0.981995   -1.388001
     14          7           0        2.968516    0.008747   -0.551656
     15          1           0        2.978750    0.562455   -1.422572
     16          6           0        1.573177    0.015788   -0.003716
     17          1           0        1.291652    1.046666    0.198353
     18          1           0        1.579903   -0.549338    0.927132
     19          6           0        0.618393   -0.633027   -1.005725
     20          8           0        1.133206   -1.944791   -1.211837
     21          1           0        0.626145   -2.355086   -1.936295
     22          1           0        0.648660   -0.056728   -1.939183
     23          6           0       -0.803279   -0.631477   -0.481579
     24          6           0       -1.685136    0.398104   -0.819763
     25          1           0       -1.354255    1.190161   -1.487262
     26          6           0       -2.993410    0.431906   -0.338730
     27          6           0       -3.958074    1.491061   -0.800824
     28          8           0       -4.749901    1.930551    0.317704
     29          1           0       -5.531458    2.391286   -0.035483
     30          1           0       -4.618692    1.086139   -1.578704
     31          1           0       -3.410115    2.332948   -1.237081
     32          6           0       -3.424182   -0.594341    0.527518
     33          8           0       -4.686558   -0.612320    1.035441
     34          1           0       -5.059869    0.289655    0.889697
     35          6           0       -2.550142   -1.633199    0.869043
     36          1           0       -2.904313   -2.416609    1.529622
     37          6           0       -1.254068   -1.651509    0.362693
     38          1           0       -0.581322   -2.464319    0.611248
     39          1           0        3.188555   -0.960670   -0.833479
 ---------------------------------------------------------------------

 SCF Done:  E(RHF) =  -784.037275334     A.U. after   15 cycles
 E2 =    -0.2635734408D+01 EUMP2 =    -0.78667300974178D+03

 The electronic state is 1-A.
 Alpha  occ. eigenvalues --  -20.71696 -20.68427 -20.66735 -15.84339 -11.45774
 Alpha  occ. eigenvalues --  -11.44494 -11.44027 -11.40441 -11.39667 -11.37781
 Alpha  occ. eigenvalues --  -11.37746 -11.37509 -11.35554 -11.34974 -11.34846
 Alpha  occ. eigenvalues --  -11.34421 -11.33115  -1.51833  -1.49084  -1.46644
 Alpha  occ. eigenvalues --   -1.46451  -1.26384  -1.24495  -1.17935  -1.14472
 Alpha  occ. eigenvalues --   -1.11339  -1.10001  -1.09135  -1.02713  -1.00516
 Alpha  occ. eigenvalues --   -0.94999  -0.93625  -0.92416  -0.90283  -0.84949
 Alpha  occ. eigenvalues --   -0.82666  -0.82230  -0.81694  -0.80438  -0.77616
 Alpha  occ. eigenvalues --   -0.76956  -0.75653  -0.74787  -0.72583  -0.71929
 Alpha  occ. eigenvalues --   -0.70862  -0.70533  -0.69853  -0.68998  -0.68798
 Alpha  occ. eigenvalues --   -0.67886  -0.67431  -0.66993  -0.66663  -0.64721
 Alpha  occ. eigenvalues --   -0.64188  -0.63540  -0.63251  -0.62863  -0.58978
 Alpha  occ. eigenvalues --   -0.58762  -0.57263  -0.55392  -0.43998  -0.40798
 Alpha virt. eigenvalues --   -0.07727  -0.05645  -0.05421  -0.04812  -0.03649
 Alpha virt. eigenvalues --   -0.03478  -0.03331  -0.03015  -0.02876  -0.02324
 Alpha virt. eigenvalues --   -0.01529  -0.01143  -0.01064  -0.00611  -0.00224

 Mulliken charges:
               1
     1  C    1.307777
     2  H   -0.005492
     3  H   -0.018740
     4  H   -0.020488
     5  C   -3.403614
     6  C    1.301233
     7  H   -0.023012
     8  H    0.013896
     9  H   -0.034997
    10  C    1.307948
    11  H   -0.002686
    12  H    0.033544
    13  H   -0.016719
    14  N   -0.777623
    15  H    0.234002
    16  C    0.722303
    17  H   -0.251120
    18  H   -0.215078
    19  C    1.617812
    20  O   -0.901185
    21  H    0.203335
    22  H   -0.289739
    23  C    0.656492
    24  C    0.412317
    25  H   -0.766854
    26  C   -0.249896
    27  C    1.173356
    28  O   -0.804652
    29  H    0.218154
    30  H    0.028613
    31  H   -0.201374
    32  C    0.470843
    33  O   -0.970709
    34  H    0.266644
    35  C    0.360538
    36  H   -0.520725
    37  C    0.612384
    38  H   -0.755234
    39  H    0.288746
 Sum of Mulliken charges =   1.00000

 Dipole moment (field-independent basis, Debye):
    X=             10.2299    Y=              3.0215    Z=             -3.8610  Tot=             11.3441
 Quadrupole moment (field-independent basis, Debye-Ang):
   XX=            -30.1469   YY=            -91.5866   ZZ=            -93.6849
   XY=             -7.3166   XZ=              9.0320   YZ=             -2.7018

 Normal termination of Gaussian 16 at Sun Jul 18 16:31:11 2021.
