 Gaussian 16, Revision B.01,

 -----------------------------------------------------------
 #p b3lyp/6-31G(d) opt freq scrf=(iefpcm,read,solvent=water)
 -----------------------------------------------------------

 ---------------------------------------------
 SET_328_BBB272_conf1.geo_015_090_180 geometry
 ---------------------------------------------
 Symbolic Z-matrix:
 Charge = -1 Multiplicity = 1

 SCF Done:  E(RB3LYP) =  -648.204836499     A.U. after   13 cycles
 SCF Done:  E(RB3LYP) =  -648.231650191     A.U. after   12 cycles
 SCF Done:  E(RB3LYP) =  -648.215709448     A.U. after   14 cycles
 SCF Done:  E(RB3LYP) =  -648.237979694     A.U. after   12 cycles
 SCF Done:  E(RB3LYP) =  -648.239502296     A.U. after   11 cycles
 SCF Done:  E(RB3LYP) =  -648.239607726     A.U. after   11 cycles
 SCF Done:  E(RB3LYP) =  -648.239551113     A.U. after   11 cycles
 SCF Done:  E(RB3LYP) =  -648.239651191     A.U. after   10 cycles
 SCF Done:  E(RB3LYP) =  -648.239637242     A.U. after   10 cycles
 SCF Done:  E(RB3LYP) =  -648.239559891     A.U. after   11 cycles
 SCF Done:  E(RB3LYP) =  -648.239656921     A.U. after    8 cycles
 SCF Done:  E(RB3LYP) =  -648.239606595     A.U. after   11 cycles
 SCF Done:  E(RB3LYP) =  -648.239654558     A.U. after   11 cycles
 SCF Done:  E(RB3LYP) =  -648.239651293     A.U. after    9 cycles
 SCF Done:  E(RB3LYP) =  -648.239654343     A.U. after    9 cycles
 SCF Done:  E(RB3LYP) =  -648.239654547     A.U. after    7 cycles
 Optimization completed.
    -- Stationary point found.
 Normal termination of Gaussian 16 at Sun Jul 18 13:54:18 2021.

 --------------------------------------------------------------------
 #P Geom=AllCheck Guess=TCheck SCRF=Check GenChk RB3LYP/6-31G(d) Freq
 --------------------------------------------------------------------

 Structure from the checkpoint file:  "SET_328_BBB272_conf1.geo_015_090_180.chk"
 ---------------------------------------------
 SET_328_BBB272_conf1.geo_015_090_180 geometry
 ---------------------------------------------
 Charge = -1 Multiplicity = 1

 SCF Done:  E(RB3LYP) =  -648.239654547     A.U. after    1 cycles

  Exact polarizability: 174.234  -4.686 154.565  11.004   5.195  75.376
 Approx polarizability: 194.868  -0.536 178.635  14.884   5.768  96.113

                      1                      2                      3
                      A                      A                      A
 Frequencies --     17.0907                71.1804                88.8292
 Red. masses --     13.4073                 4.4129                 1.8639
 Frc consts  --      0.0023                 0.0132                 0.0087
 IR Inten    --      0.5319                19.4576                 5.3422

                      4                      5                      6
                      A                      A                      A
 Frequencies --    103.2163               122.8849               151.7988
 Red. masses --      2.5321                 2.6455                 6.1824
 Frc consts  --      0.0159                 0.0235                 0.0839
 IR Inten    --      3.3794                 1.1218                 2.0520

                      7                      8                      9
                      A                      A                      A
 Frequencies --    231.6563               274.4395               312.8756
 Red. masses --      8.0435                 6.5806                 4.1164
 Frc consts  --      0.2543                 0.2920                 0.2374
 IR Inten    --      4.3351                 1.9003                 5.5282

                     10                     11                     12
                      A                      A                      A
 Frequencies --    366.7573               412.3443               452.0146
 Red. masses --      7.1744                 5.8316                 4.2891
 Frc consts  --      0.5686                 0.5842                 0.5163
 IR Inten    --      3.8586                12.3905                 3.1485

                     13                     14                     15
                      A                      A                      A
 Frequencies --    524.9991               542.6870               556.4263
 Red. masses --      4.4095                 4.5343                 4.7738
 Frc consts  --      0.7161                 0.7868                 0.8708
 IR Inten    --     12.1976                 8.6916                 7.3882

                     16                     17                     18
                      A                      A                      A
 Frequencies --    586.4421               660.3881               677.0704
 Red. masses --      3.7587                 6.0264                 5.8817
 Frc consts  --      0.7616                 1.5485                 1.5886
 IR Inten    --     28.5774                 8.8122                26.2925

                     19                     20                     21
                      A                      A                      A
 Frequencies --    709.5367               770.8648               810.4455
 Red. masses --      4.0094                 1.8550                 4.8035
 Frc consts  --      1.1893                 0.6495                 1.8589
 IR Inten    --     38.6770                48.8533                21.4421

                     22                     23                     24
                      A                      A                      A
 Frequencies --    812.8915               848.8988               897.7336
 Red. masses --      3.7788                 4.4829                 1.6202
 Frc consts  --      1.4712                 1.9033                 0.7693
 IR Inten    --     39.4609                48.5942                 3.6784

                     25                     26                     27
                      A                      A                      A
 Frequencies --    938.6313               972.4405              1001.0325
 Red. masses --      4.9120                 1.4018                 1.2726
 Frc consts  --      2.5498                 0.7810                 0.7513
 IR Inten    --     34.2705                 8.0173                 0.9256

                     28                     29                     30
                      A                      A                      A
 Frequencies --   1031.8785              1064.1443              1066.8540
 Red. masses --      1.7813                 1.7281                 2.2289
 Frc consts  --      1.1175                 1.1529                 1.4947
 IR Inten    --     69.3935                27.5660                11.6888

                     31                     32                     33
                      A                      A                      A
 Frequencies --   1109.5586              1165.3064              1184.7607
 Red. masses --      2.9993                 1.7665                 1.1650
 Frc consts  --      2.1756                 1.4133                 0.9635
 IR Inten    --     84.7667                 6.8503                 7.4723

                     34                     35                     36
                      A                      A                      A
 Frequencies --   1216.7902              1250.4455              1289.4080
 Red. masses --      3.8236                 3.4161                 1.5657
 Frc consts  --      3.3355                 3.1471                 1.5337
 IR Inten    --    411.6559               431.0457                 4.7621

                     37                     38                     39
                      A                      A                      A
 Frequencies --   1350.2416              1387.3213              1414.8121
 Red. masses --      9.5071                11.7592                 1.3371
 Frc consts  --     10.2122                13.3346                 1.5769
 IR Inten    --      0.7924               671.0084                98.9441

                     40                     41                     42
                      A                      A                      A
 Frequencies --   1485.9944              1487.1075              1494.4912
 Red. masses --      2.1048                 1.0841                 1.0588
 Frc consts  --      2.7384                 1.4126                 1.3934
 IR Inten    --     17.6346                16.0510                 9.2417

                     43                     44                     45
                      A                      A                      A
 Frequencies --   1516.8896              1624.7401              1656.0702
 Red. masses --      2.5966                 6.4508                 6.6639
 Frc consts  --      3.5201                10.0330                10.7680
 IR Inten    --     25.3483                63.5418                79.8355

                     46                     47                     48
                      A                      A                      A
 Frequencies --   1671.5951              1807.9085              3091.8291
 Red. masses --     10.8829                11.3903                 1.0361
 Frc consts  --     17.9167                21.9351                 5.8358
 IR Inten    --    776.0637               418.1996                 2.2909

                     49                     50                     51
                      A                      A                      A
 Frequencies --   3159.8337              3196.0075              3207.0961
 Red. masses --      1.1011                 1.1046                 1.0866
 Frc consts  --      6.4777                 6.6477                 6.5847
 IR Inten    --      6.0674                15.4500                 5.6323

                     52                     53                     54
                      A                      A                      A
 Frequencies --   3215.3017              3228.1684              3234.5175
 Red. masses --      1.0903                 1.0911                 1.0968
 Frc consts  --      6.6409                 6.6995                 6.7610
 IR Inten    --     20.5883                19.7994                34.4236

 - Thermochemistry -
 -------------------
 Temperature   298.150 Kelvin.  Pressure   1.00000 Atm.
 Atom     1 has atomic number  6 and mass  12.00000

 Molecular mass:   179.03443 amu.
 Principal axes and moments of inertia in atomic units:
                           1         2         3
     Eigenvalues --  1580.720102386.469813607.11169
           X            0.99983  -0.01277   0.01353
           Y            0.01266   0.99989   0.00810
           Z           -0.01363  -0.00793   0.99988
 This molecule is an asymmetric top.
 Rotational symmetry number  1.
 Warning -- assumption of classical behavior for rotation
           may cause significant error
 Rotational temperatures (Kelvin)      0.05479     0.03629     0.02401
 Rotational constants (GHZ):           1.14172     0.75624     0.50033
 Zero-point vibrational energy     379961.8 (Joules/Mol)
                                   90.81304 (Kcal/Mol)
 Warning -- explicit consideration of  16 degrees of freedom as
           vibrations may cause significant error
 Vibrational temperatures:     24.59   102.41   127.81   148.51   176.80
          (Kelvin)            218.40   333.30   394.86   450.16   527.68
                              593.27   650.35   755.36   780.81   800.57
                              843.76   950.15   974.15  1020.87  1109.10
                             1166.05  1169.57  1221.38  1291.64  1350.48
                             1399.13  1440.26  1484.64  1531.07  1534.96
                             1596.41  1676.62  1704.61  1750.69  1799.11
                             1855.17  1942.70  1996.05  2035.60  2138.01
                             2139.62  2150.24  2182.47  2337.64  2382.72
                             2405.05  2601.18  4448.45  4546.30  4598.34
                             4614.30  4626.10  4644.61  4653.75

 Zero-point correction=                           0.144720 (Hartree/Particle)
 Thermal correction to Energy=                    0.156180
 Thermal correction to Enthalpy=                  0.157124
 Thermal correction to Gibbs Free Energy=         0.105389
 Sum of electronic and zero-point Energies=           -648.094935
 Sum of electronic and thermal Energies=              -648.083474
 Sum of electronic and thermal Enthalpies=            -648.082530
 Sum of electronic and thermal Free Energies=         -648.134265

                     E (Thermal)             CV                S
                      KCal/Mol        Cal/Mol-Kelvin    Cal/Mol-Kelvin
 Total                   98.005             41.555            108.886
 Electronic               0.000              0.000              0.000
 Translational            0.889              2.981             41.454
 Rotational               0.889              2.981             30.987
 Vibrational             96.227             35.593             36.444
 Vibration     1          0.593              1.986              6.946
 Vibration     2          0.598              1.968              4.120
 Vibration     3          0.602              1.957              3.686
 Vibration     4          0.605              1.947              3.393
 Vibration     5          0.610              1.930              3.054
 Vibration     6          0.619              1.901              2.650
 Vibration     7          0.653              1.793              1.866
 Vibration     8          0.677              1.721              1.568
 Vibration     9          0.701              1.649              1.347
 Vibration    10          0.740              1.541              1.093
 Vibration    11          0.776              1.443              0.918
 Vibration    12          0.811              1.356              0.790
 Vibration    13          0.880              1.195              0.598
 Vibration    14          0.898              1.156              0.560
 Vibration    15          0.912              1.126              0.531
 Vibration    16          0.944              1.061              0.474

                           ! Non-Optimized Parameters !
 Normal termination of Gaussian 16 at Sun Jul 18 13:58:09 2021.

 ----------------------------------------------------------------------
 #p b3lyp/6-31G(d) scrf=(iefpcm,read,solvent=water) geom=allcheck guess
 =read
 ----------------------------------------------------------------------

 Structure from the checkpoint file:  "SET_328_BBB272_conf1.geo_015_090_180.chk"
 ---------------------------------------------
 SET_328_BBB272_conf1.geo_015_090_180 geometry
 ---------------------------------------------
 Charge = -1 Multiplicity = 1

 SCF Done:  E(RB3LYP) =  -648.239654547     A.U. after    3 cycles
 Normal termination of Gaussian 16 at Sun Jul 18 13:58:17 2021.

 -----------------------------
 #p B3LYP/6-31G* geom=allcheck
 -----------------------------

 Structure from the checkpoint file:  "SET_328_BBB272_conf1.geo_015_090_180.chk"
 ---------------------------------------------
 SET_328_BBB272_conf1.geo_015_090_180 geometry
 ---------------------------------------------
 Charge = -1 Multiplicity = 1

 SCF Done:  E(RB3LYP) =  -648.132621767     A.U. after   16 cycles
 Normal termination of Gaussian 16 at Sun Jul 18 13:58:39 2021.
 Gaussian 16:  ES64L-G16RevB.01 20-Dec-2017

 --------------------------------------------------------
 #p mp2/aug-cc-pVDZ scf=tight maxdisk=180GB geom=allcheck
 --------------------------------------------------------

 Structure from the checkpoint file:  "SET_328_BBB272_conf1.geo_015_090_180.chk"
 ---------------------------------------------
 SET_328_BBB272_conf1.geo_015_090_180 geometry
 ---------------------------------------------
 Charge = -1 Multiplicity = 1

                         Standard orientation:
 ---------------------------------------------------------------------
 Center     Atomic      Atomic             Coordinates (Angstroms)
 Number     Number       Type             X           Y           Z
 ---------------------------------------------------------------------
      1          6           0       -3.419589   -0.496337   -0.355411
      2          1           0       -3.594414   -1.250653   -1.126692
      3          1           0       -3.481811    0.486002   -0.829962
      4          1           0       -4.176620   -0.578667    0.423436
      5          6           0       -2.050248   -0.667910    0.241173
      6          8           0       -1.795206   -0.806696    1.417916
      7          8           0       -1.105816   -0.694959   -0.738884
      8          6           0        0.237756   -0.668309   -0.348941
      9          6           0        0.882168    0.545707   -0.070734
     10          6           0        0.189582    1.915048   -0.058710
     11          8           0        0.949898    2.917997   -0.140637
     12          8           0       -1.067446    1.939728    0.047837
     13          6           0        2.255609    0.480231    0.208141
     14          1           0        2.767083    1.415465    0.406494
     15          6           0        2.950807   -0.727141    0.227425
     16          1           0        4.011710   -0.739663    0.455167
     17          6           0        2.278579   -1.917837   -0.055494
     18          1           0        2.806859   -2.864213   -0.051342
     19          6           0        0.916397   -1.884488   -0.350488
     20          1           0        0.369392   -2.790616   -0.588733
 ---------------------------------------------------------------------

 SCF Done:  E(RHF) =  -644.489254173     A.U. after   16 cycles
 E2 =    -0.2005931972D+01 EUMP2 =    -0.64649518614428D+03

 The electronic state is 1-A.
 Alpha  occ. eigenvalues --  -20.48915 -20.42826 -20.32370 -20.32300 -11.27170
 Alpha  occ. eigenvalues --  -11.18532 -11.17536 -11.13428 -11.13377 -11.12682
 Alpha  occ. eigenvalues --  -11.12427 -11.11664 -11.11213  -1.33972  -1.23909
 Alpha  occ. eigenvalues --   -1.19362  -1.08937  -1.03317  -0.92268  -0.90227
 Alpha  occ. eigenvalues --   -0.87766  -0.74047  -0.72210  -0.65766  -0.60291
 Alpha  occ. eigenvalues --   -0.57206  -0.56058  -0.54871  -0.52883  -0.49846
 Alpha  occ. eigenvalues --   -0.48380  -0.46567  -0.46055  -0.44885  -0.42598
 Alpha  occ. eigenvalues --   -0.41556  -0.40531  -0.39531  -0.37814  -0.36139
 Alpha  occ. eigenvalues --   -0.34043  -0.32420  -0.23535  -0.23249  -0.21629
 Alpha  occ. eigenvalues --   -0.21007  -0.20584
 Alpha virt. eigenvalues --    0.10887   0.11490   0.12183   0.13234   0.14131
 Alpha virt. eigenvalues --    0.15478   0.15910   0.18416   0.20005   0.20575
 Alpha virt. eigenvalues --    0.21228   0.21544   0.21836   0.22422   0.23013

 Mulliken charges:
               1
     1  C    0.244848
     2  H    0.011987
     3  H    0.071104
     4  H   -0.042076
     5  C    0.720543
     6  O   -0.802741
     7  O   -1.185215
     8  C    0.804001
     9  C    0.551008
    10  C    0.868862
    11  O   -0.987523
    12  O   -0.954539
    13  C    0.728101
    14  H   -0.614425
    15  C    0.462255
    16  H   -0.473479
    17  C    0.363988
    18  H   -0.462020
    19  C    0.305692
    20  H   -0.610371
 Sum of Mulliken charges =  -1.00000

 Dipole moment (field-independent basis, Debye):
    X=              0.0326    Y=             -9.2487    Z=             -1.7517  Tot=              9.4132
 Quadrupole moment (field-independent basis, Debye-Ang):
   XX=            -79.2588   YY=           -107.9603   ZZ=            -85.6479
   XY=             -1.5311   XZ=              6.5486   YZ=              3.6019

 Normal termination of Gaussian 16 at Sun Jul 18 14:04:09 2021.
