 Gaussian 16, Revision B.01,

 -----------------------------------------------------------
 #p b3lyp/6-31G(d) opt freq scrf=(iefpcm,read,solvent=water)
 -----------------------------------------------------------

 --------------------------------------------
 SET_328_BBB20_conf1.geo_060_180_180 geometry
 --------------------------------------------
 Symbolic Z-matrix:
 Charge =  1 Multiplicity = 1

 SCF Done:  E(RB3LYP) =  -769.791780823     A.U. after   13 cycles
 SCF Done:  E(RB3LYP) =  -769.819901367     A.U. after   11 cycles
 SCF Done:  E(RB3LYP) =  -769.829971606     A.U. after   11 cycles
 SCF Done:  E(RB3LYP) =  -769.831653995     A.U. after   10 cycles
 SCF Done:  E(RB3LYP) =  -769.832105166     A.U. after   10 cycles
 SCF Done:  E(RB3LYP) =  -769.832661128     A.U. after   10 cycles
 SCF Done:  E(RB3LYP) =  -769.832830866     A.U. after   10 cycles
 SCF Done:  E(RB3LYP) =  -769.833052333     A.U. after   10 cycles
 SCF Done:  E(RB3LYP) =  -769.833055084     A.U. after    9 cycles
 SCF Done:  E(RB3LYP) =  -769.833132946     A.U. after    9 cycles
 SCF Done:  E(RB3LYP) =  -769.833151028     A.U. after    9 cycles
 SCF Done:  E(RB3LYP) =  -769.833166264     A.U. after    8 cycles
 SCF Done:  E(RB3LYP) =  -769.833155896     A.U. after    8 cycles
 SCF Done:  E(RB3LYP) =  -769.833169204     A.U. after    7 cycles
 SCF Done:  E(RB3LYP) =  -769.833165042     A.U. after    6 cycles
 Optimization completed.
    -- Stationary point found.
 Normal termination of Gaussian 16 at Sun Jul 18 13:53:37 2021.

 --------------------------------------------------------------------
 #P Geom=AllCheck Guess=TCheck SCRF=Check GenChk RB3LYP/6-31G(d) Freq
 --------------------------------------------------------------------

 Structure from the checkpoint file:  "SET_328_BBB20_conf1.geo_060_180_180.chk"
 --------------------------------------------
 SET_328_BBB20_conf1.geo_060_180_180 geometry
 --------------------------------------------
 Charge =  1 Multiplicity = 1

 SCF Done:  E(RB3LYP) =  -769.833165042     A.U. after    1 cycles

  Exact polarizability: 266.189  30.475 282.142 -40.895  35.686 210.806
 Approx polarizability: 280.737  25.061 307.872 -47.893  43.062 242.438

                      1                      2                      3
                      A                      A                      A
 Frequencies --     33.1882                46.7923                61.1867
 Red. masses --      3.9753                 4.3211                 3.9331
 Frc consts  --      0.0026                 0.0056                 0.0087
 IR Inten    --      9.4066                 8.4416                19.4431

                      4                      5                      6
                      A                      A                      A
 Frequencies --     94.3513               100.5307               109.5302
 Red. masses --      3.0876                 1.7942                 2.7690
 Frc consts  --      0.0162                 0.0107                 0.0196
 IR Inten    --      0.9914                 1.3391                 6.8015

                      7                      8                      9
                      A                      A                      A
 Frequencies --    145.1680               161.7075               217.3983
 Red. masses --      3.7944                 3.0055                 2.9340
 Frc consts  --      0.0471                 0.0463                 0.0817
 IR Inten    --      0.6068                 2.3886                 1.1101

                     10                     11                     12
                      A                      A                      A
 Frequencies --    229.7148               268.8119               283.3591
 Red. masses --      3.9782                 3.0763                 3.1658
 Frc consts  --      0.1237                 0.1310                 0.1498
 IR Inten    --     15.1798                 8.1399                 1.5635

                     13                     14                     15
                      A                      A                      A
 Frequencies --    303.7890               339.4050               343.2844
 Red. masses --      2.9977                 2.1316                 1.4114
 Frc consts  --      0.1630                 0.1447                 0.0980
 IR Inten    --      3.5542                 1.5317                 0.7300

                     16                     17                     18
                      A                      A                      A
 Frequencies --    360.3880               410.9033               438.1812
 Red. masses --      3.9031                 4.0587                 3.3515
 Frc consts  --      0.2987                 0.4037                 0.3791
 IR Inten    --      1.9453                13.2692                 8.9978

                     19                     20                     21
                      A                      A                      A
 Frequencies --    465.0393               472.4140               485.9985
 Red. masses --      3.2370                 3.2059                 3.5125
 Frc consts  --      0.4124                 0.4215                 0.4888
 IR Inten    --      6.4066                 1.4734                 4.1760

                     22                     23                     24
                      A                      A                      A
 Frequencies --    521.5113               551.8477               575.2563
 Red. masses --      3.7918                 3.8976                 4.8429
 Frc consts  --      0.6076                 0.6993                 0.9442
 IR Inten    --      0.3326                 0.8144                 1.2900

                     25                     26                     27
                      A                      A                      A
 Frequencies --    598.7073               620.1560               634.0258
 Red. masses --      3.3880                 4.0742                 5.2008
 Frc consts  --      0.7155                 0.9232                 1.2318
 IR Inten    --      1.3152                15.3741                 9.1701

                     28                     29                     30
                      A                      A                      A
 Frequencies --    703.6773               728.6837               758.2194
 Red. masses --      4.8565                 3.5505                 2.5434
 Frc consts  --      1.4168                 1.1108                 0.8615
 IR Inten    --      0.4780                 2.9172                11.3994

                     31                     32                     33
                      A                      A                      A
 Frequencies --    770.4729               772.8438               785.9935
 Red. masses --      1.5698                 1.2683                 1.4121
 Frc consts  --      0.5490                 0.4463                 0.5140
 IR Inten    --     20.6434                49.3627                62.3751

                     34                     35                     36
                      A                      A                      A
 Frequencies --    786.8353               810.2616               853.9380
 Red. masses --      2.1691                 3.9984                 1.3686
 Frc consts  --      0.7912                 1.5466                 0.5880
 IR Inten    --      9.0127                 0.7400                 9.1383

                     37                     38                     39
                      A                      A                      A
 Frequencies --    875.9373               890.3477               895.2793
 Red. masses --      1.4155                 1.4191                 2.1168
 Frc consts  --      0.6399                 0.6628                 0.9996
 IR Inten    --      2.6749                 1.8992                 9.1607

                     40                     41                     42
                      A                      A                      A
 Frequencies --    929.8627               950.1822               953.7090
 Red. masses --      2.5092                 1.5936                 1.5005
 Frc consts  --      1.2783                 0.8477                 0.8041
 IR Inten    --     27.5468                13.0717                 7.6960

                     43                     44                     45
                      A                      A                      A
 Frequencies --    955.6657               984.3762               987.9143
 Red. masses --      1.7811                 1.2646                 1.2482
 Frc consts  --      0.9584                 0.7220                 0.7177
 IR Inten    --     25.9096                 4.8899                14.0637

                     46                     47                     48
                      A                      A                      A
 Frequencies --    988.7377               990.6982              1018.8018
 Red. masses --      1.7637                 1.3295                 2.7886
 Frc consts  --      1.0158                 0.7688                 1.7054
 IR Inten    --      1.7153                 4.8069                 7.4979

                     49                     50                     51
                      A                      A                      A
 Frequencies --   1050.7668              1063.9301              1075.0946
 Red. masses --      2.4926                 3.3007                 2.1989
 Frc consts  --      1.6215                 2.2013                 1.4974
 IR Inten    --      3.0817                 5.8031                 6.3045

                     52                     53                     54
                      A                      A                      A
 Frequencies --   1083.0683              1091.1254              1135.8875
 Red. masses --      3.0503                 2.2668                 2.1061
 Frc consts  --      2.1081                 1.5901                 1.6010
 IR Inten    --      8.4875                18.2856                57.1043

                     55                     56                     57
                      A                      A                      A
 Frequencies --   1151.2633              1167.9676              1174.1333
 Red. masses --      1.8877                 1.8986                 1.5800
 Frc consts  --      1.4741                 1.5259                 1.2833
 IR Inten    --     18.4001                61.9714                40.8560

                     58                     59                     60
                      A                      A                      A
 Frequencies --   1189.2331              1192.0175              1202.2422
 Red. masses --      1.1864                 1.1701                 1.1692
 Frc consts  --      0.9886                 0.9796                 0.9957
 IR Inten    --      1.4280                 3.9895                 6.9128

                     61                     62                     63
                      A                      A                      A
 Frequencies --   1212.9348              1235.9704              1250.9895
 Red. masses --      1.7298                 2.5868                 1.8416
 Frc consts  --      1.4994                 2.3282                 1.6981
 IR Inten    --      1.2106                 9.5687                64.8955

                     64                     65                     66
                      A                      A                      A
 Frequencies --   1260.8156              1275.1082              1296.4745
 Red. masses --      1.9203                 1.8776                 1.3949
 Frc consts  --      1.7985                 1.7987                 1.3814
 IR Inten    --     82.0337               172.5528                13.2772

                     67                     68                     69
                      A                      A                      A
 Frequencies --   1313.5216              1324.5009              1332.7921
 Red. masses --      1.4573                 1.6289                 1.8745
 Frc consts  --      1.4814                 1.6837                 1.9618
 IR Inten    --      2.7478                 4.0716               120.1483

                     70                     71                     72
                      A                      A                      A
 Frequencies --   1344.1735              1356.1507              1365.1203
 Red. masses --      3.6078                 1.7024                 1.7443
 Frc consts  --      3.8406                 1.8447                 1.9152
 IR Inten    --      0.8281                 3.7805                 9.4846

                     73                     74                     75
                      A                      A                      A
 Frequencies --   1379.2941              1380.9807              1399.4447
 Red. masses --      1.3917                 1.5256                 1.4699
 Frc consts  --      1.5599                 1.7142                 1.6961
 IR Inten    --     46.9923                11.3829                17.5121

                     76                     77                     78
                      A                      A                      A
 Frequencies --   1432.7936              1449.8646              1486.4254
 Red. masses --      1.3874                 1.4163                 1.5439
 Frc consts  --      1.6781                 1.7541                 2.0098
 IR Inten    --     18.0608                36.9769                26.6301

                     79                     80                     81
                      A                      A                      A
 Frequencies --   1491.1486              1497.3004              1503.3825
 Red. masses --      1.4344                 1.2531                 1.9873
 Frc consts  --      1.8792                 1.6552                 2.6464
 IR Inten    --     34.5894                 3.1198                53.2955

                     82                     83                     84
                      A                      A                      A
 Frequencies --   1508.7859              1525.3741              1530.1636
 Red. masses --      1.0985                 1.1219                 1.6993
 Frc consts  --      1.4733                 1.5380                 2.3442
 IR Inten    --      2.2466               110.2851                74.3888

                     85                     86                     87
                      A                      A                      A
 Frequencies --   1532.9937              1545.3399              1554.7969
 Red. masses --      1.2689                 2.2505                 1.2211
 Frc consts  --      1.7569                 3.1665                 1.7391
 IR Inten    --    226.6405                32.8400                 8.4312

                     88                     89                     90
                      A                      A                      A
 Frequencies --   1628.6785              1635.5166              1639.9747
 Red. masses --      5.8828                 1.0422                 6.3978
 Frc consts  --      9.1941                 1.6426                10.1381
 IR Inten    --     26.3293                68.3241                11.5111

                     91                     92                     93
                      A                      A                      A
 Frequencies --   1653.2381              1659.1102              1664.6609
 Red. masses --      5.7191                 5.6607                 1.0400
 Frc consts  --      9.2098                 9.1805                 1.6981
 IR Inten    --     36.6106                16.6005                89.4330

                     94                     95                     96
                      A                      A                      A
 Frequencies --   3015.2061              3037.7266              3060.4587
 Red. masses --      1.0713                 1.0632                 1.0694
 Frc consts  --      5.7385                 5.7804                 5.9014
 IR Inten    --     96.9808                52.2241                20.1592

                     97                     98                     99
                      A                      A                      A
 Frequencies --   3071.9695              3074.7236              3109.5511
 Red. masses --      1.0603                 1.0898                 1.1037
 Frc consts  --      5.8953                 6.0705                 6.2880
 IR Inten    --     28.2962                94.0377                50.8290

                    100                    101                    102
                      A                      A                      A
 Frequencies --   3114.1539              3129.7196              3132.7430
 Red. masses --      1.0996                 1.0599                 1.0943
 Frc consts  --      6.2827                 6.1166                 6.3278
 IR Inten    --      4.2916                19.6935                52.2047

                    103                    104                    105
                      A                      A                      A
 Frequencies --   3179.2989              3186.7686              3195.7668
 Red. masses --      1.0883                 1.1097                 1.0857
 Frc consts  --      6.4815                 6.6396                 6.5329
 IR Inten    --     29.2515                22.0231                 2.3175

                    106                    107                    108
                      A                      A                      A
 Frequencies --   3197.5615              3203.5372              3218.3370
 Red. masses --      1.0883                 1.0897                 1.0936
 Frc consts  --      6.5562                 6.5891                 6.6737
 IR Inten    --     21.3044                31.3768                58.8789

                    109                    110                    111
                      A                      A                      A
 Frequencies --   3222.3105              3225.7723              3235.9048
 Red. masses --      1.0945                 1.0948                 1.0918
 Frc consts  --      6.6957                 6.7117                 6.7355
 IR Inten    --     51.8262                22.9250                21.6462

                    112                    113                    114
                      A                      A                      A
 Frequencies --   3367.4418              3427.6223              3462.5226
 Red. masses --      1.0352                 1.0950                 1.0910
 Frc consts  --      6.9165                 7.5795                 7.7068
 IR Inten    --    113.8388               228.6868               237.6028

 - Thermochemistry -
 -------------------
 Temperature   298.150 Kelvin.  Pressure   1.00000 Atm.
 Atom     1 has atomic number  7 and mass  14.00307

 Molecular mass:   253.17047 amu.
 Principal axes and moments of inertia in atomic units:
                           1         2         3
     Eigenvalues --  4139.924015882.823228356.86487
           X            0.99831  -0.05803  -0.00086
           Y            0.05804   0.99827   0.00922
           Z            0.00033  -0.00925   0.99996
 This molecule is an asymmetric top.
 Rotational symmetry number  1.
 Warning -- assumption of classical behavior for rotation
           may cause significant error
 Rotational temperatures (Kelvin)      0.02092     0.01472     0.01036
 Rotational constants (GHZ):           0.43594     0.30678     0.21596
 Zero-point vibrational energy     929371.2 (Joules/Mol)
                                  222.12505 (Kcal/Mol)
 Warning -- explicit consideration of  26 degrees of freedom as
           vibrations may cause significant error
 Vibrational temperatures:     47.75    67.32    88.03   135.75   144.64
          (Kelvin)            157.59   208.86   232.66   312.79   330.51
                              386.76   407.69   437.08   488.33   493.91
                              518.52   591.20   630.45   669.09   679.70
                              699.24   750.34   793.99   827.67   861.41
                              892.27   912.22  1012.43  1048.41  1090.91
                             1108.54  1111.95  1130.87  1132.08  1165.79
                             1228.63  1260.28  1281.01  1288.11  1337.87
                             1367.10  1372.17  1374.99  1416.30  1421.39
                             1422.57  1425.39  1465.83  1511.82  1530.76
                             1546.82  1558.29  1569.89  1634.29  1656.41
                             1680.44  1689.32  1711.04  1715.05  1729.76
                             1745.14  1778.29  1799.89  1814.03  1834.60
                             1865.34  1889.86  1905.66  1917.59  1933.97
                             1951.20  1964.10  1984.50  1986.92  2013.49
                             2061.47  2086.03  2138.63  2145.43  2154.28
                             2163.03  2170.81  2194.67  2201.56  2205.64
                             2223.40  2237.01  2343.31  2353.14  2359.56
                             2378.64  2387.09  2395.08  4338.21  4370.61
                             4403.32  4419.88  4423.84  4473.95  4480.57
                             4502.97  4507.32  4574.30  4585.05  4598.00
                             4600.58  4609.18  4630.47  4636.19  4641.17
                             4655.75  4845.00  4931.58  4981.80

 Zero-point correction=                           0.353979 (Hartree/Particle)
 Thermal correction to Energy=                    0.370420
 Thermal correction to Enthalpy=                  0.371365
 Thermal correction to Gibbs Free Energy=         0.309516
 Sum of electronic and zero-point Energies=           -769.479186
 Sum of electronic and thermal Energies=              -769.462745
 Sum of electronic and thermal Enthalpies=            -769.461800
 Sum of electronic and thermal Free Energies=         -769.523649

                     E (Thermal)             CV                S
                      KCal/Mol        Cal/Mol-Kelvin    Cal/Mol-Kelvin
 Total                  232.442             66.030            130.171
 Electronic               0.000              0.000              0.000
 Translational            0.889              2.981             42.487
 Rotational               0.889              2.981             33.675
 Vibrational            230.665             60.068             54.009
 Vibration     1          0.594              1.983              5.629
 Vibration     2          0.595              1.979              4.949
 Vibration     3          0.597              1.973              4.419
 Vibration     4          0.603              1.953              3.568
 Vibration     5          0.604              1.949              3.444
 Vibration     6          0.606              1.942              3.277
 Vibration     7          0.617              1.908              2.735
 Vibration     8          0.622              1.889              2.530
 Vibration     9          0.646              1.815              1.981
 Vibration    10          0.652              1.796              1.881
 Vibration    11          0.673              1.731              1.604
 Vibration    12          0.682              1.704              1.513
 Vibration    13          0.695              1.667              1.396
 Vibration    14          0.719              1.597              1.215
 Vibration    15          0.722              1.589              1.197
 Vibration    16          0.735              1.554              1.120
 Vibration    17          0.775              1.447              0.923
 Vibration    18          0.798              1.387              0.832
 Vibration    19          0.822              1.328              0.752
 Vibration    20          0.829              1.311              0.731
 Vibration    21          0.842              1.281              0.694
 Vibration    22          0.876              1.202              0.606
 Vibration    23          0.907              1.136              0.540
 Vibration    24          0.932              1.085              0.494
 Vibration    25          0.957              1.035              0.452
 Vibration    26          0.980              0.989              0.416

                           ! Non-Optimized Parameters !
 Normal termination of Gaussian 16 at Sun Jul 18 14:11:12 2021.

 ----------------------------------------------------------------------
 #p b3lyp/6-31G(d) scrf=(iefpcm,read,solvent=water) geom=allcheck guess
 =read
 ----------------------------------------------------------------------

 Structure from the checkpoint file:  "SET_328_BBB20_conf1.geo_060_180_180.chk"
 --------------------------------------------
 SET_328_BBB20_conf1.geo_060_180_180 geometry
 --------------------------------------------
 Charge =  1 Multiplicity = 1

 SCF Done:  E(RB3LYP) =  -769.833165042     A.U. after    1 cycles
 Normal termination of Gaussian 16 at Sun Jul 18 14:11:27 2021.

 -----------------------------
 #p B3LYP/6-31G* geom=allcheck
 -----------------------------

 Structure from the checkpoint file:  "SET_328_BBB20_conf1.geo_060_180_180.chk"
 --------------------------------------------
 SET_328_BBB20_conf1.geo_060_180_180 geometry
 --------------------------------------------
 Charge =  1 Multiplicity = 1

 SCF Done:  E(RB3LYP) =  -769.714957460     A.U. after   14 cycles
 Normal termination of Gaussian 16 at Sun Jul 18 14:12:34 2021.
 Gaussian 16:  ES64L-G16RevB.01 20-Dec-2017

 --------------------------------------------------------
 #p mp2/aug-cc-pVDZ scf=tight maxdisk=180GB geom=allcheck
 --------------------------------------------------------

 Structure from the checkpoint file:  "SET_328_BBB20_conf1.geo_060_180_180.chk"
 --------------------------------------------
 SET_328_BBB20_conf1.geo_060_180_180 geometry
 --------------------------------------------
 Charge =  1 Multiplicity = 1

                         Standard orientation:
 ---------------------------------------------------------------------
 Center     Atomic      Atomic             Coordinates (Angstroms)
 Number     Number       Type             X           Y           Z
 ---------------------------------------------------------------------
      1          7           0        4.649592   -2.015845    0.928526
      2          1           0        5.095938   -1.124726    0.654009
      3          1           0        5.338662   -2.767327    0.770599
      4          6           0        3.386357   -2.262118    0.157998
      5          1           0        3.014274   -3.234432    0.480482
      6          1           0        3.669156   -2.326436   -0.893139
      7          6           0        2.378739   -1.151574    0.414261
      8          1           0        2.803994   -0.192710    0.103097
      9          1           0        2.162485   -1.085882    1.485556
     10          6           0        1.072485   -1.423752   -0.336620
     11          1           0        0.676178   -2.384952   -0.004673
     12          1           0        1.271115   -1.517723   -1.414457
     13          7           0        0.055314   -0.413524   -0.034505
     14          6           0        0.392031    0.945979   -0.330964
     15          6           0        1.136142    1.284604   -1.468568
     16          1           0        1.449013    0.506795   -2.156402
     17          6           0        1.472009    2.615128   -1.721854
     18          1           0        2.047991    2.864489   -2.608291
     19          6           0        1.058928    3.618399   -0.844001
     20          1           0        1.315235    4.655136   -1.036227
     21          6           0        0.320401    3.278121    0.290571
     22          1           0        0.006201    4.049332    0.986896
     23          6           0       -0.008942    1.948738    0.568316
     24          6           0       -0.797195    1.556988    1.785288
     25          1           0       -0.874547    2.411147    2.464951
     26          1           0       -0.276291    0.755639    2.320649
     27          6           0       -2.212804    1.094907    1.424194
     28          1           0       -2.730647    1.935219    0.944149
     29          1           0       -2.766555    0.899758    2.350184
     30          6           0       -2.356825   -0.128106    0.531713
     31          6           0       -3.663294   -0.615575    0.384689
     32          1           0       -4.458471   -0.095215    0.913571
     33          6           0       -3.973951   -1.733050   -0.384129
     34          1           0       -4.998944   -2.078831   -0.459204
     35          6           0       -2.943853   -2.394676   -1.050036
     36          1           0       -3.149675   -3.263266   -1.668490
     37          6           0       -1.637636   -1.927068   -0.935166
     38          1           0       -0.852978   -2.431022   -1.485818
     39          6           0       -1.313300   -0.806573   -0.144298
     40          1           0        4.467778   -1.971641    1.946040
 ---------------------------------------------------------------------

 SCF Done:  E(RHF) =  -764.747009067     A.U. after   16 cycles
 E2 =    -0.2712903242D+01 EUMP2 =    -0.76745991230936D+03

 The electronic state is 1-A.
 Alpha  occ. eigenvalues --  -15.89884 -15.67692 -11.47590 -11.39594 -11.39387
 Alpha  occ. eigenvalues --  -11.36601 -11.36558 -11.32979 -11.32822 -11.32731
 Alpha  occ. eigenvalues --  -11.32381 -11.32307 -11.32211 -11.31623 -11.31581
 Alpha  occ. eigenvalues --  -11.31414 -11.31411 -11.31109 -11.30676  -1.50637
 Alpha  occ. eigenvalues --   -1.36486  -1.24108  -1.23477  -1.21094  -1.16243
 Alpha  occ. eigenvalues --   -1.11052  -1.10658  -1.10126  -1.06852  -1.03407
 Alpha  occ. eigenvalues --   -0.99311  -0.96474  -0.96371  -0.94178  -0.91102
 Alpha  occ. eigenvalues --   -0.89785  -0.87355  -0.86624  -0.84257  -0.80915
 Alpha  occ. eigenvalues --   -0.78429  -0.77831  -0.74809  -0.73999  -0.73124
 Alpha  occ. eigenvalues --   -0.71591  -0.71042  -0.69898  -0.68615  -0.68150
 Alpha  occ. eigenvalues --   -0.67502  -0.65899  -0.65591  -0.63516  -0.63330
 Alpha  occ. eigenvalues --   -0.62171  -0.60842  -0.59061  -0.58609  -0.57353
 Alpha  occ. eigenvalues --   -0.56214  -0.55887  -0.55080  -0.50621  -0.41981
 Alpha  occ. eigenvalues --   -0.40859  -0.40109  -0.37948
 Alpha virt. eigenvalues --   -0.11234  -0.07656  -0.07495  -0.06160  -0.03714
 Alpha virt. eigenvalues --   -0.03565  -0.03124  -0.02877  -0.02587  -0.01670
 Alpha virt. eigenvalues --   -0.01432  -0.01109  -0.00793  -0.00417  -0.00048

 Mulliken charges:
               1
     1  N   -0.567925
     2  H    0.252214
     3  H    0.178423
     4  C    1.304536
     5  H   -0.134985
     6  H   -0.127542
     7  C    0.375556
     8  H   -0.187808
     9  H   -0.253533
    10  C    0.815432
    11  H   -0.532162
    12  H   -0.298630
    13  N   -0.241963
    14  C   -1.484675
    15  C    1.474332
    16  H   -0.750543
    17  C    0.148352
    18  H   -0.534023
    19  C    0.617493
    20  H   -0.465411
    21  C    0.670727
    22  H   -0.614666
    23  C    0.666071
    24  C    0.772601
    25  H   -0.146817
    26  H   -0.079281
    27  C    0.325068
    28  H    0.076750
    29  H   -0.019819
    30  C   -0.100270
    31  C    0.598356
    32  H   -0.740106
    33  C    0.063881
    34  H   -0.464121
    35  C    0.360194
    36  H   -0.510486
    37  C    0.636524
    38  H   -0.884484
    39  C    0.551733
    40  H    0.251007
 Sum of Mulliken charges =   1.00000

 Dipole moment (field-independent basis, Debye):
    X=             18.4742    Y=             -8.1324    Z=              3.6512  Tot=             20.5125
 Quadrupole moment (field-independent basis, Debye-Ang):
   XX=            -13.0531   YY=            -81.8449   ZZ=           -104.4359
   XY=            -39.9318   XZ=             12.0212   YZ=             -2.7228

 Normal termination of Gaussian 16 at Sun Jul 18 15:15:48 2021.
