 Gaussian 16, Revision B.01,

 -----------------------------------------------------------
 #p b3lyp/6-31G(d) opt freq scrf=(iefpcm,read,solvent=water)
 -----------------------------------------------------------

 --------------------------------------------
 SET_328_BBB29_conf1.geo_090_075_180 geometry
 --------------------------------------------
 Symbolic Z-matrix:
 Charge =  1 Multiplicity = 1

 SCF Done:  E(RB3LYP) =  -1548.95479111     A.U. after   13 cycles
 SCF Done:  E(RB3LYP) =  -1548.98333345     A.U. after   11 cycles
 SCF Done:  E(RB3LYP) =  -1548.99369184     A.U. after   11 cycles
 SCF Done:  E(RB3LYP) =  -1548.99510110     A.U. after   11 cycles
 SCF Done:  E(RB3LYP) =  -1548.99644001     A.U. after   10 cycles
 SCF Done:  E(RB3LYP) =  -1548.99717752     A.U. after   11 cycles
 SCF Done:  E(RB3LYP) =  -1548.99751484     A.U. after   10 cycles
 SCF Done:  E(RB3LYP) =  -1548.99719406     A.U. after   11 cycles
 SCF Done:  E(RB3LYP) =  -1548.99786073     A.U. after   10 cycles
 SCF Done:  E(RB3LYP) =  -1548.99796190     A.U. after    9 cycles
 SCF Done:  E(RB3LYP) =  -1548.99785154     A.U. after    9 cycles
 SCF Done:  E(RB3LYP) =  -1548.99784926     A.U. after    8 cycles
 SCF Done:  E(RB3LYP) =  -1548.99785043     A.U. after    7 cycles
 SCF Done:  E(RB3LYP) =  -1548.99777521     A.U. after    8 cycles
 SCF Done:  E(RB3LYP) =  -1548.99777064     A.U. after    7 cycles
 SCF Done:  E(RB3LYP) =  -1548.99776257     A.U. after    6 cycles
 Optimization completed.
    -- Stationary point found.
 Normal termination of Gaussian 16 at Sun Jul 18 14:36:43 2021.

 --------------------------------------------------------------------
 #P Geom=AllCheck Guess=TCheck SCRF=Check GenChk RB3LYP/6-31G(d) Freq
 --------------------------------------------------------------------

 Structure from the checkpoint file:  "SET_328_BBB29_conf1.geo_090_075_180.chk"
 --------------------------------------------
 SET_328_BBB29_conf1.geo_090_075_180 geometry
 --------------------------------------------
 Charge =  1 Multiplicity = 1

 SCF Done:  E(RB3LYP) =  -1548.99776257     A.U. after    1 cycles

  Exact polarizability: 374.995   3.185 211.919  -1.592 -66.693 232.894
 Approx polarizability: 394.164   1.774 241.470   3.699 -82.382 273.936

                      1                      2                      3
                      A                      A                      A
 Frequencies --     42.1085                46.5488                48.3661
 Red. masses --      4.6493                 5.7480                 5.3525
 Frc consts  --      0.0049                 0.0073                 0.0074
 IR Inten    --     18.8029                10.6449                18.1832

                      4                      5                      6
                      A                      A                      A
 Frequencies --     96.5674               119.8706               130.9166
 Red. masses --      5.7730                 1.8865                 4.1819
 Frc consts  --      0.0317                 0.0160                 0.0422
 IR Inten    --      2.4317                 8.1346                 0.6406

                      7                      8                      9
                      A                      A                      A
 Frequencies --    142.6383               155.7992               220.9960
 Red. masses --      3.5236                 5.8887                 5.8563
 Frc consts  --      0.0422                 0.0842                 0.1685
 IR Inten    --      5.2106                 2.9512                 3.8850

                     10                     11                     12
                      A                      A                      A
 Frequencies --    236.8722               261.7831               274.5813
 Red. masses --      4.3378                 4.2854                 4.3674
 Frc consts  --      0.1434                 0.1730                 0.1940
 IR Inten    --      0.8735                 9.0049                 3.0820

                     13                     14                     15
                      A                      A                      A
 Frequencies --    296.0515               301.5633               314.7870
 Red. masses --      1.5475                 1.9481                 6.8728
 Frc consts  --      0.0799                 0.1044                 0.4012
 IR Inten    --      2.1264                 6.0652                 0.4286

                     16                     17                     18
                      A                      A                      A
 Frequencies --    359.9570               367.8798               388.9250
 Red. masses --      3.2654                 5.8420                 6.0431
 Frc consts  --      0.2493                 0.4658                 0.5386
 IR Inten    --      9.3843                 8.4681                 4.8018

                     19                     20                     21
                      A                      A                      A
 Frequencies --    431.2397               449.0920               456.9867
 Red. masses --      4.6629                 5.3229                 3.4269
 Frc consts  --      0.5109                 0.6325                 0.4217
 IR Inten    --      3.7749                 6.7433                 1.0694

                     22                     23                     24
                      A                      A                      A
 Frequencies --    490.5239               502.5149               538.4923
 Red. masses --      4.4850                 4.3628                 4.2314
 Frc consts  --      0.6358                 0.6491                 0.7229
 IR Inten    --      7.6164                17.9405                 6.0313

                     25                     26                     27
                      A                      A                      A
 Frequencies --    559.8157               594.3476               603.9842
 Red. masses --      4.0161                 6.7565                 5.0620
 Frc consts  --      0.7416                 1.4062                 1.0880
 IR Inten    --      9.3695                11.0729                 6.0184

                     28                     29                     30
                      A                      A                      A
 Frequencies --    634.1773               691.2346               710.5393
 Red. masses --      5.3720                 5.7196                 5.5576
 Frc consts  --      1.2729                 1.6101                 1.6532
 IR Inten    --      0.6772                 5.7324                 1.4514

                     31                     32                     33
                      A                      A                      A
 Frequencies --    734.6604               745.7104               765.1080
 Red. masses --      5.6233                 3.7715                 1.3380
 Frc consts  --      1.7882                 1.2357                 0.4615
 IR Inten    --      2.1261                 3.0504                99.8081

                     34                     35                     36
                      A                      A                      A
 Frequencies --    775.5531               809.2976               817.6296
 Red. masses --      1.7440                 2.2467                 1.3815
 Frc consts  --      0.6180                 0.8670                 0.5441
 IR Inten    --      5.2265                23.4188                34.2358

                     37                     38                     39
                      A                      A                      A
 Frequencies --    859.0467               874.8481               875.9685
 Red. masses --      1.8822                 1.3558                 1.3931
 Frc consts  --      0.8184                 0.6114                 0.6298
 IR Inten    --     11.5821                 7.4340                30.9153

                     40                     41                     42
                      A                      A                      A
 Frequencies --    927.8948               933.3857               947.8434
 Red. masses --      3.1831                 1.5902                 1.3410
 Frc consts  --      1.6147                 0.8162                 0.7098
 IR Inten    --    158.8221                12.0106                 6.3922

                     43                     44                     45
                      A                      A                      A
 Frequencies --    952.4719               986.9297               987.8718
 Red. masses --      1.3006                 1.3393                 2.3295
 Frc consts  --      0.6952                 0.7686                 1.3394
 IR Inten    --      1.3443                 1.8891                15.1528

                     46                     47                     48
                      A                      A                      A
 Frequencies --   1016.5248              1033.3350              1064.9618
 Red. masses --      1.5619                 2.4336                 5.1107
 Frc consts  --      0.9509                 1.5310                 3.4151
 IR Inten    --      2.2301                19.9550                36.4450

                     49                     50                     51
                      A                      A                      A
 Frequencies --   1073.7312              1080.0566              1122.0324
 Red. masses --      3.4797                 2.5692                 3.4553
 Frc consts  --      2.3637                 1.7658                 2.5630
 IR Inten    --     14.5229                 7.8778                24.0247

                     52                     53                     54
                      A                      A                      A
 Frequencies --   1132.6848              1154.1310              1156.8684
 Red. masses --      2.1932                 1.8417                 1.5657
 Frc consts  --      1.6578                 1.4454                 1.2346
 IR Inten    --     64.9983                37.1391                37.0577

                     55                     56                     57
                      A                      A                      A
 Frequencies --   1171.0163              1173.3982              1195.2029
 Red. masses --      1.4899                 1.7005                 1.1304
 Frc consts  --      1.2037                 1.3795                 0.9514
 IR Inten    --     18.0836                33.0834                 2.0581

                     58                     59                     60
                      A                      A                      A
 Frequencies --   1261.5111              1281.2855              1307.1313
 Red. masses --      1.9584                 2.2755                 1.5264
 Frc consts  --      1.8362                 2.2010                 1.5366
 IR Inten    --    152.6172               148.5481                66.2930

                     61                     62                     63
                      A                      A                      A
 Frequencies --   1314.3388              1326.2697              1335.4618
 Red. masses --      1.3916                 1.6296                 4.8405
 Frc consts  --      1.4164                 1.6889                 5.0863
 IR Inten    --     11.1674                 6.8199                81.7011

                     64                     65                     66
                      A                      A                      A
 Frequencies --   1353.1371              1356.2564              1363.6435
 Red. masses --      7.9867                 2.0794                 1.1567
 Frc consts  --      8.6159                 2.2536                 1.2673
 IR Inten    --      3.9739                63.4894                38.8245

                     67                     68                     69
                      A                      A                      A
 Frequencies --   1379.9074              1423.5905              1436.5160
 Red. masses --      1.2576                 1.9682                 1.4521
 Frc consts  --      1.4109                 2.3501                 1.7655
 IR Inten    --     31.4116                82.3672                19.6655

                     70                     71                     72
                      A                      A                      A
 Frequencies --   1460.7458              1487.7906              1500.4897
 Red. masses --      1.8122                 2.2407                 1.3187
 Frc consts  --      2.2783                 2.9223                 1.7493
 IR Inten    --     29.2815                28.4299               144.3108

                     73                     74                     75
                      A                      A                      A
 Frequencies --   1501.9610              1526.5010              1532.0375
 Red. masses --      1.7215                 1.1102                 1.9955
 Frc consts  --      2.2880                 1.5243                 2.7596
 IR Inten    --    313.5492                74.3765                89.5814

                     76                     77                     78
                      A                      A                      A
 Frequencies --   1533.2197              1543.1676              1611.8720
 Red. masses --      1.3207                 1.1118                 6.4106
 Frc consts  --      1.8293                 1.5600                 9.8132
 IR Inten    --     60.9438                 4.4936                44.0538

                     79                     80                     81
                      A                      A                      A
 Frequencies --   1624.9620              1631.0853              1640.0085
 Red. masses --      6.2021                 6.1306                 1.0416
 Frc consts  --      9.6489                 9.6096                 1.6507
 IR Inten    --    108.4613                 6.1778                69.7485

                     82                     83                     84
                      A                      A                      A
 Frequencies --   1650.5241              1652.6848              3055.2532
 Red. masses --      6.3865                 1.0377                 1.0719
 Frc consts  --     10.2507                 1.6699                 5.8950
 IR Inten    --     49.5016                85.8311                63.6376

                     85                     86                     87
                      A                      A                      A
 Frequencies --   3084.6743              3125.9531              3135.5129
 Red. masses --      1.0615                 1.0979                 1.0655
 Frc consts  --      5.9509                 6.3210                 6.1719
 IR Inten    --     33.1634                14.7237                17.3293

                     88                     89                     90
                      A                      A                      A
 Frequencies --   3164.0787              3197.8460              3213.0155
 Red. masses --      1.0921                 1.1077                 1.0866
 Frc consts  --      6.4416                 6.6740                 6.6090
 IR Inten    --     25.8710                15.6525                 3.2438

                     91                     92                     93
                      A                      A                      A
 Frequencies --   3218.4297              3224.2636              3236.7711
 Red. masses --      1.0907                 1.0897                 1.0947
 Frc consts  --      6.6567                 6.6745                 6.7572
 IR Inten    --     17.0418                 7.2570                42.4890

                     94                     95                     96
                      A                      A                      A
 Frequencies --   3246.3831              3250.5089              3271.0936
 Red. masses --      1.0931                 1.0942                 1.0906
 Frc consts  --      6.7873                 6.8114                 6.8756
 IR Inten    --     18.3455                 5.0029                 1.4998

                     97                     98                     99
                      A                      A                      A
 Frequencies --   3393.1846              3459.7008              3474.9857
 Red. masses --      1.0342                 1.0921                 1.0950
 Frc consts  --      7.0157                 7.7016                 7.7907
 IR Inten    --    118.7242               232.9962               234.6725

 - Thermochemistry -
 -------------------
 Temperature   298.150 Kelvin.  Pressure   1.00000 Atm.
 Atom     1 has atomic number  7 and mass  14.00307

 Molecular mass:   291.07227 amu.
 Principal axes and moments of inertia in atomic units:
                           1         2         3
     Eigenvalues --  4585.998697933.207649809.08029
           X            0.99954  -0.02291  -0.01982
           Y            0.02308   0.99970   0.00866
           Z            0.01962  -0.00911   0.99977
 This molecule is an asymmetric top.
 Rotational symmetry number  1.
 Warning -- assumption of classical behavior for rotation
           may cause significant error
 Rotational temperatures (Kelvin)      0.01889     0.01092     0.00883
 Rotational constants (GHZ):           0.39353     0.22749     0.18399
 Zero-point vibrational energy     757386.1 (Joules/Mol)
                                  181.01963 (Kcal/Mol)
 Warning -- explicit consideration of  27 degrees of freedom as
           vibrations may cause significant error
 Vibrational temperatures:     60.58    66.97    69.59   138.94   172.47
          (Kelvin)            188.36   205.22   224.16   317.96   340.81
                              376.65   395.06   425.95   433.88   452.91
                              517.90   529.30   559.58   620.46   646.14
                              657.50   705.75   723.01   774.77   805.45
                              855.13   869.00   912.44   994.53  1022.31
                             1057.01  1072.91  1100.82  1115.85  1164.40
                             1176.39  1235.98  1258.71  1260.32  1335.03
                             1342.93  1363.74  1370.39  1419.97  1421.33
                             1462.55  1486.74  1532.24  1544.86  1553.96
                             1614.35  1629.68  1660.54  1664.48  1684.83
                             1688.26  1719.63  1815.03  1843.48  1880.67
                             1891.04  1908.21  1921.43  1946.86  1951.35
                             1961.98  1985.38  2048.23  2066.83  2101.69
                             2140.60  2158.87  2160.99  2196.29  2204.26
                             2205.96  2220.27  2319.12  2337.96  2346.77
                             2359.61  2374.74  2377.84  4395.83  4438.16
                             4497.55  4511.30  4552.40  4600.99  4622.81
                             4630.60  4639.00  4656.99  4670.82  4676.76
                             4706.37  4882.04  4977.74  4999.73

 Zero-point correction=                           0.288473 (Hartree/Particle)
 Thermal correction to Energy=                    0.305204
 Thermal correction to Enthalpy=                  0.306148
 Thermal correction to Gibbs Free Energy=         0.243489
 Sum of electronic and zero-point Energies=          -1548.709289
 Sum of electronic and thermal Energies=             -1548.692559
 Sum of electronic and thermal Enthalpies=           -1548.691615
 Sum of electronic and thermal Free Energies=        -1548.754274

                     E (Thermal)             CV                S
                      KCal/Mol        Cal/Mol-Kelvin    Cal/Mol-Kelvin
 Total                  191.518             65.776            131.877
 Electronic               0.000              0.000              0.000
 Translational            0.889              2.981             42.903
 Rotational               0.889              2.981             34.233
 Vibrational            189.741             59.814             54.741
 Vibration     1          0.595              1.980              5.157
 Vibration     2          0.595              1.979              4.959
 Vibration     3          0.595              1.978              4.883
 Vibration     4          0.603              1.952              3.522
 Vibration     5          0.609              1.933              3.102
 Vibration     6          0.612              1.922              2.933
 Vibration     7          0.616              1.911              2.768
 Vibration     8          0.620              1.896              2.600
 Vibration     9          0.648              1.809              1.951
 Vibration    10          0.656              1.784              1.826
 Vibration    11          0.669              1.743              1.650
 Vibration    12          0.677              1.720              1.567
 Vibration    13          0.690              1.681              1.439
 Vibration    14          0.694              1.671              1.408
 Vibration    15          0.702              1.645              1.337
 Vibration    16          0.734              1.555              1.122
 Vibration    17          0.740              1.538              1.089
 Vibration    18          0.757              1.494              1.004
 Vibration    19          0.792              1.402              0.855
 Vibration    20          0.808              1.363              0.799
 Vibration    21          0.815              1.345              0.775
 Vibration    22          0.846              1.271              0.682
 Vibration    23          0.858              1.244              0.652
 Vibration    24          0.894              1.165              0.569
 Vibration    25          0.915              1.118              0.524
 Vibration    26          0.952              1.044              0.459
 Vibration    27          0.962              1.023              0.443

 Optimization completed.
    -- Stationary point found.
 Normal termination of Gaussian 16 at Sun Jul 18 14:51:25 2021.

 ----------------------------------------------------------------------
 #p b3lyp/6-31G(d) scrf=(iefpcm,read,solvent=water) geom=allcheck guess
 =read
 ----------------------------------------------------------------------

 Structure from the checkpoint file:  "SET_328_BBB29_conf1.geo_090_075_180.chk"
 --------------------------------------------
 SET_328_BBB29_conf1.geo_090_075_180 geometry
 --------------------------------------------
 Charge =  1 Multiplicity = 1

 SCF Done:  E(RB3LYP) =  -1548.99776257     A.U. after    2 cycles
 Normal termination of Gaussian 16 at Sun Jul 18 14:51:42 2021.

 -----------------------------
 #p B3LYP/6-31G* geom=allcheck
 -----------------------------

 Structure from the checkpoint file:  "SET_328_BBB29_conf1.geo_090_075_180.chk"
 --------------------------------------------
 SET_328_BBB29_conf1.geo_090_075_180 geometry
 --------------------------------------------
 Charge =  1 Multiplicity = 1

 SCF Done:  E(RB3LYP) =  -1548.87922092     A.U. after   15 cycles

 The electronic state is 1-A.
 Alpha  occ. eigenvalues -- -101.63313 -88.98512 -14.66529 -14.48192 -10.42709
 Alpha  occ. eigenvalues --  -10.36327 -10.36059 -10.34662 -10.34531 -10.33453
 Alpha  occ. eigenvalues --  -10.32118 -10.31427 -10.30223 -10.29796 -10.29214
 Alpha  occ. eigenvalues --  -10.28773 -10.28500 -10.28161 -10.27698  -9.54929
 Alpha  occ. eigenvalues --   -8.04542  -7.31336  -7.30351  -7.30317  -6.01045
 Alpha  occ. eigenvalues --   -6.00688  -6.00042  -1.20637  -1.08215  -0.98316
 Alpha  occ. eigenvalues --   -0.96977  -0.94702  -0.93586  -0.88868  -0.86972
 Alpha  occ. eigenvalues --   -0.86303  -0.83468  -0.82705  -0.80133  -0.79019
 Alpha  occ. eigenvalues --   -0.77175  -0.75826  -0.72487  -0.71038  -0.69299
 Alpha  occ. eigenvalues --   -0.68914  -0.65834  -0.64681  -0.63113  -0.61370
 Alpha  occ. eigenvalues --   -0.59326  -0.58144  -0.56968  -0.56668  -0.55609
 Alpha  occ. eigenvalues --   -0.54904  -0.53866  -0.53429  -0.52441  -0.51713
 Alpha  occ. eigenvalues --   -0.51214  -0.49885  -0.48578  -0.47715  -0.47323
 Alpha  occ. eigenvalues --   -0.45437  -0.44455  -0.43811  -0.41902  -0.40776
 Alpha  occ. eigenvalues --   -0.39791  -0.38007  -0.35460  -0.34118  -0.32309
 Alpha  occ. eigenvalues --   -0.29049
 Alpha virt. eigenvalues --   -0.16622  -0.11310  -0.11030  -0.10175  -0.10098
 Alpha virt. eigenvalues --   -0.09712  -0.08785  -0.06761  -0.06298  -0.05000
 Alpha virt. eigenvalues --   -0.03461  -0.02031  -0.01423  -0.00057   0.00903

 Mulliken charges:
               1
     1  N   -0.725143
     2  H    0.428777
     3  H    0.435954
     4  C   -0.209363
     5  H    0.256228
     6  H    0.227579
     7  C   -0.307773
     8  H    0.174087
     9  H    0.184716
    10  C   -0.155717
    11  H    0.179508
    12  H    0.191051
    13  N   -0.593938
    14  C    0.298517
    15  C   -0.179589
    16  H    0.152440
    17  C   -0.092298
    18  Cl   0.001338
    19  C   -0.115705
    20  H    0.178228
    21  C   -0.175446
    22  H    0.174989
    23  C   -0.123191
    24  S    0.171276
    25  C   -0.125965
    26  C    0.297276
    27  C   -0.173805
    28  H    0.140940
    29  C   -0.143815
    30  H    0.155487
    31  C   -0.113227
    32  H    0.158586
    33  C   -0.171472
    34  H    0.166108
    35  H    0.433365
 Sum of Mulliken charges =   1.00000

 Dipole moment (field-independent basis, Debye):
    X=             -1.6640    Y=             17.1353    Z=              5.0711  Tot=             17.9472
 Quadrupole moment (field-independent basis, Debye-Ang):
   XX=           -106.4586   YY=            -41.5487   ZZ=           -105.9863
   XY=            -17.2363   XZ=            -13.2012   YZ=             19.2222

 Normal termination of Gaussian 16 at Sun Jul 18 14:52:36 2021.
 Gaussian 16:  ES64L-G16RevB.01 20-Dec-2017

 --------------------------------------------------------
 #p mp2/aug-cc-pVDZ scf=tight maxdisk=180GB geom=allcheck
 --------------------------------------------------------

 Structure from the checkpoint file:  "SET_328_BBB29_conf1.geo_090_075_180.chk"
 --------------------------------------------
 SET_328_BBB29_conf1.geo_090_075_180 geometry
 --------------------------------------------
 Charge =  1 Multiplicity = 1

                         Standard orientation:
 ---------------------------------------------------------------------
 Center     Atomic      Atomic             Coordinates (Angstroms)
 Number     Number       Type             X           Y           Z
 ---------------------------------------------------------------------
      1          7           0       -0.982981    4.137149    1.605564
      2          1           0       -1.267447    4.949411    1.038448
      3          1           0       -0.542934    4.499280    2.463739
      4          6           0       -0.047471    3.237318    0.851030
      5          1           0        0.215397    2.425135    1.526637
      6          1           0        0.846702    3.824401    0.637546
      7          6           0       -0.710176    2.726317   -0.420844
      8          1           0       -0.951835    3.568124   -1.076860
      9          1           0       -1.651293    2.226879   -0.175138
     10          6           0        0.199558    1.772253   -1.203551
     11          1           0        1.142003    2.276056   -1.412699
     12          1           0       -0.260493    1.540899   -2.172090
     13          7           0        0.519989    0.554588   -0.451954
     14          6           0       -0.533672   -0.318244   -0.103719
     15          6           0       -1.778683   -0.263189   -0.746070
     16          1           0       -1.956414    0.443271   -1.543467
     17          6           0       -2.795728   -1.126350   -0.349124
     18         17           0       -4.354752   -1.013201   -1.160966
     19          6           0       -2.615506   -2.074731    0.651183
     20          1           0       -3.420466   -2.737683    0.941190
     21          6           0       -1.366367   -2.147796    1.269399
     22          1           0       -1.194308   -2.882804    2.048087
     23          6           0       -0.343418   -1.270430    0.916645
     24         16           0        1.200848   -1.275689    1.801474
     25          6           0        2.276709   -0.891474    0.429712
     26          6           0        1.826042    0.009090   -0.553665
     27          6           0        2.693165    0.328166   -1.607899
     28          1           0        2.362772    0.983074   -2.403493
     29          6           0        3.985595   -0.195950   -1.649070
     30          1           0        4.640701    0.079445   -2.468477
     31          6           0        4.425517   -1.078724   -0.664334
     32          1           0        5.426495   -1.491432   -0.699511
     33          6           0        3.557327   -1.440923    0.366236
     34          1           0        3.873548   -2.139615    1.133141
     35          1           0       -1.841621    3.636827    1.884947
 ---------------------------------------------------------------------

 SCF Done:  E(RHF) =  -1543.12667802     A.U. after   17 cycles
