 Gaussian 16, Revision B.01,

 -----------------------------------------------------------
 #p b3lyp/6-31G(d) opt freq scrf=(iefpcm,read,solvent=water)
 -----------------------------------------------------------

 --------------------------------------------
 SET_328_BBB30_conf1.geo_240_075_270 geometry
 --------------------------------------------
 Symbolic Z-matrix:
 Charge =  1 Multiplicity = 1

 SCF Done:  E(RB3LYP) =  -445.287675645     A.U. after   11 cycles
 SCF Done:  E(RB3LYP) =  -445.318021823     A.U. after   11 cycles
 SCF Done:  E(RB3LYP) =  -445.327354003     A.U. after   10 cycles
 SCF Done:  E(RB3LYP) =  -445.327984235     A.U. after   10 cycles
 SCF Done:  E(RB3LYP) =  -445.327896139     A.U. after    9 cycles
 SCF Done:  E(RB3LYP) =  -445.327980880     A.U. after    9 cycles
 SCF Done:  E(RB3LYP) =  -445.328035078     A.U. after    9 cycles
 SCF Done:  E(RB3LYP) =  -445.328029378     A.U. after    8 cycles
 SCF Done:  E(RB3LYP) =  -445.328022938     A.U. after    8 cycles
 SCF Done:  E(RB3LYP) =  -445.328036416     A.U. after    8 cycles
 SCF Done:  E(RB3LYP) =  -445.328024866     A.U. after    8 cycles
 SCF Done:  E(RB3LYP) =  -445.328025047     A.U. after    7 cycles
 SCF Done:  E(RB3LYP) =  -445.328035908     A.U. after    8 cycles
 SCF Done:  E(RB3LYP) =  -445.328036478     A.U. after    7 cycles
 SCF Done:  E(RB3LYP) =  -445.328023930     A.U. after    8 cycles
 Optimization completed.
    -- Stationary point found.
 Normal termination of Gaussian 16 at Sun Jul 18 14:28:15 2021.

 --------------------------------------------------------------------
 #P Geom=AllCheck Guess=TCheck SCRF=Check GenChk RB3LYP/6-31G(d) Freq
 --------------------------------------------------------------------

 Structure from the checkpoint file:  "SET_328_BBB30_conf1.geo_240_075_270.chk"
 --------------------------------------------
 SET_328_BBB30_conf1.geo_240_075_270 geometry
 --------------------------------------------
 Charge =  1 Multiplicity = 1

 SCF Done:  E(RB3LYP) =  -445.328023930     A.U. after    1 cycles

  Exact polarizability: 169.267 -22.496 107.883   8.598  20.397 144.366
 Approx polarizability: 178.644 -25.806 117.879   9.764  26.003 166.796

                      1                      2                      3
                      A                      A                      A
 Frequencies --     51.3540                67.4699                88.3673
 Red. masses --      3.3259                 3.2692                 3.3508
 Frc consts  --      0.0052                 0.0088                 0.0154
 IR Inten    --      2.6245                 7.1381                 1.6782

                      4                      5                      6
                      A                      A                      A
 Frequencies --    128.8803               213.9011               224.0272
 Red. masses --      1.8349                 1.1354                 1.8562
 Frc consts  --      0.0180                 0.0306                 0.0549
 IR Inten    --      3.5067                 0.9916                 4.6037

                      7                      8                      9
                      A                      A                      A
 Frequencies --    237.5477               280.9724               324.9967
 Red. masses --      1.6000                 3.3229                 2.4216
 Frc consts  --      0.0532                 0.1546                 0.1507
 IR Inten    --      8.3209                 2.1829                 4.6238

                     10                     11                     12
                      A                      A                      A
 Frequencies --    349.4063               419.6504               432.9611
 Red. masses --      2.1745                 2.9252                 2.2620
 Frc consts  --      0.1564                 0.3035                 0.2498
 IR Inten    --      0.4771                 0.2970                 6.1225

                     13                     14                     15
                      A                      A                      A
 Frequencies --    457.9217               512.3340               610.9689
 Red. masses --      3.1911                 2.7714                 4.3995
 Frc consts  --      0.3942                 0.4286                 0.9676
 IR Inten    --      2.6688                 7.1872                 5.0986

                     16                     17                     18
                      A                      A                      A
 Frequencies --    634.5954               717.0968               753.5209
 Red. masses --      6.2895                 2.0627                 1.7519
 Frc consts  --      1.4923                 0.6249                 0.5861
 IR Inten    --      0.1501                29.2739                61.1121

                     19                     20                     21
                      A                      A                      A
 Frequencies --    800.6374               831.6074               864.8502
 Red. masses --      2.3195                 3.4045                 1.2089
 Frc consts  --      0.8760                 1.3872                 0.5327
 IR Inten    --      0.0411                 1.7026                36.6697

                     22                     23                     24
                      A                      A                      A
 Frequencies --    867.6557               919.6236               933.2758
 Red. masses --      1.2491                 1.4309                 1.7191
 Frc consts  --      0.5541                 0.7130                 0.8822
 IR Inten    --      0.2557                 3.6246                 0.5281

                     25                     26                     27
                      A                      A                      A
 Frequencies --    949.5079               981.1749              1009.0957
 Red. masses --      1.7103                 1.3558                 1.2605
 Frc consts  --      0.9085                 0.7690                 0.7563
 IR Inten    --      2.1263                 0.0053                 0.0865

                     28                     29                     30
                      A                      A                      A
 Frequencies --   1017.1214              1032.1626              1050.2245
 Red. masses --      6.1702                 3.7676                 1.8567
 Frc consts  --      3.7609                 2.3649                 1.2066
 IR Inten    --      0.5253                 8.6146                22.7359

                     31                     32                     33
                      A                      A                      A
 Frequencies --   1057.4688              1098.0946              1106.1989
 Red. masses --      2.0877                 1.7162                 1.5148
 Frc consts  --      1.3755                 1.2193                 1.0921
 IR Inten    --     12.4940                11.0334                31.7177

                     34                     35                     36
                      A                      A                      A
 Frequencies --   1133.0317              1169.9736              1189.1050
 Red. masses --      2.0334                 1.2419                 1.0933
 Frc consts  --      1.5380                 1.0016                 0.9108
 IR Inten    --     15.0738                 4.8258                 0.1164

                     37                     38                     39
                      A                      A                      A
 Frequencies --   1207.6991              1226.5178              1237.5253
 Red. masses --      1.1288                 1.6047                 2.7261
 Frc consts  --      0.9700                 1.4223                 2.4598
 IR Inten    --      0.3971                 5.8179                 0.3990

                     40                     41                     42
                      A                      A                      A
 Frequencies --   1284.1110              1337.3276              1359.6309
 Red. masses --      1.5938                 1.2804                 3.9383
 Frc consts  --      1.5484                 1.3492                 4.2894
 IR Inten    --      8.5594                 3.7421                 1.6790

                     43                     44                     45
                      A                      A                      A
 Frequencies --   1365.1209              1395.3701              1400.8448
 Red. masses --      1.3205                 1.2377                 1.4521
 Frc consts  --      1.4499                 1.4198                 1.6789
 IR Inten    --      2.5641                 4.6593                 5.8672

                     46                     47                     48
                      A                      A                      A
 Frequencies --   1436.8219              1454.6222              1477.7768
 Red. masses --      1.2752                 1.1515                 1.1511
 Frc consts  --      1.5511                 1.4355                 1.4811
 IR Inten    --     11.3428                16.0147                 6.8899

                     49                     50                     51
                      A                      A                      A
 Frequencies --   1489.9313              1499.4817              1511.0413
 Red. masses --      1.2175                 2.0325                 1.0802
 Frc consts  --      1.5925                 2.6925                 1.4531
 IR Inten    --     72.2598                 9.0912                 6.9186

                     52                     53                     54
                      A                      A                      A
 Frequencies --   1515.3653              1521.9354              1525.6731
 Red. masses --      1.0645                 1.0949                 1.0395
 Frc consts  --      1.4402                 1.4943                 1.4256
 IR Inten    --      5.1134                 1.0438                24.4853

                     55                     56                     57
                      A                      A                      A
 Frequencies --   1530.4641              1544.0038              1643.0027
 Red. masses --      1.0648                 2.2362                 5.4982
 Frc consts  --      1.4694                 3.1409                 8.7448
 IR Inten    --     42.6674                14.0606                 1.6442

                     58                     59                     60
                      A                      A                      A
 Frequencies --   1652.1602              1662.8758              3072.3359
 Red. masses --      1.0699                 5.6522                 1.0575
 Frc consts  --      1.7207                 9.2085                 5.8810
 IR Inten    --    135.9574                 3.8983                17.5507

                     61                     62                     63
                      A                      A                      A
 Frequencies --   3079.2307              3111.2581              3124.7808
 Red. masses --      1.0399                 1.0973                 1.0926
 Frc consts  --      5.8094                 6.2584                 6.2856
 IR Inten    --     35.9330                 6.8983                22.5921

                     64                     65                     66
                      A                      A                      A
 Frequencies --   3133.6177              3151.6757              3163.9805
 Red. masses --      1.0316                 1.1019                 1.1032
 Frc consts  --      5.9682                 6.4486                 6.5066
 IR Inten    --     14.9091                43.7921                24.9951

                     67                     68                     69
                      A                      A                      A
 Frequencies --   3187.4678              3200.6953              3209.0010
 Red. masses --      1.0884                 1.0863                 1.0897
 Frc consts  --      6.5155                 6.5566                 6.6117
 IR Inten    --     19.4480                 7.1432                11.3781

                     70                     71                     72
                      A                      A                      A
 Frequencies --   3216.0389              3222.3351              3228.2369
 Red. masses --      1.0938                 1.1083                 1.0976
 Frc consts  --      6.6655                 6.7801                 6.7397
 IR Inten    --     65.6399                 9.5924                31.2081

                     73                     74                     75
                      A                      A                      A
 Frequencies --   3250.4499              3378.7375              3448.3883
 Red. masses --      1.1077                 1.0639                 1.0866
 Frc consts  --      6.8951                 7.1561                 7.6128
 IR Inten    --      1.3991               128.6328               180.8354

 - Thermochemistry -
 -------------------
 Temperature   298.150 Kelvin.  Pressure   1.00000 Atm.
 Atom     1 has atomic number  6 and mass  12.00000

 Molecular mass:   150.12827 amu.
 Principal axes and moments of inertia in atomic units:
                           1         2         3
     Eigenvalues --   878.366912789.061682968.96047
           X            0.99996  -0.00871   0.00207
           Y            0.00870   0.99995   0.00404
           Z           -0.00211  -0.00402   0.99999
 This molecule is an asymmetric top.
 Rotational symmetry number  1.
 Warning -- assumption of classical behavior for rotation
           may cause significant error
 Rotational temperatures (Kelvin)      0.09861     0.03105     0.02917
 Rotational constants (GHZ):           2.05466     0.64708     0.60787
 Zero-point vibrational energy     651811.2 (Joules/Mol)
                                  155.78661 (Kcal/Mol)
 Warning -- explicit consideration of  15 degrees of freedom as
           vibrations may cause significant error
 Vibrational temperatures:     73.89    97.07   127.14   185.43   307.76
          (Kelvin)            322.33   341.78   404.26   467.60   502.72
                              603.78   622.93   658.85   737.13   879.05
                              913.04  1031.74  1084.15  1151.94  1196.50
                             1244.33  1248.36  1323.13  1342.78  1366.13
                             1411.69  1451.86  1463.41  1485.05  1511.04
                             1521.46  1579.91  1591.57  1630.18  1683.33
                             1710.86  1737.61  1764.69  1780.52  1847.55
                             1924.12  1956.21  1964.10  2007.63  2015.50
                             2067.27  2092.88  2126.19  2143.68  2157.42
                             2174.05  2180.27  2189.73  2195.10  2202.00
                             2221.48  2363.91  2377.09  2392.51  4420.41
                             4430.33  4476.41  4495.86  4508.58  4534.56
                             4552.26  4586.06  4605.09  4617.04  4627.16
                             4636.22  4644.71  4676.67  4861.25  4961.46

 Zero-point correction=                           0.248262 (Hartree/Particle)
 Thermal correction to Energy=                    0.259348
 Thermal correction to Enthalpy=                  0.260292
 Thermal correction to Gibbs Free Energy=         0.211149
 Sum of electronic and zero-point Energies=           -445.079762
 Sum of electronic and thermal Energies=              -445.068676
 Sum of electronic and thermal Enthalpies=            -445.067732
 Sum of electronic and thermal Free Energies=         -445.116875

                     E (Thermal)             CV                S
                      KCal/Mol        Cal/Mol-Kelvin    Cal/Mol-Kelvin
 Total                  162.743             42.334            103.431
 Electronic               0.000              0.000              0.000
 Translational            0.889              2.981             40.929
 Rotational               0.889              2.981             30.365
 Vibrational            160.966             36.372             32.137
 Vibration     1          0.596              1.977              4.765
 Vibration     2          0.598              1.970              4.226
 Vibration     3          0.601              1.957              3.696
 Vibration     4          0.611              1.924              2.963
 Vibration     5          0.644              1.820              2.010
 Vibration     6          0.649              1.804              1.926
 Vibration     7          0.656              1.783              1.821
 Vibration     8          0.681              1.709              1.528
 Vibration     9          0.709              1.625              1.285
 Vibration    10          0.727              1.576              1.169
 Vibration    11          0.782              1.428              0.893
 Vibration    12          0.794              1.398              0.849
 Vibration    13          0.816              1.343              0.772
 Vibration    14          0.867              1.223              0.628
 Vibration    15          0.970              1.009              0.431

                           ! Non-Optimized Parameters !
 Normal termination of Gaussian 16 at Sun Jul 18 14:33:08 2021.

 ----------------------------------------------------------------------
 #p b3lyp/6-31G(d) scrf=(iefpcm,read,solvent=water) geom=allcheck guess
 =read
 ----------------------------------------------------------------------

 Structure from the checkpoint file:  "SET_328_BBB30_conf1.geo_240_075_270.chk"
 --------------------------------------------
 SET_328_BBB30_conf1.geo_240_075_270 geometry
 --------------------------------------------
 Charge =  1 Multiplicity = 1

 SCF Done:  E(RB3LYP) =  -445.328023930     A.U. after    1 cycles
 Normal termination of Gaussian 16 at Sun Jul 18 14:33:14 2021.

 -----------------------------
 #p B3LYP/6-31G* geom=allcheck
 -----------------------------

 Structure from the checkpoint file:  "SET_328_BBB30_conf1.geo_240_075_270.chk"
 --------------------------------------------
 SET_328_BBB30_conf1.geo_240_075_270 geometry
 --------------------------------------------
 Charge =  1 Multiplicity = 1

 SCF Done:  E(RB3LYP) =  -445.226432757     A.U. after   13 cycles
 Normal termination of Gaussian 16 at Sun Jul 18 14:33:35 2021.
 Gaussian 16:  ES64L-G16RevB.01 20-Dec-2017

 --------------------------------------------------------
 #p mp2/aug-cc-pVDZ scf=tight maxdisk=180GB geom=allcheck
 --------------------------------------------------------

 Structure from the checkpoint file:  "SET_328_BBB30_conf1.geo_240_075_270.chk"
 --------------------------------------------
 SET_328_BBB30_conf1.geo_240_075_270 geometry
 --------------------------------------------
 Charge =  1 Multiplicity = 1

                         Standard orientation:
 ---------------------------------------------------------------------
 Center     Atomic      Atomic             Coordinates (Angstroms)
 Number     Number       Type             X           Y           Z
 ---------------------------------------------------------------------
      1          6           0        1.125520    2.022220   -0.678308
      2          1           0        1.380800    1.926289   -1.731877
      3          1           0        1.290477    3.044250   -0.342347
      4          1           0        0.096101    1.724595   -0.505938
      5          7           0        2.029705    1.125901    0.104900
      6          1           0        1.846056    1.252172    1.114280
      7          6           0        1.965663   -0.355258   -0.236493
      8          6           0        3.326468   -0.978095    0.048354
      9          1           0        3.295625   -2.038850   -0.207385
     10          1           0        3.587718   -0.890774    1.107389
     11          1           0        4.112675   -0.509237   -0.546792
     12          1           0        1.755931   -0.392246   -1.307640
     13          6           0        0.853840   -1.064263    0.554184
     14          1           0        1.071688   -0.965274    1.622975
     15          1           0        0.959712   -2.127123    0.312836
     16          6           0       -0.569437   -0.623375    0.286628
     17          6           0       -1.295777    0.053866    1.273819
     18          1           0       -0.824298    0.256823    2.230152
     19          6           0       -2.610201    0.464824    1.041791
     20          1           0       -3.156509    0.988803    1.819182
     21          6           0       -3.218559    0.198320   -0.185451
     22          1           0       -4.239592    0.515599   -0.368961
     23          6           0       -2.507130   -0.486048   -1.174841
     24          1           0       -2.975915   -0.704703   -2.128969
     25          6           0       -1.195294   -0.896247   -0.938449
     26          1           0       -0.653586   -1.434166   -1.712342
     27          1           0        2.994622    1.456880   -0.036273
 ---------------------------------------------------------------------

 SCF Done:  E(RHF) =  -442.293275344     A.U. after   15 cycles
 E2 =    -0.1588227215D+01 EUMP2 =    -0.44388150255929D+03

 The electronic state is 1-A.
 Alpha  occ. eigenvalues --  -15.86716 -11.46325 -11.45078 -11.39438 -11.38974
 Alpha  occ. eigenvalues --  -11.37625 -11.36301 -11.36175 -11.35897 -11.35880
 Alpha  occ. eigenvalues --  -11.35473  -1.48855  -1.28335  -1.23764  -1.16624
 Alpha  occ. eigenvalues --   -1.13548  -1.11891  -1.08050  -1.00866  -0.95066
 Alpha  occ. eigenvalues --   -0.94294  -0.92231  -0.84425  -0.83793  -0.81676
 Alpha  occ. eigenvalues --   -0.76953  -0.75753  -0.74643  -0.73966  -0.73248
 Alpha  occ. eigenvalues --   -0.71560  -0.70454  -0.69156  -0.68678  -0.67105
 Alpha  occ. eigenvalues --   -0.65872  -0.61083  -0.60886  -0.60705  -0.45618
 Alpha  occ. eigenvalues --   -0.45096
 Alpha virt. eigenvalues --   -0.09003  -0.06866  -0.05914  -0.05583  -0.03913
 Alpha virt. eigenvalues --   -0.03756  -0.03374  -0.03320  -0.03250  -0.01952
 Alpha virt. eigenvalues --   -0.01453  -0.01141  -0.00795  -0.00508   0.00043

 Mulliken charges:
               1
     1  C    0.891777
     2  H   -0.098187
     3  H   -0.173833
     4  H   -0.049776
     5  N   -0.446494
     6  H    0.209697
     7  C   -0.392154
     8  C    0.891686
     9  H   -0.022631
    10  H   -0.005918
    11  H   -0.068262
    12  H   -0.434802
    13  C    0.594761
    14  H   -0.235508
    15  H   -0.109021
    16  C    1.124625
    17  C    0.407918
    18  H   -0.675240
    19  C    0.188414
    20  H   -0.440030
    21  C    0.677172
    22  H   -0.423811
    23  C    0.133366
    24  H   -0.451292
    25  C    0.445447
    26  H   -0.714965
    27  H    0.177062
 Sum of Mulliken charges =   1.00000

 Dipole moment (field-independent basis, Debye):
    X=              7.1802    Y=              3.5728    Z=             -0.1404  Tot=              8.0212
 Quadrupole moment (field-independent basis, Debye-Ang):
   XX=            -35.1291   YY=            -56.2554   ZZ=            -58.9586
   XY=              4.1173   XZ=              1.4939   YZ=              2.4264

 Normal termination of Gaussian 16 at Sun Jul 18 14:43:54 2021.
