 Gaussian 16, Revision B.01,

 -----------------------------------------------------------
 #p b3lyp/6-31G(d) opt freq scrf=(iefpcm,read,solvent=water)
 -----------------------------------------------------------

 ---------------------------------------------
 SET_328_BBB292_conf1.geo_105_165_120 geometry
 ---------------------------------------------
 Symbolic Z-matrix:
 Charge =  1 Multiplicity = 1

 SCF Done:  E(RB3LYP) =  -705.618563648     A.U. after   13 cycles
 SCF Done:  E(RB3LYP) =  -705.672753784     A.U. after   12 cycles
 SCF Done:  E(RB3LYP) =  -705.700951719     A.U. after   13 cycles
 SCF Done:  E(RB3LYP) =  -705.706889658     A.U. after   11 cycles
 SCF Done:  E(RB3LYP) =  -705.707497611     A.U. after   11 cycles
 SCF Done:  E(RB3LYP) =  -705.708847554     A.U. after   10 cycles
 SCF Done:  E(RB3LYP) =  -705.709258576     A.U. after   10 cycles
 SCF Done:  E(RB3LYP) =  -705.709300260     A.U. after   10 cycles
 SCF Done:  E(RB3LYP) =  -705.709393860     A.U. after   10 cycles
 SCF Done:  E(RB3LYP) =  -705.709434347     A.U. after    9 cycles
 SCF Done:  E(RB3LYP) =  -705.709547704     A.U. after    7 cycles
 SCF Done:  E(RB3LYP) =  -705.709548716     A.U. after    7 cycles
 SCF Done:  E(RB3LYP) =  -705.709548163     A.U. after    7 cycles
 SCF Done:  E(RB3LYP) =  -705.709548505     A.U. after    7 cycles
 SCF Done:  E(RB3LYP) =  -705.709548466     A.U. after    6 cycles
 SCF Done:  E(RB3LYP) =  -705.709548502     A.U. after    6 cycles
 Optimization completed.
    -- Stationary point found.
 Normal termination of Gaussian 16 at Sun Jul 18 14:07:41 2021.

 --------------------------------------------------------------------
 #P Geom=AllCheck Guess=TCheck SCRF=Check GenChk RB3LYP/6-31G(d) Freq
 --------------------------------------------------------------------

 Structure from the checkpoint file:  "SET_328_BBB292_conf1.geo_105_165_120.chk"
 ---------------------------------------------
 SET_328_BBB292_conf1.geo_105_165_120 geometry
 ---------------------------------------------
 Charge =  1 Multiplicity = 1

 SCF Done:  E(RB3LYP) =  -705.709548502     A.U. after    1 cycles

  Exact polarizability: 189.258  -7.185 159.507 -14.787 -13.443  88.372
 Approx polarizability: 209.726 -10.479 191.189 -19.943 -15.596 103.356

                      1                      2                      3
                      A                      A                      A
 Frequencies --     36.2883                61.7242                71.3690
 Red. masses --      5.9484                 5.5455                 5.9871
 Frc consts  --      0.0046                 0.0124                 0.0180
 IR Inten    --     28.2488                15.2618                 7.6007

                      4                      5                      6
                      A                      A                      A
 Frequencies --    112.4444               161.5933               187.0313
 Red. masses --      5.5452                 4.9745                 7.5876
 Frc consts  --      0.0413                 0.0765                 0.1564
 IR Inten    --     16.4345                71.1858                 0.8698

                      7                      8                      9
                      A                      A                      A
 Frequencies --    225.4089               248.4533               282.3103
 Red. masses --      1.4328                 2.5463                 3.3325
 Frc consts  --      0.0429                 0.0926                 0.1565
 IR Inten    --    183.0470                86.2786                12.0848

                     10                     11                     12
                      A                      A                      A
 Frequencies --    305.7205               323.5554               357.7210
 Red. masses --      5.1227                 3.1046                 3.7217
 Frc consts  --      0.2821                 0.1915                 0.2806
 IR Inten    --     12.7288                12.5249                34.9657

                     13                     14                     15
                      A                      A                      A
 Frequencies --    364.7525               402.9296               408.7618
 Red. masses --      1.1949                 1.3641                 1.7084
 Frc consts  --      0.0937                 0.1305                 0.1682
 IR Inten    --      9.4713                69.5625                 9.6956

                     16                     17                     18
                      A                      A                      A
 Frequencies --    453.9082               464.7029               492.5459
 Red. masses --      4.1180                 3.3062                 1.8124
 Frc consts  --      0.4999                 0.4207                 0.2591
 IR Inten    --     23.2925                 1.5868                79.7937

                     19                     20                     21
                      A                      A                      A
 Frequencies --    516.2851               542.3519               594.7503
 Red. masses --      2.1156                 4.4070                 6.1980
 Frc consts  --      0.3323                 0.7638                 1.2917
 IR Inten    --     83.9395                 7.6814                23.9351

                     22                     23                     24
                      A                      A                      A
 Frequencies --    600.2441               659.6416               705.5909
 Red. masses --      4.2085                 4.0150                 5.6564
 Frc consts  --      0.8934                 1.0293                 1.6592
 IR Inten    --      4.4279                11.9664                 2.2431

                     25                     26                     27
                      A                      A                      A
 Frequencies --    716.4091               777.8635               803.2439
 Red. masses --      4.9269                 6.2712                 4.7408
 Frc consts  --      1.4899                 2.2357                 1.8022
 IR Inten    --     10.5481                 5.0224                29.0921

                     28                     29                     30
                      A                      A                      A
 Frequencies --    824.0287               845.5681               875.4774
 Red. masses --      1.7367                 1.8339                 1.6486
 Frc consts  --      0.6948                 0.7726                 0.7445
 IR Inten    --     43.0086                 5.3774                30.5955

                     31                     32                     33
                      A                      A                      A
 Frequencies --    901.4059               934.0626               943.6443
 Red. masses --      2.3282                 1.8962                 1.3228
 Frc consts  --      1.1146                 0.9747                 0.6940
 IR Inten    --     18.4953                49.4886                 6.0426

                     34                     35                     36
                      A                      A                      A
 Frequencies --    978.9826              1072.2883              1094.0431
 Red. masses --      2.3518                 3.1567                 1.4942
 Frc consts  --      1.3280                 2.1385                 1.0537
 IR Inten    --      5.7244                68.7428                22.3829

                     37                     38                     39
                      A                      A                      A
 Frequencies --   1128.1013              1146.6116              1171.8253
 Red. masses --      1.7938                 1.6998                 1.5488
 Frc consts  --      1.3450                 1.3167                 1.2530
 IR Inten    --    141.1165               239.3759                50.9214

                     40                     41                     42
                      A                      A                      A
 Frequencies --   1201.8139              1226.2619              1262.9045
 Red. masses --      1.3661                 1.4238                 1.5934
 Frc consts  --      1.1626                 1.2614                 1.4973
 IR Inten    --     26.1131               141.7823                 8.7345

                     43                     44                     45
                      A                      A                      A
 Frequencies --   1275.2548              1290.3183              1305.4736
 Red. masses --      1.3715                 2.8426                 1.4018
 Frc consts  --      1.3141                 2.7884                 1.4075
 IR Inten    --     99.6642               307.2922               144.7540

                     46                     47                     48
                      A                      A                      A
 Frequencies --   1327.6533              1343.6250              1365.8793
 Red. masses --      2.1443                 2.5149                 1.8678
 Frc consts  --      2.2269                 2.6750                 2.0531
 IR Inten    --    178.0664               451.0833               109.5065

                     49                     50                     51
                      A                      A                      A
 Frequencies --   1398.9031              1411.4408              1424.4323
 Red. masses --      1.4942                 1.4575                 2.4141
 Frc consts  --      1.7228                 1.7107                 2.8859
 IR Inten    --      2.2068                83.8819                48.7127

                     52                     53                     54
                      A                      A                      A
 Frequencies --   1492.7127              1516.1962              1534.5869
 Red. masses --      3.2933                 1.1020                 1.1673
 Frc consts  --      4.3234                 1.4925                 1.6197
 IR Inten    --    143.9101                24.5645               223.2303

                     55                     56                     57
                      A                      A                      A
 Frequencies --   1572.9751              1643.1081              1658.5974
 Red. masses --      3.2482                 1.0441                 1.0896
 Frc consts  --      4.7352                 1.6608                 1.7660
 IR Inten    --    186.6500                75.8500                82.3799

                     58                     59                     60
                      A                      A                      A
 Frequencies --   1663.8101              1669.8008              1822.4792
 Red. masses --      5.5859                 5.3774                 9.7309
 Frc consts  --      9.1107                 8.8339                19.0428
 IR Inten    --     59.7205                46.6702               412.6541

                     61                     62                     63
                      A                      A                      A
 Frequencies --   3093.4653              3141.9233              3153.7447
 Red. masses --      1.0636                 1.0877                 1.0989
 Frc consts  --      5.9966                 6.3263                 6.4396
 IR Inten    --     21.5059                 0.2713                 9.2723

                     64                     65                     66
                      A                      A                      A
 Frequencies --   3198.3581              3200.0046              3217.7023
 Red. masses --      1.0909                 1.0882                 1.0943
 Frc consts  --      6.5751                 6.5656                 6.6751
 IR Inten    --     21.7590                14.7082                17.4551

                     67                     68                     69
                      A                      A                      A
 Frequencies --   3324.3136              3411.3486              3436.9841
 Red. masses --      1.0494                 1.0763                 1.0943
 Frc consts  --      6.8329                 7.3797                 7.6160
 IR Inten    --    169.2553               231.8556               317.9122

                     70                     71                     72
                      A                      A                      A
 Frequencies --   3687.3022              3707.7092              3710.8248
 Red. masses --      1.0656                 1.0665                 1.0667
 Frc consts  --      8.5361                 8.6385                 8.6542
 IR Inten    --    234.3303               222.5433               191.0119

 - Thermochemistry -
 -------------------
 Temperature   298.150 Kelvin.  Pressure   1.00000 Atm.
 Atom     1 has atomic number  7 and mass  14.00307

 Molecular mass:   198.07663 amu.
 Principal axes and moments of inertia in atomic units:
                           1         2         3
     Eigenvalues --  1012.707296160.623196670.65455
           X            0.99997   0.00595   0.00449
           Y           -0.00594   0.99998  -0.00186
           Z           -0.00450   0.00183   0.99999
 This molecule is an asymmetric top.
 Rotational symmetry number  1.
 Warning -- assumption of classical behavior for rotation
           may cause significant error
 Rotational temperatures (Kelvin)      0.08553     0.01406     0.01298
 Rotational constants (GHZ):           1.78210     0.29295     0.27055
 Zero-point vibrational energy     559167.8 (Joules/Mol)
                                  133.64430 (Kcal/Mol)
 Warning -- explicit consideration of  22 degrees of freedom as
           vibrations may cause significant error
 Vibrational temperatures:     52.21    88.81   102.68   161.78   232.50
          (Kelvin)            269.10   324.31   357.47   406.18   439.86
                              465.52   514.68   524.80   579.73   588.12
                              653.07   668.60   708.66   742.82   780.32
                              855.71   863.62   949.08  1015.19  1030.75
                             1119.17  1155.69  1185.59  1216.58  1259.62
                             1296.92  1343.91  1357.69  1408.54  1542.78
                             1574.08  1623.09  1649.72  1686.00  1729.14
                             1764.32  1817.04  1834.81  1856.48  1878.29
                             1910.20  1933.18  1965.20  2012.71  2030.75
                             2049.44  2147.68  2181.47  2207.93  2263.16
                             2364.07  2386.35  2393.85  2402.47  2622.14
                             4450.81  4520.53  4537.54  4601.72  4604.09
                             4629.56  4782.95  4908.17  4945.05  5305.21
                             5334.57  5339.05

 Zero-point correction=                           0.212976 (Hartree/Particle)
 Thermal correction to Energy=                    0.226391
 Thermal correction to Enthalpy=                  0.227335
 Thermal correction to Gibbs Free Energy=         0.172624
 Sum of electronic and zero-point Energies=           -705.496573
 Sum of electronic and thermal Energies=              -705.483158
 Sum of electronic and thermal Enthalpies=            -705.482214
 Sum of electronic and thermal Free Energies=         -705.536925

                     E (Thermal)             CV                S
                      KCal/Mol        Cal/Mol-Kelvin    Cal/Mol-Kelvin
 Total                  142.062             51.411            115.149
 Electronic               0.000              0.000              0.000
 Translational            0.889              2.981             41.755
 Rotational               0.889              2.981             32.098
 Vibrational            140.285             45.450             41.296
 Vibration     1          0.594              1.982              5.452
 Vibration     2          0.597              1.973              4.401
 Vibration     3          0.598              1.968              4.115
 Vibration     4          0.607              1.939              3.226
 Vibration     5          0.622              1.889              2.531
 Vibration     6          0.632              1.858              2.257
 Vibration     7          0.650              1.802              1.915
 Vibration     8          0.662              1.765              1.742
 Vibration     9          0.681              1.706              1.520
 Vibration    10          0.696              1.663              1.385
 Vibration    11          0.708              1.628              1.292
 Vibration    12          0.733              1.559              1.132
 Vibration    13          0.738              1.545              1.102
 Vibration    14          0.768              1.464              0.952
 Vibration    15          0.773              1.451              0.931
 Vibration    16          0.812              1.352              0.784
 Vibration    17          0.822              1.328              0.753
 Vibration    18          0.848              1.267              0.677
 Vibration    19          0.871              1.214              0.619
 Vibration    20          0.897              1.156              0.560
 Vibration    21          0.952              1.043              0.459
 Vibration    22          0.958              1.031              0.449

 Optimization completed.
    -- Stationary point found.
 Normal termination of Gaussian 16 at Sun Jul 18 14:13:31 2021.

 ----------------------------------------------------------------------
 #p b3lyp/6-31G(d) scrf=(iefpcm,read,solvent=water) geom=allcheck guess
 =read
 ----------------------------------------------------------------------

 Structure from the checkpoint file:  "SET_328_BBB292_conf1.geo_105_165_120.chk"
 ---------------------------------------------
 SET_328_BBB292_conf1.geo_105_165_120 geometry
 ---------------------------------------------
 Charge =  1 Multiplicity = 1

 SCF Done:  E(RB3LYP) =  -705.709548502     A.U. after    1 cycles
 Normal termination of Gaussian 16 at Sun Jul 18 14:13:38 2021.

 -----------------------------
 #p B3LYP/6-31G* geom=allcheck
 -----------------------------

 Structure from the checkpoint file:  "SET_328_BBB292_conf1.geo_105_165_120.chk"
 ---------------------------------------------
 SET_328_BBB292_conf1.geo_105_165_120 geometry
 ---------------------------------------------
 Charge =  1 Multiplicity = 1

 SCF Done:  E(RB3LYP) =  -705.554516176     A.U. after   15 cycles

 The electronic state is 1-A.
 Alpha  occ. eigenvalues --  -19.37360 -19.31167 -19.29596 -19.28617 -14.67983
 Alpha  occ. eigenvalues --  -10.49337 -10.45057 -10.37814 -10.37049 -10.36497
 Alpha  occ. eigenvalues --  -10.33506 -10.32972 -10.31737 -10.31023  -1.27737
 Alpha  occ. eigenvalues --   -1.22007  -1.19652  -1.18205  -1.16065  -0.99780
 Alpha  occ. eigenvalues --   -0.96430  -0.89242  -0.87242  -0.83002  -0.80941
 Alpha  occ. eigenvalues --   -0.80165  -0.79171  -0.76601  -0.73903  -0.71659
 Alpha  occ. eigenvalues --   -0.67638  -0.67446  -0.65880  -0.61758  -0.61101
 Alpha  occ. eigenvalues --   -0.59731  -0.58681  -0.57547  -0.56328  -0.55465
 Alpha  occ. eigenvalues --   -0.54869  -0.54305  -0.52610  -0.50467  -0.48930
 Alpha  occ. eigenvalues --   -0.48288  -0.47309  -0.46577  -0.45430  -0.43536
 Alpha  occ. eigenvalues --   -0.36993  -0.33348
 Alpha virt. eigenvalues --   -0.19082  -0.16499  -0.12890  -0.12280  -0.11815
 Alpha virt. eigenvalues --   -0.10028  -0.08789  -0.06387  -0.05794  -0.04170
 Alpha virt. eigenvalues --   -0.03397  -0.00342   0.01389   0.01998   0.03102

 Mulliken charges:
               1
     1  N   -0.749002
     2  H    0.428697
     3  H    0.433770
     4  C   -0.146416
     5  C    0.621470
     6  O   -0.514653
     7  H    0.401642
     8  O   -0.383908
     9  H    0.257471
    10  C   -0.387778
    11  H    0.251785
    12  H    0.177466
    13  C    0.131065
    14  C   -0.287865
    15  H    0.120998
    16  C    0.326964
    17  O   -0.655462
    18  H    0.428408
    19  C    0.338870
    20  O   -0.624930
    21  H    0.442321
    22  C   -0.163256
    23  H    0.183657
    24  C   -0.202481
    25  H    0.154208
    26  H    0.416957
 Sum of Mulliken charges =   1.00000

 Dipole moment (field-independent basis, Debye):
    X=              4.5363    Y=              8.5023    Z=              4.8524  Tot=             10.7894
 Quadrupole moment (field-independent basis, Debye-Ang):
   XX=            -65.7364   YY=            -59.4749   ZZ=            -70.3792
   XY=             10.9894   XZ=             16.1394   YZ=              2.1881

 Normal termination of Gaussian 16 at Sun Jul 18 14:14:09 2021.
 Gaussian 16:  ES64L-G16RevB.01 20-Dec-2017

 --------------------------------------------------------
 #p mp2/aug-cc-pVDZ scf=tight maxdisk=180GB geom=allcheck
 --------------------------------------------------------

 Structure from the checkpoint file:  "SET_328_BBB292_conf1.geo_105_165_120.chk"
 ---------------------------------------------
 SET_328_BBB292_conf1.geo_105_165_120 geometry
 ---------------------------------------------
 Charge =  1 Multiplicity = 1

                         Standard orientation:
 ---------------------------------------------------------------------
 Center     Atomic      Atomic             Coordinates (Angstroms)
 Number     Number       Type             X           Y           Z
 ---------------------------------------------------------------------
      1          7           0        1.780799    1.184330    1.154051
      2          1           0        2.320198    1.245704    2.032789
      3          1           0        0.781944    1.194969    1.415529
      4          6           0        2.086615   -0.065249    0.381529
      5          6           0        3.548759   -0.223450   -0.054647
      6          8           0        4.466332    0.717907    0.180336
      7          1           0        4.143554    1.518192    0.637492
      8          8           0        3.863433   -1.241333   -0.631647
      9          1           0        1.890760   -0.888560    1.069964
     10          6           0        1.152124   -0.180907   -0.840605
     11          1           0        1.491203   -1.066996   -1.380297
     12          1           0        1.313895    0.680751   -1.495653
     13          6           0       -0.309447   -0.297258   -0.472034
     14          6           0       -1.174529    0.793432   -0.650566
     15          1           0       -0.799893    1.722887   -1.069005
     16          6           0       -2.520157    0.695470   -0.309745
     17          8           0       -3.433649    1.701136   -0.452227
     18          1           0       -3.010581    2.490847   -0.834925
     19          6           0       -3.026810   -0.503698    0.221464
     20          8           0       -4.342553   -0.610790    0.557767
     21          1           0       -4.776937    0.240882    0.365863
     22          6           0       -2.173216   -1.589158    0.397527
     23          1           0       -2.579419   -2.511576    0.799874
     24          6           0       -0.824737   -1.487956    0.053017
     25          1           0       -0.176463   -2.348442    0.187434
     26          1           0        1.956036    2.048313    0.603106
 ---------------------------------------------------------------------

 SCF Done:  E(RHF) =  -701.562415180     A.U. after   16 cycles
