 Gaussian 16, Revision B.01,

 -----------------------------------------------------------
 #p b3lyp/6-31G(d) opt freq scrf=(iefpcm,read,solvent=water)
 -----------------------------------------------------------

 ---------------------------------------------
 SET_328_BBB321_conf1.geo_180_210_225 geometry
 ---------------------------------------------
 Symbolic Z-matrix:
 Charge =  1 Multiplicity = 1

 SCF Done:  E(RB3LYP) =  -1212.51247329     A.U. after   17 cycles
 SCF Done:  E(RB3LYP) =  -1212.64909124     A.U. after   13 cycles
 SCF Done:  E(RB3LYP) =  -1212.76995385     A.U. after   13 cycles
 SCF Done:  E(RB3LYP) =  -1212.80163946     A.U. after   13 cycles
 SCF Done:  E(RB3LYP) =  -1212.81262953     A.U. after   11 cycles
 SCF Done:  E(RB3LYP) =  -1212.81632974     A.U. after   14 cycles
 SCF Done:  E(RB3LYP) =  -1212.81980696     A.U. after   11 cycles
 SCF Done:  E(RB3LYP) =  -1212.82110303     A.U. after   11 cycles
 SCF Done:  E(RB3LYP) =  -1212.82163165     A.U. after   13 cycles
 SCF Done:  E(RB3LYP) =  -1212.82202385     A.U. after   10 cycles
 SCF Done:  E(RB3LYP) =  -1212.82227180     A.U. after    7 cycles
 SCF Done:  E(RB3LYP) =  -1212.82227001     A.U. after    7 cycles
 SCF Done:  E(RB3LYP) =  -1212.82226982     A.U. after    6 cycles
 SCF Done:  E(RB3LYP) =  -1212.82227039     A.U. after    7 cycles
 SCF Done:  E(RB3LYP) =  -1212.82227213     A.U. after    7 cycles
 SCF Done:  E(RB3LYP) =  -1212.82227813     A.U. after    8 cycles
 Optimization completed.
    -- Stationary point found.
 Normal termination of Gaussian 16 at Sun Jul 18 16:08:14 2021.

 --------------------------------------------------------------------
 #P Geom=AllCheck Guess=TCheck SCRF=Check GenChk RB3LYP/6-31G(d) Freq
 --------------------------------------------------------------------

 Structure from the checkpoint file:  "SET_328_BBB321_conf1.geo_180_210_225.chk"
 ---------------------------------------------
 SET_328_BBB321_conf1.geo_180_210_225 geometry
 ---------------------------------------------
 Charge =  1 Multiplicity = 1

 SCF Done:  E(RB3LYP) =  -1212.82227813     A.U. after    1 cycles

  Exact polarizability: 376.680   8.929 293.191  -1.819   4.956  94.233
 Approx polarizability: 384.793  18.419 352.769  -2.102   6.830 112.523

                      1                      2                      3
                      A                      A                      A
 Frequencies --     19.0333                37.9662                55.1126
 Red. masses --      4.5073                 5.2383                 5.5501
 Frc consts  --      0.0010                 0.0044                 0.0099
 IR Inten    --      9.9871                 6.3630                 8.2870

                      4                      5                      6
                      A                      A                      A
 Frequencies --     65.9914                73.3890                82.7851
 Red. masses --      1.7368                 3.4600                 5.7077
 Frc consts  --      0.0045                 0.0110                 0.0230
 IR Inten    --      1.8127                 0.2365                10.8770

                      7                      8                      9
                      A                      A                      A
 Frequencies --     89.2446               109.7214               128.7356
 Red. masses --      2.2123                 6.6269                 4.8436
 Frc consts  --      0.0104                 0.0470                 0.0473
 IR Inten    --      4.1595                 0.3933                 4.6367

                     10                     11                     12
                      A                      A                      A
 Frequencies --    177.9756               200.2535               242.9174
 Red. masses --      1.1676                 6.2451                 5.5051
 Frc consts  --      0.0218                 0.1476                 0.1914
 IR Inten    --    341.1433                21.0936                 5.3248

                     13                     14                     15
                      A                      A                      A
 Frequencies --    255.7003               261.2488               275.6768
 Red. masses --      4.1213                 4.9764                 4.2505
 Frc consts  --      0.1588                 0.2001                 0.1903
 IR Inten    --      0.0779                 8.7371                 5.1511

                     16                     17                     18
                      A                      A                      A
 Frequencies --    329.0701               344.5505               353.4954
 Red. masses --      4.9604                 1.3854                 6.1087
 Frc consts  --      0.3165                 0.0969                 0.4497
 IR Inten    --     38.0403               302.3017                 5.1716

                     19                     20                     21
                      A                      A                      A
 Frequencies --    355.8174               383.0870               387.7321
 Red. masses --      4.2292                 1.2381                 3.1756
 Frc consts  --      0.3155                 0.1071                 0.2813
 IR Inten    --      1.1125               180.3459                10.9843

                     22                     23                     24
                      A                      A                      A
 Frequencies --    454.1020               491.0815               505.1990
 Red. masses --      3.3133                 4.1395                 1.4864
 Frc consts  --      0.4025                 0.5882                 0.2235
 IR Inten    --      2.4926                 5.8462               119.4881

                     25                     26                     27
                      A                      A                      A
 Frequencies --    540.9925               549.2439               559.5682
 Red. masses --      3.4697                 2.6808                 2.3576
 Frc consts  --      0.5983                 0.4765                 0.4349
 IR Inten    --     50.8952                 0.5893                98.1793

                     28                     29                     30
                      A                      A                      A
 Frequencies --    574.6297               603.8400               615.7062
 Red. masses --      2.0974                 3.5078                 8.6114
 Frc consts  --      0.4081                 0.7536                 1.9234
 IR Inten    --     17.3531                10.5680                 1.2037

                     31                     32                     33
                      A                      A                      A
 Frequencies --    630.6069               649.5077               665.7512
 Red. masses --      1.6372                 1.1716                 6.2353
 Frc consts  --      0.3836                 0.2912                 1.6283
 IR Inten    --     36.1174                 6.2224                 5.7503

                     34                     35                     36
                      A                      A                      A
 Frequencies --    695.9029               699.2424               707.2196
 Red. masses --      3.5933                 2.0763                 3.3598
 Frc consts  --      1.0253                 0.5981                 0.9901
 IR Inten    --      0.0589                 2.7793                 3.3791

                     37                     38                     39
                      A                      A                      A
 Frequencies --    712.1205               743.5744               821.3212
 Red. masses --      5.8975                 1.8645                 1.5771
 Frc consts  --      1.7621                 0.6074                 0.6268
 IR Inten    --      8.1305                89.0181                27.3045

                     40                     41                     42
                      A                      A                      A
 Frequencies --    825.8782               863.3553               879.0420
 Red. masses --      4.9657                 5.6987                 2.5960
 Frc consts  --      1.9955                 2.5027                 1.1819
 IR Inten    --     36.5271                14.7962                39.3788

                     43                     44                     45
                      A                      A                      A
 Frequencies --    887.3145               925.9548               951.2651
 Red. masses --      2.3492                 1.3765                 5.3944
 Frc consts  --      1.0897                 0.6954                 2.8760
 IR Inten    --     22.4661                 0.4659                 3.7670

                     46                     47                     48
                      A                      A                      A
 Frequencies --    998.0296              1001.0871              1008.1150
 Red. masses --      1.2695                 3.5644                 4.2655
 Frc consts  --      0.7450                 2.1046                 2.5541
 IR Inten    --      2.4327                13.2094                25.3843

                     49                     50                     51
                      A                      A                      A
 Frequencies --   1014.3825              1039.9552              1060.6933
 Red. masses --      5.2266                 1.9476                 1.7049
 Frc consts  --      3.1686                 1.2410                 1.1301
 IR Inten    --      1.1723                36.4308                15.8468

                     52                     53                     54
                      A                      A                      A
 Frequencies --   1089.2446              1100.7924              1116.0285
 Red. masses --      1.4403                 1.7402                 1.5378
 Frc consts  --      1.0068                 1.2424                 1.1285
 IR Inten    --      5.1826                12.6069                39.3589

                     55                     56                     57
                      A                      A                      A
 Frequencies --   1135.4717              1190.8485              1226.8127
 Red. masses --      1.6620                 1.1110                 1.7022
 Frc consts  --      1.2625                 0.9283                 1.5095
 IR Inten    --      7.6073                 2.5773                16.4000

                     58                     59                     60
                      A                      A                      A
 Frequencies --   1251.9548              1272.2359              1299.5913
 Red. masses --      2.8645                 3.5222                 2.1932
 Frc consts  --      2.6453                 3.3589                 2.1824
 IR Inten    --    262.1931                44.1109               138.8057

                     61                     62                     63
                      A                      A                      A
 Frequencies --   1331.0019              1354.1255              1369.6513
 Red. masses --      2.4467                 2.3215                 5.0555
 Frc consts  --      2.5539                 2.5081                 5.5877
 IR Inten    --      7.9449               211.7675               177.4750

                     64                     65                     66
                      A                      A                      A
 Frequencies --   1418.4905              1460.7761              1487.6433
 Red. masses --      1.3135                 2.8233                 1.1118
 Frc consts  --      1.5572                 3.5496                 1.4496
 IR Inten    --     67.4228                36.9952                30.8488

                     67                     68                     69
                      A                      A                      A
 Frequencies --   1506.7123              1509.4588              1517.6378
 Red. masses --      1.7508                 1.0978                 2.8237
 Frc consts  --      2.3418                 1.4737                 3.8318
 IR Inten    --     53.3058                48.0444               307.2623

                     70                     71                     72
                      A                      A                      A
 Frequencies --   1542.8885              1567.0950              1590.8228
 Red. masses --      2.0703                 3.9048                 2.9872
 Frc consts  --      2.9037                 5.6498                 4.4541
 IR Inten    --    449.9749               224.2150               223.4607

                     73                     74                     75
                      A                      A                      A
 Frequencies --   1600.8097              1621.3584              1641.4765
 Red. masses --      2.5523                 1.5177                 1.6186
 Frc consts  --      3.8536                 2.3508                 2.5695
 IR Inten    --    290.0950               408.4336               947.8473

                     76                     77                     78
                      A                      A                      A
 Frequencies --   1648.4066              1663.7063              1715.9456
 Red. masses --      3.8184                 5.5211                 3.4284
 Frc consts  --      6.1130                 9.0038                 5.9477
 IR Inten    --     16.7171               259.0500               880.6781

                     79                     80                     81
                      A                      A                      A
 Frequencies --   1746.8645              3079.3557              3144.6164
 Red. masses --      6.3172                 1.0386                 1.1005
 Frc consts  --     11.3577                 5.8024                 6.4118
 IR Inten    --    398.1301                 5.3622                12.7128

                     82                     83                     84
                      A                      A                      A
 Frequencies --   3186.6593              3209.0507              3221.2175
 Red. masses --      1.1029                 1.0892                 1.0899
 Frc consts  --      6.5986                 6.6089                 6.6629
 IR Inten    --     18.0797                34.4531                18.2507

                     85                     86                     87
                      A                      A                      A
 Frequencies --   3237.6315              3288.7747              3303.3805
 Red. masses --      1.0926                 1.0916                 1.0946
 Frc consts  --      6.7481                 6.9562                 7.0378
 IR Inten    --     10.5836                 5.8954                 6.8416

                     88                     89                     90
                      A                      A                      A
 Frequencies --   3471.9638              3518.4843              3549.7969
 Red. masses --      1.0560                 1.0800                 1.0484
 Frc consts  --      7.5000                 7.8773                 7.7834
 IR Inten    --    476.2745               226.7742               376.5018

                     91                     92                     93
                      A                      A                      A
 Frequencies --   3577.5476              3639.5399              3661.6097
 Red. masses --      1.0783                 1.0991                 1.1084
 Frc consts  --      8.1312                 8.5777                 8.7555
 IR Inten    --    102.4640               396.5409               261.2514

 - Thermochemistry -
 -------------------
 Temperature   298.150 Kelvin.  Pressure   1.00000 Atm.
 Atom     1 has atomic number  6 and mass  12.00000

 Molecular mass:   276.09191 amu.
 Principal axes and moments of inertia in atomic units:
                           1         2         3
     Eigenvalues --  1997.03513********************
           X            0.99989  -0.01506  -0.00039
           Y            0.01506   0.99988   0.00405
           Z            0.00033  -0.00406   0.99999
 This molecule is an asymmetric top.
 Rotational symmetry number  1.
 Warning -- assumption of classical behavior for rotation
           may cause significant error
 Rotational temperatures (Kelvin)      0.04337     0.00623     0.00548
 Rotational constants (GHZ):           0.90371     0.12981     0.11420
 Zero-point vibrational energy     681702.0 (Joules/Mol)
                                  162.93068 (Kcal/Mol)
 Warning -- explicit consideration of  30 degrees of freedom as
           vibrations may cause significant error
 Vibrational temperatures:     27.38    54.62    79.29    94.95   105.59
          (Kelvin)            119.11   128.40   157.86   185.22   256.07
                              288.12   349.50   367.90   375.88   396.64
                              473.46   495.73   508.60   511.94   551.18
                              557.86   653.35   706.56   726.87   778.37
                              790.24   805.09   826.76   868.79   885.86
                              907.30   934.50   957.87  1001.25  1006.05
                             1017.53  1024.58  1069.84  1181.70  1188.25
                             1242.18  1264.75  1276.65  1332.24  1368.66
                             1435.94  1440.34  1450.45  1459.47  1496.26
                             1526.10  1567.18  1583.79  1605.72  1633.69
                             1713.37  1765.11  1801.28  1830.46  1869.82
                             1915.01  1948.28  1970.62  2040.89  2101.73
                             2140.39  2167.82  2171.77  2183.54  2219.87
                             2254.70  2288.84  2303.21  2332.77  2361.72
                             2371.69  2393.70  2468.86  2513.35  4430.51
                             4524.40  4584.89  4617.11  4634.61  4658.23
                             4731.81  4752.83  4995.38  5062.31  5107.37
                             5147.29  5236.49  5268.24

 Zero-point correction=                           0.259647 (Hartree/Particle)
 Thermal correction to Energy=                    0.278325
 Thermal correction to Enthalpy=                  0.279269
 Thermal correction to Gibbs Free Energy=         0.210930
 Sum of electronic and zero-point Energies=          -1212.562632
 Sum of electronic and thermal Energies=             -1212.543953
 Sum of electronic and thermal Enthalpies=           -1212.543009
 Sum of electronic and thermal Free Energies=        -1212.611348

                     E (Thermal)             CV                S
                      KCal/Mol        Cal/Mol-Kelvin    Cal/Mol-Kelvin
 Total                  174.652             70.039            143.833
 Electronic               0.000              0.000              0.000
 Translational            0.889              2.981             42.745
 Rotational               0.889              2.981             34.439
 Vibrational            172.874             64.077             66.649
 Vibration     1          0.593              1.986              6.733
 Vibration     2          0.594              1.982              5.362
 Vibration     3          0.596              1.976              4.625
 Vibration     4          0.597              1.970              4.269
 Vibration     5          0.599              1.967              4.060
 Vibration     6          0.600              1.961              3.824
 Vibration     7          0.602              1.957              3.677
 Vibration     8          0.606              1.941              3.274
 Vibration     9          0.611              1.925              2.965
 Vibration    10          0.628              1.869              2.350
 Vibration    11          0.638              1.840              2.131
 Vibration    12          0.659              1.774              1.781
 Vibration    13          0.666              1.753              1.691
 Vibration    14          0.669              1.744              1.653
 Vibration    15          0.677              1.718              1.560
 Vibration    16          0.712              1.617              1.265
 Vibration    17          0.723              1.586              1.191
 Vibration    18          0.730              1.568              1.151
 Vibration    19          0.731              1.563              1.140
 Vibration    20          0.752              1.506              1.027
 Vibration    21          0.756              1.496              1.009
 Vibration    22          0.813              1.352              0.783
 Vibration    23          0.847              1.270              0.681
 Vibration    24          0.860              1.238              0.645
 Vibration    25          0.896              1.159              0.563
 Vibration    26          0.905              1.141              0.546
 Vibration    27          0.915              1.119              0.525
 Vibration    28          0.931              1.086              0.495
 Vibration    29          0.962              1.024              0.443
 Vibration    30          0.975              0.999              0.423

                           ! Non-Optimized Parameters !
 Normal termination of Gaussian 16 at Sun Jul 18 16:18:18 2021.

 ----------------------------------------------------------------------
 #p b3lyp/6-31G(d) scrf=(iefpcm,read,solvent=water) geom=allcheck guess
 =read
 ----------------------------------------------------------------------

 Structure from the checkpoint file:  "SET_328_BBB321_conf1.geo_180_210_225.chk"
 ---------------------------------------------
 SET_328_BBB321_conf1.geo_180_210_225 geometry
 ---------------------------------------------
 Charge =  1 Multiplicity = 1

 SCF Done:  E(RB3LYP) =  -1212.82227813     A.U. after    1 cycles
 Normal termination of Gaussian 16 at Sun Jul 18 16:18:28 2021.

 -----------------------------
 #p B3LYP/6-31G* geom=allcheck
 -----------------------------

 Structure from the checkpoint file:  "SET_328_BBB321_conf1.geo_180_210_225.chk"
 ---------------------------------------------
 SET_328_BBB321_conf1.geo_180_210_225 geometry
 ---------------------------------------------
 Charge =  1 Multiplicity = 1

 SCF Done:  E(RB3LYP) =  -1212.69352683     A.U. after   17 cycles
 Normal termination of Gaussian 16 at Sun Jul 18 16:19:13 2021.
 Gaussian 16:  ES64L-G16RevB.01 20-Dec-2017

 --------------------------------------------------------
 #p mp2/aug-cc-pVDZ scf=tight maxdisk=180GB geom=allcheck
 --------------------------------------------------------

 Structure from the checkpoint file:  "SET_328_BBB321_conf1.geo_180_210_225.chk"
 ---------------------------------------------
 SET_328_BBB321_conf1.geo_180_210_225 geometry
 ---------------------------------------------
 Charge =  1 Multiplicity = 1

                         Standard orientation:
 ---------------------------------------------------------------------
 Center     Atomic      Atomic             Coordinates (Angstroms)
 Number     Number       Type             X           Y           Z
 ---------------------------------------------------------------------
      1          6           0        6.428864   -1.189915   -0.356351
      2          1           0        6.532579   -1.760539    0.572162
      3          1           0        7.392224   -0.743663   -0.601276
      4          1           0        6.138334   -1.886617   -1.146484
      5          6           0        5.409776   -0.081044   -0.171062
      6          8           0        5.741366    1.094257   -0.013523
      7          7           0        4.108995   -0.512512   -0.172365
      8          1           0        3.972056   -1.508217   -0.310148
      9          6           0        2.930418    0.233461    0.011510
     10          6           0        2.915406    1.624960    0.208894
     11          6           0        1.692048    2.275256    0.369033
     12          6           0        0.486464    1.576614    0.340067
     13          1           0       -0.457202    2.091702    0.471087
     14          1           0        1.684340    3.349927    0.520276
     15          1           0        3.848970    2.165632    0.230257
     16          6           0        1.720297   -0.469169   -0.017275
     17          1           0        1.736498   -1.540336   -0.181816
     18          6           0        0.495688    0.186310    0.149034
     19          6           0       -0.764815   -0.575964    0.129952
     20          7           0       -1.973796    0.105640    0.056734
     21          6           0       -0.882983   -1.936872    0.191427
     22          1           0       -0.105346   -2.679443    0.279241
     23         16           0       -2.549830   -2.419448    0.145603
     24          6           0       -2.980861   -0.717737    0.054692
     25          7           0       -4.313053   -0.352293   -0.024819
     26          6           0       -4.805610    0.909522   -0.204802
     27          7           0       -6.126854    1.047329   -0.254204
     28          1           0       -6.537928    1.963095   -0.405276
     29          1           0       -6.738977    0.238811   -0.209225
     30          7           0       -3.994083    1.948786   -0.322959
     31          1           0       -4.381012    2.878609   -0.450398
     32          1           0       -2.987206    1.810632   -0.249191
     33          1           0       -5.007595   -1.093660    0.051907
 ---------------------------------------------------------------------

 SCF Done:  E(RHF) =  -1207.15490125     A.U. after   18 cycles
 E2 =    -0.2816307827D+01 EUMP2 =    -0.12099712090747D+04

 The electronic state is 1-A.
 Alpha  occ. eigenvalues --  -92.13523 -20.60601 -15.81691 -15.80192 -15.78834
 Alpha  occ. eigenvalues --  -15.72118 -15.68995 -11.60836 -11.51501 -11.43981
 Alpha  occ. eigenvalues --  -11.41355 -11.39171 -11.38345 -11.35545 -11.33667
 Alpha  occ. eigenvalues --  -11.33176 -11.33054 -11.31939 -11.31256  -9.13689
 Alpha  occ. eigenvalues --   -6.81852  -6.81745  -6.81551  -1.55284  -1.45661
 Alpha  occ. eigenvalues --   -1.45548  -1.39631  -1.38880  -1.33896  -1.24550
 Alpha  occ. eigenvalues --   -1.20504  -1.16898  -1.11770  -1.10861  -1.06355
 Alpha  occ. eigenvalues --   -1.05309  -0.99646  -0.98829  -0.95253  -0.93794
 Alpha  occ. eigenvalues --   -0.91137  -0.89126  -0.86628  -0.85783  -0.84361
 Alpha  occ. eigenvalues --   -0.82911  -0.82029  -0.81078  -0.76740  -0.75207
 Alpha  occ. eigenvalues --   -0.72353  -0.72259  -0.70894  -0.69986  -0.69464
 Alpha  occ. eigenvalues --   -0.68267  -0.65799  -0.64347  -0.63916  -0.63204
 Alpha  occ. eigenvalues --   -0.62381  -0.61520  -0.61346  -0.58989  -0.58163
 Alpha  occ. eigenvalues --   -0.57997  -0.53247  -0.51916  -0.49522  -0.47531
 Alpha  occ. eigenvalues --   -0.40960  -0.38976
 Alpha virt. eigenvalues --   -0.09185  -0.07116  -0.05447  -0.04938  -0.04425
 Alpha virt. eigenvalues --   -0.03786  -0.03410  -0.02784  -0.02362  -0.01953
 Alpha virt. eigenvalues --   -0.01427  -0.00321  -0.00283   0.00110   0.00567

 Mulliken charges:
               1
     1  C    0.390658
     2  H    0.080448
     3  H   -0.057983
     4  H   -0.015931
     5  C    0.627185
     6  O   -0.831553
     7  N   -0.673492
     8  H   -0.044830
     9  C   -0.308001
    10  C    1.157626
    11  C   -0.127973
    12  C    0.709235
    13  H   -0.633266
    14  H   -0.517608
    15  H   -0.633511
    16  C    1.031274
    17  H   -0.761896
    18  C    1.719293
    19  C   -0.602344
    20  N   -0.679682
    21  C    0.430819
    22  H   -0.573022
    23  S    0.483152
    24  C    0.445191
    25  N   -0.701904
    26  C    1.369997
    27  N   -0.268403
    28  H    0.032232
    29  H    0.003412
    30  N   -0.177497
    31  H    0.011296
    32  H    0.120050
    33  H   -0.002969
 Sum of Mulliken charges =   1.00000

 Dipole moment (field-independent basis, Debye):
    X=            -20.2060    Y=             -0.9884    Z=             -1.3062  Tot=             20.2723
 Quadrupole moment (field-independent basis, Debye-Ang):
   XX=             14.9385   YY=            -88.1382   ZZ=           -123.6529
   XY=            -40.1838   XZ=              2.8816   YZ=             -1.4504

 Normal termination of Gaussian 16 at Sun Jul 18 16:52:01 2021.
