 Gaussian 16, Revision B.01,

 -----------------------------------------------------------
 #p b3lyp/6-31G(d) opt freq scrf=(iefpcm,read,solvent=water)
 -----------------------------------------------------------

 --------------------------------------------
 SET_328_BBB30_conf1.geo_060_075_270 geometry
 --------------------------------------------
 Symbolic Z-matrix:
 Charge =  1 Multiplicity = 1

 SCF Done:  E(RB3LYP) =  -445.284232435     A.U. after   12 cycles
 SCF Done:  E(RB3LYP) =  -445.314947071     A.U. after   11 cycles
 SCF Done:  E(RB3LYP) =  -445.325100445     A.U. after   11 cycles
 SCF Done:  E(RB3LYP) =  -445.327395864     A.U. after   10 cycles
 SCF Done:  E(RB3LYP) =  -445.327740928     A.U. after   10 cycles
 SCF Done:  E(RB3LYP) =  -445.327818822     A.U. after    9 cycles
 SCF Done:  E(RB3LYP) =  -445.327821186     A.U. after    8 cycles
 SCF Done:  E(RB3LYP) =  -445.327815196     A.U. after    8 cycles
 SCF Done:  E(RB3LYP) =  -445.327823326     A.U. after    8 cycles
 SCF Done:  E(RB3LYP) =  -445.327863219     A.U. after    8 cycles
 SCF Done:  E(RB3LYP) =  -445.328036522     A.U. after    9 cycles
 SCF Done:  E(RB3LYP) =  -445.328040357     A.U. after    7 cycles
 SCF Done:  E(RB3LYP) =  -445.328090562     A.U. after    9 cycles
 SCF Done:  E(RB3LYP) =  -445.328093117     A.U. after    8 cycles
 SCF Done:  E(RB3LYP) =  -445.328037663     A.U. after    9 cycles
 SCF Done:  E(RB3LYP) =  -445.328039618     A.U. after    6 cycles
 Optimization completed on the basis of negligible forces.
    -- Stationary point found.
 Normal termination of Gaussian 16 at Sun Jul 18 14:54:00 2021.

 --------------------------------------------------------------------
 #P Geom=AllCheck Guess=TCheck SCRF=Check GenChk RB3LYP/6-31G(d) Freq
 --------------------------------------------------------------------

 Structure from the checkpoint file:  "SET_328_BBB30_conf1.geo_060_075_270.chk"
 --------------------------------------------
 SET_328_BBB30_conf1.geo_060_075_270 geometry
 --------------------------------------------
 Charge =  1 Multiplicity = 1

 SCF Done:  E(RB3LYP) =  -445.328039618     A.U. after    1 cycles

  Exact polarizability: 169.404 -22.427 108.065   8.632  20.522 144.145
 Approx polarizability: 178.755 -25.729 118.082   9.801  26.165 166.519

                      1                      2                      3
                      A                      A                      A
 Frequencies --     52.4870                70.8192                90.6540
 Red. masses --      3.3649                 3.2980                 3.2011
 Frc consts  --      0.0055                 0.0097                 0.0155
 IR Inten    --      2.9203                 7.8020                 1.1707

                      4                      5                      6
                      A                      A                      A
 Frequencies --    130.6691               216.5717               224.1605
 Red. masses --      1.8694                 1.1777                 2.1104
 Frc consts  --      0.0188                 0.0325                 0.0625
 IR Inten    --      3.4876                 1.1013                 6.7404

                      7                      8                      9
                      A                      A                      A
 Frequencies --    241.6896               279.8252               314.2573
 Red. masses --      1.3547                 3.3136                 2.3903
 Frc consts  --      0.0466                 0.1529                 0.1391
 IR Inten    --      6.0028                 2.2586                 5.1061

                     10                     11                     12
                      A                      A                      A
 Frequencies --    351.6915               419.3227               437.8819
 Red. masses --      2.2709                 2.9331                 2.2753
 Frc consts  --      0.1655                 0.3039                 0.2570
 IR Inten    --      0.1421                 0.2007                 6.0853

                     13                     14                     15
                      A                      A                      A
 Frequencies --    458.7317               510.8049               609.4434
 Red. masses --      3.1705                 2.7096                 4.3458
 Frc consts  --      0.3931                 0.4166                 0.9510
 IR Inten    --      3.3473                 6.2653                 5.2247

                     16                     17                     18
                      A                      A                      A
 Frequencies --    634.5052               716.3708               752.2960
 Red. masses --      6.2858                 2.0335                 1.7765
 Frc consts  --      1.4910                 0.6149                 0.5924
 IR Inten    --      0.1449                30.2506                60.2046

                     19                     20                     21
                      A                      A                      A
 Frequencies --    795.2574               830.2264               860.4362
 Red. masses --      2.3096                 3.3376                 1.2121
 Frc consts  --      0.8606                 1.3554                 0.5287
 IR Inten    --      0.0450                 1.6064                36.8150

                     22                     23                     24
                      A                      A                      A
 Frequencies --    866.2778               917.3386               931.7037
 Red. masses --      1.2503                 1.4480                 1.7399
 Frc consts  --      0.5528                 0.7179                 0.8899
 IR Inten    --      0.0408                 3.5201                 0.6270

                     25                     26                     27
                      A                      A                      A
 Frequencies --    947.1243               980.0362              1007.9975
 Red. masses --      1.6786                 1.3574                 1.2608
 Frc consts  --      0.8872                 0.7682                 0.7548
 IR Inten    --      2.1987                 0.0076                 0.0901

                     28                     29                     30
                      A                      A                      A
 Frequencies --   1017.2141              1032.5358              1048.5352
 Red. masses --      6.1593                 3.4487                 1.9294
 Frc consts  --      3.7550                 2.1663                 1.2498
 IR Inten    --      0.5387                 6.5968                27.7469

                     31                     32                     33
                      A                      A                      A
 Frequencies --   1057.1133              1096.9561              1104.5250
 Red. masses --      2.1365                 1.6768                 1.5506
 Frc consts  --      1.4067                 1.1888                 1.1145
 IR Inten    --      9.8821                14.8402                30.0720

                     34                     35                     36
                      A                      A                      A
 Frequencies --   1130.4958              1164.8007              1188.7267
 Red. masses --      1.9828                 1.2192                 1.0923
 Frc consts  --      1.4930                 0.9746                 0.9094
 IR Inten    --     13.2609                 4.9477                 0.1134

                     37                     38                     39
                      A                      A                      A
 Frequencies --   1207.8182              1225.6578              1235.1705
 Red. masses --      1.1299                 1.6042                 2.6436
 Frc consts  --      0.9711                 1.4199                 2.3763
 IR Inten    --      0.3739                 5.8935                 0.1144

                     40                     41                     42
                      A                      A                      A
 Frequencies --   1278.8195              1327.3496              1357.2044
 Red. masses --      1.5406                 1.3310                 3.1991
 Frc consts  --      1.4844                 1.3816                 3.4719
 IR Inten    --      8.4539                 4.3460                 2.7782

                     43                     44                     45
                      A                      A                      A
 Frequencies --   1363.9959              1388.4440              1397.5156
 Red. masses --      1.5077                 1.3130                 1.3555
 Frc consts  --      1.6527                 1.4913                 1.5598
 IR Inten    --      1.3430                 2.8098                 7.6923

                     46                     47                     48
                      A                      A                      A
 Frequencies --   1434.8723              1452.9687              1478.0738
 Red. masses --      1.2807                 1.1476                 1.1514
 Frc consts  --      1.5536                 1.4274                 1.4820
 IR Inten    --      9.6011                20.1505                 6.6240

                     49                     50                     51
                      A                      A                      A
 Frequencies --   1488.9728              1499.3228              1510.0927
 Red. masses --      1.2167                 2.0261                 1.0970
 Frc consts  --      1.5893                 2.6836                 1.4739
 IR Inten    --     68.6101                 8.4175                 8.0214

                     52                     53                     54
                      A                      A                      A
 Frequencies --   1513.1256              1522.1004              1525.8608
 Red. masses --      1.0632                 1.0811                 1.0393
 Frc consts  --      1.4342                 1.4758                 1.4256
 IR Inten    --      6.3611                 1.0840                22.6813

                     55                     56                     57
                      A                      A                      A
 Frequencies --   1530.2994              1543.8508              1642.9075
 Red. masses --      1.0630                 2.2405                 5.5093
 Frc consts  --      1.4666                 3.1464                 8.7613
 IR Inten    --     42.7341                14.0822                 1.7271

                     58                     59                     60
                      A                      A                      A
 Frequencies --   1650.4564              1663.0970              3070.5384
 Red. masses --      1.0694                 5.6804                 1.0589
 Frc consts  --      1.7163                 9.2569                 5.8822
 IR Inten    --    135.1054                 4.0836                21.9286

                     61                     62                     63
                      A                      A                      A
 Frequencies --   3079.8260              3107.1213              3120.2428
 Red. masses --      1.0377                 1.0943                 1.0955
 Frc consts  --      5.7993                 6.2246                 6.2843
 IR Inten    --     31.3378                 3.6164                28.5974

                     64                     65                     66
                      A                      A                      A
 Frequencies --   3133.8375              3150.7815              3162.4059
 Red. masses --      1.0315                 1.1038                 1.1023
 Frc consts  --      5.9688                 6.4562                 6.4952
 IR Inten    --     15.0522                39.2686                25.7664

                     67                     68                     69
                      A                      A                      A
 Frequencies --   3198.0878              3200.5446              3210.2117
 Red. masses --      1.0859                 1.0875                 1.0905
 Frc consts  --      6.5438                 6.5631                 6.6214
 IR Inten    --     11.8471                 6.2954                17.6133

                     70                     71                     72
                      A                      A                      A
 Frequencies --   3216.4061              3222.5552              3228.3971
 Red. masses --      1.0943                 1.1082                 1.0977
 Frc consts  --      6.6698                 6.7809                 6.7408
 IR Inten    --     69.6761                 9.3244                28.9368

                     73                     74                     75
                      A                      A                      A
 Frequencies --   3250.5488              3400.0761              3444.7844
 Red. masses --      1.1077                 1.0575                 1.0934
 Frc consts  --      6.8957                 7.2029                 7.6444
 IR Inten    --      1.3573               123.1948               186.5733

 - Thermochemistry -
 -------------------
 Temperature   298.150 Kelvin.  Pressure   1.00000 Atm.
 Atom     1 has atomic number  6 and mass  12.00000

 Molecular mass:   150.12827 amu.
 Principal axes and moments of inertia in atomic units:
                           1         2         3
     Eigenvalues --   878.445112791.697822973.23170
           X            0.99996  -0.00865   0.00216
           Y            0.00864   0.99995   0.00393
           Z           -0.00219  -0.00391   0.99999
 This molecule is an asymmetric top.
 Rotational symmetry number  1.
 Warning -- assumption of classical behavior for rotation
           may cause significant error
 Rotational temperatures (Kelvin)      0.09860     0.03103     0.02913
 Rotational constants (GHZ):           2.05447     0.64647     0.60700
 Zero-point vibrational energy     651509.2 (Joules/Mol)
                                  155.71442 (Kcal/Mol)
 Warning -- explicit consideration of  15 degrees of freedom as
           vibrations may cause significant error
 Vibrational temperatures:     75.52   101.89   130.43   188.00   311.60
          (Kelvin)            322.52   347.74   402.61   452.15   506.01
                              603.31   630.01   660.01   734.93   876.85
                              912.91  1030.70  1082.39  1144.20  1194.51
                             1237.98  1246.38  1319.85  1340.51  1362.70
                             1410.05  1450.28  1463.54  1485.59  1508.61
                             1520.95  1578.28  1589.17  1626.53  1675.89
                             1710.31  1737.78  1763.45  1777.13  1839.94
                             1909.76  1952.71  1962.49  1997.66  2010.71
                             2064.46  2090.50  2126.62  2142.30  2157.19
                             2172.69  2177.05  2189.96  2195.37  2201.76
                             2221.26  2363.78  2374.64  2392.83  4417.82
                             4431.18  4470.45  4489.33  4508.89  4533.27
                             4550.00  4601.34  4604.87  4618.78  4627.69
                             4636.54  4644.94  4676.81  4891.95  4956.28

 Zero-point correction=                           0.248147 (Hartree/Particle)
 Thermal correction to Energy=                    0.259223
 Thermal correction to Enthalpy=                  0.260167
 Thermal correction to Gibbs Free Energy=         0.211121
 Sum of electronic and zero-point Energies=           -445.079893
 Sum of electronic and thermal Energies=              -445.068817
 Sum of electronic and thermal Enthalpies=            -445.067873
 Sum of electronic and thermal Free Energies=         -445.116919

                     E (Thermal)             CV                S
                      KCal/Mol        Cal/Mol-Kelvin    Cal/Mol-Kelvin
 Total                  162.665             42.391            103.227
 Electronic               0.000              0.000              0.000
 Translational            0.889              2.981             40.929
 Rotational               0.889              2.981             30.368
 Vibrational            160.887             36.429             31.930
 Vibration     1          0.596              1.977              4.721
 Vibration     2          0.598              1.968              4.130
 Vibration     3          0.602              1.956              3.646
 Vibration     4          0.612              1.923              2.936
 Vibration     5          0.645              1.816              1.988
 Vibration     6          0.649              1.804              1.925
 Vibration     7          0.658              1.776              1.790
 Vibration     8          0.680              1.711              1.535
 Vibration     9          0.702              1.646              1.340
 Vibration    10          0.728              1.572              1.159
 Vibration    11          0.782              1.428              0.894
 Vibration    12          0.798              1.388              0.833
 Vibration    13          0.817              1.342              0.770
 Vibration    14          0.866              1.226              0.632
 Vibration    15          0.968              1.012              0.434

 Optimization completed.
    -- Stationary point found.
 Normal termination of Gaussian 16 at Sun Jul 18 14:58:41 2021.

 ----------------------------------------------------------------------
 #p b3lyp/6-31G(d) scrf=(iefpcm,read,solvent=water) geom=allcheck guess
 =read
 ----------------------------------------------------------------------

 Structure from the checkpoint file:  "SET_328_BBB30_conf1.geo_060_075_270.chk"
 --------------------------------------------
 SET_328_BBB30_conf1.geo_060_075_270 geometry
 --------------------------------------------
 Charge =  1 Multiplicity = 1

 SCF Done:  E(RB3LYP) =  -445.328039618     A.U. after    1 cycles
 Normal termination of Gaussian 16 at Sun Jul 18 14:58:46 2021.

 -----------------------------
 #p B3LYP/6-31G* geom=allcheck
 -----------------------------

 Structure from the checkpoint file:  "SET_328_BBB30_conf1.geo_060_075_270.chk"
 --------------------------------------------
 SET_328_BBB30_conf1.geo_060_075_270 geometry
 --------------------------------------------
 Charge =  1 Multiplicity = 1

 SCF Done:  E(RB3LYP) =  -445.226486257     A.U. after   13 cycles
 Normal termination of Gaussian 16 at Sun Jul 18 14:59:07 2021.
 Gaussian 16:  ES64L-G16RevB.01 20-Dec-2017

 --------------------------------------------------------
 #p mp2/aug-cc-pVDZ scf=tight maxdisk=180GB geom=allcheck
 --------------------------------------------------------

 Structure from the checkpoint file:  "SET_328_BBB30_conf1.geo_060_075_270.chk"
 --------------------------------------------
 SET_328_BBB30_conf1.geo_060_075_270 geometry
 --------------------------------------------
 Charge =  1 Multiplicity = 1

                         Standard orientation:
 ---------------------------------------------------------------------
 Center     Atomic      Atomic             Coordinates (Angstroms)
 Number     Number       Type             X           Y           Z
 ---------------------------------------------------------------------
      1          6           0        1.125750    2.024066   -0.678322
      2          1           0        1.292011    3.043743   -0.336232
      3          1           0        0.096695    1.725740   -0.504855
      4          1           0        1.378713    1.935017   -1.733120
      5          7           0        2.031744    1.124259    0.098234
      6          1           0        1.853241    1.249629    1.105755
      7          6           0        1.967140   -0.358372   -0.240730
      8          6           0        3.329361   -0.978339    0.054070
      9          1           0        4.118749   -0.514693   -0.542789
     10          1           0        3.301692   -2.042230   -0.189693
     11          1           0        3.585870   -0.879373    1.112348
     12          1           0        1.759795   -0.398602   -1.313149
     13          6           0        0.853028   -1.063451    0.553867
     14          1           0        1.071249   -0.960794    1.622199
     15          1           0        0.955770   -2.127888    0.318003
     16          6           0       -0.570371   -0.622429    0.286418
     17          6           0       -1.198256   -0.899126   -0.936942
     18          1           0       -0.658844   -1.438878   -1.708940
     19          6           0       -2.510448   -0.489548   -1.172178
     20          1           0       -2.980809   -0.711161   -2.124568
     21          6           0       -3.220319    0.197897   -0.183927
     22          1           0       -4.241652    0.514471   -0.366989
     23          6           0       -2.609827    0.468273    1.041498
     24          1           0       -3.154517    0.994802    1.818631
     25          6           0       -1.295156    0.057879    1.272131
     26          1           0       -0.822613    0.264389    2.227474
     27          1           0        2.997038    1.454920   -0.047028
 ---------------------------------------------------------------------

 SCF Done:  E(RHF) =  -442.293351558     A.U. after   15 cycles
 E2 =    -0.1587081350D+01 EUMP2 =    -0.44388043290734D+03

 The electronic state is 1-A.
 Alpha  occ. eigenvalues --  -15.86693 -11.46385 -11.45071 -11.39458 -11.39004
 Alpha  occ. eigenvalues --  -11.37621 -11.36290 -11.36153 -11.35886 -11.35869
 Alpha  occ. eigenvalues --  -11.35467  -1.48863  -1.28325  -1.23721  -1.16619
 Alpha  occ. eigenvalues --   -1.13547  -1.11872  -1.08036  -1.00871  -0.95061
 Alpha  occ. eigenvalues --   -0.94320  -0.92223  -0.84426  -0.83769  -0.81678
 Alpha  occ. eigenvalues --   -0.76946  -0.75748  -0.74633  -0.73956  -0.73231
 Alpha  occ. eigenvalues --   -0.71540  -0.70454  -0.69159  -0.68675  -0.67096
 Alpha  occ. eigenvalues --   -0.65903  -0.61077  -0.60873  -0.60710  -0.45613
 Alpha  occ. eigenvalues --   -0.45090
 Alpha virt. eigenvalues --   -0.08999  -0.06865  -0.05911  -0.05582  -0.03911
 Alpha virt. eigenvalues --   -0.03755  -0.03378  -0.03320  -0.03249  -0.01946
 Alpha virt. eigenvalues --   -0.01452  -0.01141  -0.00793  -0.00513   0.00046

 Mulliken charges:
               1
     1  C    0.893495
     2  H   -0.172574
     3  H   -0.050949
     4  H   -0.100315
     5  N   -0.443604
     6  H    0.204496
     7  C   -0.384429
     8  C    0.891142
     9  H   -0.065477
    10  H   -0.025592
    11  H   -0.010909
    12  H   -0.434471
    13  C    0.593605
    14  H   -0.235955
    15  H   -0.110635
    16  C    1.121507
    17  C    0.453191
    18  H   -0.718030
    19  C    0.133641
    20  H   -0.451780
    21  C    0.676913
    22  H   -0.423723
    23  C    0.185150
    24  H   -0.439855
    25  C    0.410585
    26  H   -0.675680
    27  H    0.180253
 Sum of Mulliken charges =   1.00000

 Dipole moment (field-independent basis, Debye):
    X=              7.1931    Y=              3.5631    Z=             -0.1554  Tot=              8.0287
 Quadrupole moment (field-independent basis, Debye-Ang):
   XX=            -35.0555   YY=            -56.2290   ZZ=            -58.9985
   XY=              4.1143   XZ=              1.4641   YZ=              2.4081

 Normal termination of Gaussian 16 at Sun Jul 18 15:06:12 2021.
