 Gaussian 16, Revision B.01,

 -----------------------------------------------------------
 #p b3lyp/6-31G(d) opt freq scrf=(iefpcm,read,solvent=water)
 -----------------------------------------------------------

 ---------------------------------------------
 SET_328_BBB321_conf1.geo_030_015_045 geometry
 ---------------------------------------------
 Symbolic Z-matrix:
 Charge =  1 Multiplicity = 1

 SCF Done:  E(RB3LYP) =  -1212.48515946     A.U. after   16 cycles
 SCF Done:  E(RB3LYP) =  -1212.60613275     A.U. after   14 cycles
 SCF Done:  E(RB3LYP) =  -1212.71593688     A.U. after   13 cycles
 SCF Done:  E(RB3LYP) =  -1212.76175258     A.U. after   13 cycles
 SCF Done:  E(RB3LYP) =  -1212.78513620     A.U. after   13 cycles
 SCF Done:  E(RB3LYP) =  -1212.79179142     A.U. after   11 cycles
 SCF Done:  E(RB3LYP) =  -1212.79647887     A.U. after   11 cycles
 SCF Done:  E(RB3LYP) =  -1212.80032858     A.U. after   11 cycles
 SCF Done:  E(RB3LYP) =  -1212.80776584     A.U. after   13 cycles
 SCF Done:  E(RB3LYP) =  -1212.81120147     A.U. after   11 cycles
 SCF Done:  E(RB3LYP) =  -1212.81740154     A.U. after    7 cycles
 SCF Done:  E(RB3LYP) =  -1212.81740176     A.U. after    7 cycles
 SCF Done:  E(RB3LYP) =  -1212.81740166     A.U. after    6 cycles
 SCF Done:  E(RB3LYP) =  -1212.81740125     A.U. after    6 cycles
 SCF Done:  E(RB3LYP) =  -1212.81740146     A.U. after    6 cycles
 SCF Done:  E(RB3LYP) =  -1212.81740139     A.U. after    5 cycles
 Optimization completed.
    -- Stationary point found.
 Normal termination of Gaussian 16 at Sun Jul 18 15:40:16 2021.

 --------------------------------------------------------------------
 #P Geom=AllCheck Guess=TCheck SCRF=Check GenChk RB3LYP/6-31G(d) Freq
 --------------------------------------------------------------------

 Structure from the checkpoint file:  "SET_328_BBB321_conf1.geo_030_015_045.chk"
 ---------------------------------------------
 SET_328_BBB321_conf1.geo_030_015_045 geometry
 ---------------------------------------------
 Charge =  1 Multiplicity = 1

 SCF Done:  E(RB3LYP) =  -1212.81740139     A.U. after    1 cycles

  Exact polarizability: 363.261  -8.370 305.622   1.885   9.208 102.393
 Approx polarizability: 387.752  -2.518 351.311   1.064   9.420 120.629

                      1                      2                      3
                      A                      A                      A
 Frequencies --     31.8284                53.8580                54.7247
 Red. masses --      6.5018                 5.8167                 5.4923
 Frc consts  --      0.0039                 0.0099                 0.0097
 IR Inten    --      5.1458                22.8736                14.6124

                      4                      5                      6
                      A                      A                      A
 Frequencies --     73.4189                86.2961                96.4460
 Red. masses --      4.9576                 2.3849                 4.4272
 Frc consts  --      0.0157                 0.0105                 0.0243
 IR Inten    --      9.0654                 1.7507                 2.1469

                      7                      8                      9
                      A                      A                      A
 Frequencies --    104.0605               113.8133               138.3458
 Red. masses --      2.6535                 1.7134                 5.4041
 Frc consts  --      0.0169                 0.0131                 0.0609
 IR Inten    --      1.5915                 1.4387                 0.5684

                     10                     11                     12
                      A                      A                      A
 Frequencies --    191.6151               245.7962               253.4427
 Red. masses --      5.7656                 3.3345                 1.4779
 Frc consts  --      0.1247                 0.1187                 0.0559
 IR Inten    --      3.6739                98.3411               331.9256

                     13                     14                     15
                      A                      A                      A
 Frequencies --    262.0096               271.4474               282.9288
 Red. masses --      4.2993                 5.9808                 5.5594
 Frc consts  --      0.1739                 0.2596                 0.2622
 IR Inten    --     23.6977                 3.1683                15.3742

                     16                     17                     18
                      A                      A                      A
 Frequencies --    296.1041               345.1809               370.3853
 Red. masses --      5.5576                 4.8323                 5.5634
 Frc consts  --      0.2871                 0.3392                 0.4497
 IR Inten    --      5.4162                 5.2530                 3.9871

                     19                     20                     21
                      A                      A                      A
 Frequencies --    398.2910               450.0617               460.5238
 Red. masses --      5.3108                 1.5938                 1.6503
 Frc consts  --      0.4964                 0.1902                 0.2062
 IR Inten    --      0.7427                11.7551                17.1553

                     22                     23                     24
                      A                      A                      A
 Frequencies --    485.8046               506.7414               539.2622
 Red. masses --      3.9215                 1.1673                 3.8915
 Frc consts  --      0.5453                 0.1766                 0.6668
 IR Inten    --      5.0956               196.2737                24.5173

                     25                     26                     27
                      A                      A                      A
 Frequencies --    547.5306               560.6544               577.3508
 Red. masses --      2.6014                 3.1799                 1.8457
 Frc consts  --      0.4595                 0.5889                 0.3625
 IR Inten    --    101.9920                24.9640                47.6558

                     28                     29                     30
                      A                      A                      A
 Frequencies --    584.8285               606.1591               614.1620
 Red. masses --      1.9944                 3.2090                 1.2396
 Frc consts  --      0.4019                 0.6947                 0.2755
 IR Inten    --    194.2194                22.2562                70.3434

                     31                     32                     33
                      A                      A                      A
 Frequencies --    652.7767               653.5279               671.1228
 Red. masses --      1.5560                 4.3140                 4.6988
 Frc consts  --      0.3907                 1.0856                 1.2469
 IR Inten    --     39.3724                35.3002                61.5009

                     34                     35                     36
                      A                      A                      A
 Frequencies --    679.3075               698.5967               701.9976
 Red. masses --      4.9070                 3.4645                 3.8488
 Frc consts  --      1.3341                 0.9962                 1.1175
 IR Inten    --     12.2801                18.8339                35.6506

                     37                     38                     39
                      A                      A                      A
 Frequencies --    711.5502               752.1525               758.7144
 Red. masses --      1.9988                 2.9445                 2.5445
 Frc consts  --      0.5963                 0.9815                 0.8630
 IR Inten    --      0.6602                46.1400                53.0208

                     40                     41                     42
                      A                      A                      A
 Frequencies --    805.8955               833.4511               892.8933
 Red. masses --      1.8380                 6.9390                 4.6513
 Frc consts  --      0.7033                 2.8399                 2.1849
 IR Inten    --     32.7292                46.8060                 4.0553

                     43                     44                     45
                      A                      A                      A
 Frequencies --    898.2531               955.5046               964.2221
 Red. masses --      1.4329                 1.3904                 4.4585
 Frc consts  --      0.6812                 0.7479                 2.4422
 IR Inten    --      0.9614                22.8601                 3.7482

                     46                     47                     48
                      A                      A                      A
 Frequencies --    974.6904               975.7899              1012.3705
 Red. masses --      4.4856                 1.2849                 5.8990
 Frc consts  --      2.5107                 0.7208                 3.5621
 IR Inten    --      5.9353                 0.9301                 1.1362

                     49                     50                     51
                      A                      A                      A
 Frequencies --   1035.0293              1049.0737              1066.3170
 Red. masses --      1.8512                 2.8336                 1.6830
 Frc consts  --      1.1685                 1.8374                 1.1275
 IR Inten    --     28.6106                 1.8578                20.4727

                     52                     53                     54
                      A                      A                      A
 Frequencies --   1087.5812              1101.2695              1121.3833
 Red. masses --      1.3683                 1.9364                 1.5951
 Frc consts  --      0.9536                 1.3837                 1.1818
 IR Inten    --      5.3130                41.8346                14.9335

                     55                     56                     57
                      A                      A                      A
 Frequencies --   1135.9628              1198.5163              1205.0078
 Red. masses --      1.5530                 1.1406                 1.7547
 Frc consts  --      1.1807                 0.9654                 1.5012
 IR Inten    --      9.2870                 7.1203                23.7878

                     58                     59                     60
                      A                      A                      A
 Frequencies --   1269.9717              1300.8885              1302.2147
 Red. masses --      2.4509                 2.1728                 2.5095
 Frc consts  --      2.3290                 2.1665                 2.5073
 IR Inten    --     43.5796               276.1046               136.5913

                     61                     62                     63
                      A                      A                      A
 Frequencies --   1313.6503              1362.8092              1375.6712
 Red. masses --      3.6458                 2.7687                 6.2562
 Frc consts  --      3.7068                 3.0296                 6.9757
 IR Inten    --    145.5786                 9.2602                80.7284

                     64                     65                     66
                      A                      A                      A
 Frequencies --   1422.8499              1436.3287              1457.0603
 Red. masses --      1.2629                 1.6115                 3.2772
 Frc consts  --      1.5064                 1.9589                 4.0992
 IR Inten    --     30.1041               155.9359               292.6457

                     67                     68                     69
                      A                      A                      A
 Frequencies --   1490.0342              1509.7220              1526.9374
 Red. masses --      1.0808                 1.0853                 2.3945
 Frc consts  --      1.4138                 1.4574                 3.2894
 IR Inten    --     14.1139                21.9735                37.4130

                     70                     71                     72
                      A                      A                      A
 Frequencies --   1555.2451              1567.5580              1579.4921
 Red. masses --      3.9070                 2.3939                 2.4024
 Frc consts  --      5.5679                 3.4657                 3.5312
 IR Inten    --    230.9809               227.4864                75.8593

                     73                     74                     75
                      A                      A                      A
 Frequencies --   1593.3627              1610.1363              1638.4651
 Red. masses --      2.2864                 2.2640                 1.4212
 Frc consts  --      3.4201                 3.4582                 2.2478
 IR Inten    --    326.1959               761.9214               594.9441

                     76                     77                     78
                      A                      A                      A
 Frequencies --   1643.4695              1663.2095              1701.3706
 Red. masses --      5.7664                 4.5487                 3.3288
 Frc consts  --      9.1765                 7.4136                 5.6772
 IR Inten    --    166.5746                54.7389              1022.8746

                     79                     80                     81
                      A                      A                      A
 Frequencies --   1742.5077              3075.4217              3146.2890
 Red. masses --      6.7170                 1.0405                 1.0963
 Frc consts  --     12.0164                 5.7986                 6.3938
 IR Inten    --    376.2418                 7.2163                15.5898

                     82                     83                     84
                      A                      A                      A
 Frequencies --   3177.9316              3200.1815              3215.5127
 Red. masses --      1.1048                 1.0888                 1.0903
 Frc consts  --      6.5741                 6.5697                 6.6417
 IR Inten    --     20.6879                11.3260                28.8636

                     85                     86                     87
                      A                      A                      A
 Frequencies --   3229.8285              3293.4744              3295.4374
 Red. masses --      1.0952                 1.0947                 1.0897
 Frc consts  --      6.7317                 6.9958                 6.9721
 IR Inten    --     34.5018                 4.1886                10.2830

                     88                     89                     90
                      A                      A                      A
 Frequencies --   3514.3691              3528.7578              3539.6136
 Red. masses --      1.0469                 1.0663                 1.0590
 Frc consts  --      7.6181                 7.8232                 7.8174
 IR Inten    --    359.8093               200.5140               415.9118

                     91                     92                     93
                      A                      A                      A
 Frequencies --   3567.1887              3617.0909              3646.1575
 Red. masses --      1.0790                 1.1049                 1.1091
 Frc consts  --      8.0893                 8.5171                 8.6872
 IR Inten    --    101.6600               233.3560               254.0893

 - Thermochemistry -
 -------------------
 Temperature   298.150 Kelvin.  Pressure   1.00000 Atm.
 Atom     1 has atomic number  6 and mass  12.00000

 Molecular mass:   276.09191 amu.
 Principal axes and moments of inertia in atomic units:
                           1         2         3
     Eigenvalues --  3237.32667********************
           X            1.00000  -0.00278   0.00122
           Y            0.00278   0.99999   0.00385
           Z           -0.00124  -0.00384   0.99999
 This molecule is an asymmetric top.
 Rotational symmetry number  1.
 Warning -- assumption of classical behavior for rotation
           may cause significant error
 Rotational temperatures (Kelvin)      0.02675     0.00797     0.00620
 Rotational constants (GHZ):           0.55748     0.16611     0.12922
 Zero-point vibrational energy     683703.1 (Joules/Mol)
                                  163.40897 (Kcal/Mol)
 Warning -- explicit consideration of  30 degrees of freedom as
           vibrations may cause significant error
 Vibrational temperatures:     45.79    77.49    78.74   105.63   124.16
          (Kelvin)            138.76   149.72   163.75   199.05   275.69
                              353.65   364.65   376.97   390.55   407.07
                              426.03   496.64   532.90   573.05   647.54
                              662.59   698.96   729.09   775.88   787.77
                              806.66   830.68   841.44   872.13   883.64
                              939.20   940.28   965.60   977.37  1005.12
                             1010.02  1023.76  1082.18  1091.62  1159.50
                             1199.15  1284.67  1292.39  1374.76  1387.30
                             1402.36  1403.94  1456.58  1489.18  1509.38
                             1534.19  1564.79  1584.48  1613.42  1634.40
                             1724.40  1733.74  1827.21  1871.69  1873.60
                             1890.05  1960.78  1979.28  2047.16  2066.56
                             2096.38  2143.83  2172.15  2196.92  2237.65
                             2255.37  2272.54  2292.49  2316.63  2357.39
                             2364.59  2392.99  2447.89  2507.08  4424.85
                             4526.81  4572.33  4604.35  4626.41  4647.00
                             4738.58  4741.40  5056.39  5077.10  5092.71
                             5132.39  5204.19  5246.01

 Zero-point correction=                           0.260409 (Hartree/Particle)
 Thermal correction to Energy=                    0.278541
 Thermal correction to Enthalpy=                  0.279485
 Thermal correction to Gibbs Free Energy=         0.213269
 Sum of electronic and zero-point Energies=          -1212.556993
 Sum of electronic and thermal Energies=             -1212.538861
 Sum of electronic and thermal Enthalpies=           -1212.537916
 Sum of electronic and thermal Free Energies=        -1212.604132

                     E (Thermal)             CV                S
                      KCal/Mol        Cal/Mol-Kelvin    Cal/Mol-Kelvin
 Total                  174.787             69.270            139.363
 Electronic               0.000              0.000              0.000
 Translational            0.889              2.981             42.745
 Rotational               0.889              2.981             34.551
 Vibrational            173.010             63.309             62.067
 Vibration     1          0.594              1.983              5.712
 Vibration     2          0.596              1.976              4.670
 Vibration     3          0.596              1.976              4.639
 Vibration     4          0.599              1.967              4.060
 Vibration     5          0.601              1.959              3.742
 Vibration     6          0.603              1.952              3.525
 Vibration     7          0.605              1.946              3.377
 Vibration     8          0.607              1.938              3.203
 Vibration     9          0.614              1.915              2.827
 Vibration    10          0.634              1.851              2.212
 Vibration    11          0.660              1.770              1.761
 Vibration    12          0.665              1.757              1.707
 Vibration    13          0.669              1.742              1.648
 Vibration    14          0.675              1.726              1.587
 Vibration    15          0.682              1.705              1.516
 Vibration    16          0.690              1.681              1.439
 Vibration    17          0.724              1.585              1.188
 Vibration    18          0.742              1.533              1.078
 Vibration    19          0.765              1.474              0.969
 Vibration    20          0.809              1.361              0.796
 Vibration    21          0.818              1.338              0.765
 Vibration    22          0.842              1.282              0.695
 Vibration    23          0.862              1.235              0.641
 Vibration    24          0.894              1.163              0.567
 Vibration    25          0.903              1.145              0.549
 Vibration    26          0.916              1.116              0.523
 Vibration    27          0.934              1.080              0.490
 Vibration    28          0.942              1.064              0.476
 Vibration    29          0.965              1.019              0.439
 Vibration    30          0.974              1.002              0.426

                           ! Non-Optimized Parameters !
 Normal termination of Gaussian 16 at Sun Jul 18 15:50:12 2021.

 ----------------------------------------------------------------------
 #p b3lyp/6-31G(d) scrf=(iefpcm,read,solvent=water) geom=allcheck guess
 =read
 ----------------------------------------------------------------------

 Structure from the checkpoint file:  "SET_328_BBB321_conf1.geo_030_015_045.chk"
 ---------------------------------------------
 SET_328_BBB321_conf1.geo_030_015_045 geometry
 ---------------------------------------------
 Charge =  1 Multiplicity = 1

 SCF Done:  E(RB3LYP) =  -1212.81740139     A.U. after    3 cycles
 Normal termination of Gaussian 16 at Sun Jul 18 15:50:30 2021.

 -----------------------------
 #p B3LYP/6-31G* geom=allcheck
 -----------------------------

 Structure from the checkpoint file:  "SET_328_BBB321_conf1.geo_030_015_045.chk"
 ---------------------------------------------
 SET_328_BBB321_conf1.geo_030_015_045 geometry
 ---------------------------------------------
 Charge =  1 Multiplicity = 1

 SCF Done:  E(RB3LYP) =  -1212.68511228     A.U. after   17 cycles
 Normal termination of Gaussian 16 at Sun Jul 18 15:51:14 2021.
 Gaussian 16:  ES64L-G16RevB.01 20-Dec-2017

 --------------------------------------------------------
 #p mp2/aug-cc-pVDZ scf=tight maxdisk=180GB geom=allcheck
 --------------------------------------------------------

 Structure from the checkpoint file:  "SET_328_BBB321_conf1.geo_030_015_045.chk"
 ---------------------------------------------
 SET_328_BBB321_conf1.geo_030_015_045 geometry
 ---------------------------------------------
 Charge =  1 Multiplicity = 1

                         Standard orientation:
 ---------------------------------------------------------------------
 Center     Atomic      Atomic             Coordinates (Angstroms)
 Number     Number       Type             X           Y           Z
 ---------------------------------------------------------------------
      1          6           0       -5.038980   -2.943558    0.057526
      2          1           0       -5.931855   -2.457289    0.454616
      3          1           0       -4.819665   -3.836719    0.644267
      4          1           0       -5.245969   -3.258892   -0.971303
      5          6           0       -3.818380   -2.044120    0.064959
      6          8           0       -2.676725   -2.506314    0.044172
      7          7           0       -4.101950   -0.704751    0.068466
      8          1           0       -5.087186   -0.460001    0.082060
      9          6           0       -3.220062    0.392521    0.030509
     10          6           0       -3.789584    1.676015    0.030651
     11          6           0       -2.968604    2.800332   -0.005228
     12          6           0       -1.582318    2.669733   -0.040973
     13          1           0       -0.958556    3.555806   -0.068991
     14          1           0       -3.417397    3.787918   -0.005208
     15          1           0       -4.868520    1.790793    0.058648
     16          6           0       -1.826379    0.256042   -0.004062
     17          1           0       -1.385771   -0.728436   -0.003032
     18          6           0       -1.003611    1.390932   -0.039692
     19          6           0        0.461201    1.216360   -0.073695
     20          7           0        0.991220   -0.065661   -0.057162
     21          6           0        1.395690    2.216348   -0.104763
     22          1           0        1.250186    3.286071   -0.089879
     23         16           0        3.003166    1.565144   -0.125396
     24          6           0        2.290170   -0.043115   -0.073933
     25          7           0        3.016857   -1.225195   -0.164353
     26          6           0        4.338366   -1.419940    0.078418
     27          7           0        4.912932   -2.499432   -0.428784
     28          1           0        5.870804   -2.732714   -0.183585
     29          1           0        4.434228   -3.063569   -1.124847
     30          7           0        5.038868   -0.526145    0.782229
     31          1           0        4.576335    0.004453    1.515838
     32          1           0        6.030230   -0.707910    0.923687
     33          1           0        2.485734   -2.028318   -0.500373
 ---------------------------------------------------------------------

 SCF Done:  E(RHF) =  -1207.14694510     A.U. after   17 cycles
 E2 =    -0.2817485179D+01 EUMP2 =    -0.12099644302750D+04

 The electronic state is 1-A.
 Alpha  occ. eigenvalues --  -92.12830 -20.60599 -15.80784 -15.80718 -15.79991
 Alpha  occ. eigenvalues --  -15.70629 -15.68779 -11.61221 -11.49806 -11.44079
 Alpha  occ. eigenvalues --  -11.40143 -11.38205 -11.37527 -11.34357 -11.32719
 Alpha  occ. eigenvalues --  -11.32464 -11.32347 -11.31582 -11.31380  -9.12994
 Alpha  occ. eigenvalues --   -6.81155  -6.81054  -6.80862  -1.55300  -1.45710
 Alpha  occ. eigenvalues --   -1.44941  -1.40003  -1.38064  -1.33535  -1.23670
 Alpha  occ. eigenvalues --   -1.19401  -1.16092  -1.11107  -1.09925  -1.06361
 Alpha  occ. eigenvalues --   -1.05178  -0.99264  -0.98112  -0.94289  -0.93808
 Alpha  occ. eigenvalues --   -0.90506  -0.88810  -0.87280  -0.86019  -0.84792
 Alpha  occ. eigenvalues --   -0.81930  -0.80314  -0.79190  -0.76051  -0.74957
 Alpha  occ. eigenvalues --   -0.72368  -0.71511  -0.69847  -0.69345  -0.68807
 Alpha  occ. eigenvalues --   -0.67425  -0.65881  -0.64208  -0.63243  -0.63126
 Alpha  occ. eigenvalues --   -0.62151  -0.61852  -0.59887  -0.58914  -0.57671
 Alpha  occ. eigenvalues --   -0.56204  -0.52660  -0.51192  -0.49545  -0.46656
 Alpha  occ. eigenvalues --   -0.40307  -0.38240
 Alpha virt. eigenvalues --   -0.09049  -0.06616  -0.05904  -0.05288  -0.03964
 Alpha virt. eigenvalues --   -0.03496  -0.02833  -0.02423  -0.01892  -0.01495
 Alpha virt. eigenvalues --   -0.00911  -0.00648  -0.00255   0.00144   0.00391

 Mulliken charges:
               1
     1  C    0.507363
     2  H   -0.113081
     3  H   -0.000008
     4  H    0.074408
     5  C    0.428251
     6  O   -0.879625
     7  N   -0.676153
     8  H   -0.043358
     9  C   -0.065841
    10  C    1.176114
    11  C   -0.015350
    12  C    0.452946
    13  H   -0.643981
    14  H   -0.506684
    15  H   -0.715461
    16  C    0.727726
    17  H   -0.756438
    18  C    2.091681
    19  C   -0.487232
    20  N   -0.650081
    21  C    0.608858
    22  H   -0.607108
    23  S    0.450349
    24  C    0.428472
    25  N   -0.694682
    26  C    1.181968
    27  N   -0.251297
    28  H    0.035623
    29  H    0.029650
    30  N   -0.153796
    31  H    0.076682
    32  H    0.041173
    33  H   -0.051089
 Sum of Mulliken charges =   1.00000

 Dipole moment (field-independent basis, Debye):
    X=             14.9517    Y=             -4.0462    Z=              0.4406  Tot=             15.4957
 Quadrupole moment (field-independent basis, Debye-Ang):
   XX=             28.9719   YY=            -86.6348   ZZ=           -117.8010
   XY=            -32.3742   XZ=              4.8954   YZ=              5.2766

 Normal termination of Gaussian 16 at Sun Jul 18 16:26:00 2021.
