 Gaussian 16, Revision B.01,

 -----------------------------------------------------------
 #p b3lyp/6-31G(d) opt freq scrf=(iefpcm,read,solvent=water)
 -----------------------------------------------------------

 ---------------------------------------------
 SET_328_BBB321_conf1.geo_045_330_135 geometry
 ---------------------------------------------
 Symbolic Z-matrix:
 Charge =  1 Multiplicity = 1

 SCF Done:  E(RB3LYP) =  -1212.58212573     A.U. after   13 cycles
 SCF Done:  E(RB3LYP) =  -1212.69201115     A.U. after   12 cycles
 SCF Done:  E(RB3LYP) =  -1212.77429586     A.U. after   13 cycles
 SCF Done:  E(RB3LYP) =  -1212.78924153     A.U. after   12 cycles
 SCF Done:  E(RB3LYP) =  -1212.79562229     A.U. after   11 cycles
 SCF Done:  E(RB3LYP) =  -1212.80109265     A.U. after   11 cycles
 SCF Done:  E(RB3LYP) =  -1212.80741363     A.U. after   14 cycles
 SCF Done:  E(RB3LYP) =  -1212.81115872     A.U. after   11 cycles
 SCF Done:  E(RB3LYP) =  -1212.81328929     A.U. after   11 cycles
 SCF Done:  E(RB3LYP) =  -1212.81358895     A.U. after   13 cycles
 SCF Done:  E(RB3LYP) =  -1212.81730212     A.U. after    7 cycles
 SCF Done:  E(RB3LYP) =  -1212.81729591     A.U. after    8 cycles
 SCF Done:  E(RB3LYP) =  -1212.81729582     A.U. after    6 cycles
 SCF Done:  E(RB3LYP) =  -1212.81730160     A.U. after    8 cycles
 SCF Done:  E(RB3LYP) =  -1212.81730209     A.U. after    7 cycles
 SCF Done:  E(RB3LYP) =  -1212.81729589     A.U. after    8 cycles
 Optimization completed.
    -- Stationary point found.
 Normal termination of Gaussian 16 at Sun Jul 18 16:03:00 2021.

 --------------------------------------------------------------------
 #P Geom=AllCheck Guess=TCheck SCRF=Check GenChk RB3LYP/6-31G(d) Freq
 --------------------------------------------------------------------

 Structure from the checkpoint file:  "SET_328_BBB321_conf1.geo_045_330_135.chk"
 ---------------------------------------------
 SET_328_BBB321_conf1.geo_045_330_135 geometry
 ---------------------------------------------
 Charge =  1 Multiplicity = 1

 SCF Done:  E(RB3LYP) =  -1212.81729589     A.U. after    1 cycles

  Exact polarizability: 385.657   2.160 286.804   1.326   9.258 102.225
 Approx polarizability: 405.943   7.716 334.071   0.468   9.531 120.381

                      1                      2                      3
                      A                      A                      A
 Frequencies --     33.3800                40.9088                57.4075
 Red. masses --      5.0142                 8.5597                 5.3482
 Frc consts  --      0.0033                 0.0084                 0.0104
 IR Inten    --      0.4892                 6.8431                 7.6244

                      4                      5                      6
                      A                      A                      A
 Frequencies --     62.8384                76.3063                97.6155
 Red. masses --      4.6829                 1.9420                 4.7582
 Frc consts  --      0.0109                 0.0067                 0.0267
 IR Inten    --     14.0757                 2.5574                 3.8537

                      7                      8                      9
                      A                      A                      A
 Frequencies --    102.7997               133.6250               142.3974
 Red. masses --      4.7698                 1.5387                 5.1563
 Frc consts  --      0.0297                 0.0162                 0.0616
 IR Inten    --      3.5710                 0.2928                 5.5995

                     10                     11                     12
                      A                      A                      A
 Frequencies --    185.7676               246.1338               258.9659
 Red. masses --      6.0633                 5.8396                 8.1114
 Frc consts  --      0.1233                 0.2084                 0.3205
 IR Inten    --     17.1893                 9.9434                 1.0151

                     13                     14                     15
                      A                      A                      A
 Frequencies --    263.6488               272.4937               284.4646
 Red. masses --      4.1903                 5.5235                 1.6329
 Frc consts  --      0.1716                 0.2416                 0.0779
 IR Inten    --      0.6916                 1.0461               300.2197

                     16                     17                     18
                      A                      A                      A
 Frequencies --    289.1150               361.8400               372.6178
 Red. masses --      2.5715                 4.0468                 5.5949
 Frc consts  --      0.1266                 0.3122                 0.4577
 IR Inten    --    162.9901                 2.3428                 2.4491

                     19                     20                     21
                      A                      A                      A
 Frequencies --    405.6630               455.4712               469.6673
 Red. masses --      6.5744                 2.4216                 1.2383
 Frc consts  --      0.6374                 0.2960                 0.1609
 IR Inten    --      3.6283                 4.7239                27.8705

                     22                     23                     24
                      A                      A                      A
 Frequencies --    484.2648               531.4373               542.0383
 Red. masses --      4.0003                 1.2460                 3.6511
 Frc consts  --      0.5527                 0.2073                 0.6320
 IR Inten    --      3.0484                91.6725                71.5182

                     25                     26                     27
                      A                      A                      A
 Frequencies --    549.8300               564.0728               578.6220
 Red. masses --      2.8629                 3.3122                 2.0640
 Frc consts  --      0.5099                 0.6209                 0.4071
 IR Inten    --     72.6314                38.0428                51.4688

                     28                     29                     30
                      A                      A                      A
 Frequencies --    587.4127               605.5939               620.2469
 Red. masses --      1.3736                 3.4404                 1.2215
 Frc consts  --      0.2793                 0.7434                 0.2769
 IR Inten    --    302.1040                21.1744                54.6374

                     31                     32                     33
                      A                      A                      A
 Frequencies --    647.1757               650.5631               668.0413
 Red. masses --      1.5129                 5.8253                 4.1557
 Frc consts  --      0.3733                 1.4526                 1.0927
 IR Inten    --     41.9119                 8.4806                60.3681

                     34                     35                     36
                      A                      A                      A
 Frequencies --    685.9338               701.8937               705.8797
 Red. masses --      5.7482                 3.6806                 2.6245
 Frc consts  --      1.5935                 1.0683                 0.7705
 IR Inten    --     22.1769                 8.9312                21.4707

                     37                     38                     39
                      A                      A                      A
 Frequencies --    711.0389               752.8257               761.0601
 Red. masses --      2.8281                 2.1059                 4.4023
 Frc consts  --      0.8424                 0.7032                 1.5023
 IR Inten    --     10.4480                69.9795                24.5818

                     40                     41                     42
                      A                      A                      A
 Frequencies --    815.8263               836.3326               884.6746
 Red. masses --      1.5646                 6.3432                 4.4748
 Frc consts  --      0.6136                 2.6141                 2.0634
 IR Inten    --     27.2671                48.2904                 3.0976

                     43                     44                     45
                      A                      A                      A
 Frequencies --    915.4858               920.0871               935.1019
 Red. masses --      1.5266                 1.3929                 5.3864
 Frc consts  --      0.7539                 0.6947                 2.7750
 IR Inten    --     29.6197                 2.4527                 1.7998

                     46                     47                     48
                      A                      A                      A
 Frequencies --    992.9440               998.0310              1014.1916
 Red. masses --      1.2697                 4.6706                 5.9936
 Frc consts  --      0.7376                 2.7410                 3.6323
 IR Inten    --      1.7336                 9.0258                 0.0610

                     49                     50                     51
                      A                      A                      A
 Frequencies --   1039.3748              1052.0392              1067.8021
 Red. masses --      1.7811                 2.8527                 1.6664
 Frc consts  --      1.1337                 1.8603                 1.1195
 IR Inten    --     34.5932                 5.4509                15.7335

                     52                     53                     54
                      A                      A                      A
 Frequencies --   1086.0141              1103.3750              1120.6518
 Red. masses --      1.3638                 1.9406                 1.5745
 Frc consts  --      0.9477                 1.3920                 1.1651
 IR Inten    --      3.9807                26.1259                17.8985

                     55                     56                     57
                      A                      A                      A
 Frequencies --   1132.6735              1200.3228              1211.1031
 Red. masses --      1.5821                 1.1480                 1.6422
 Frc consts  --      1.1959                 0.9745                 1.4192
 IR Inten    --     11.9082                 4.8854                27.7959

                     58                     59                     60
                      A                      A                      A
 Frequencies --   1270.1912              1284.1843              1313.0666
 Red. masses --      2.5460                 2.1671                 5.9303
 Frc consts  --      2.4202                 2.1056                 6.0242
 IR Inten    --     38.8163               159.9919               217.4224

                     61                     62                     63
                      A                      A                      A
 Frequencies --   1337.6478              1360.1726              1373.9490
 Red. masses --      2.0057                 4.3329                 4.1453
 Frc consts  --      2.1145                 4.7230                 4.6104
 IR Inten    --    263.0991                31.1104                71.1716

                     64                     65                     66
                      A                      A                      A
 Frequencies --   1424.9830              1443.1272              1445.5112
 Red. masses --      1.2373                 1.6130                 2.7784
 Frc consts  --      1.4802                 1.9792                 3.4204
 IR Inten    --     48.5857               153.9229               219.8334

                     67                     68                     69
                      A                      A                      A
 Frequencies --   1494.5309              1508.2870              1531.3957
 Red. masses --      1.0447                 1.1155                 2.7171
 Frc consts  --      1.3749                 1.4952                 3.7544
 IR Inten    --     10.7991                16.2253               306.7687

                     70                     71                     72
                      A                      A                      A
 Frequencies --   1556.0227              1568.0634              1579.1283
 Red. masses --      3.6965                 2.5808                 2.3367
 Frc consts  --      5.2732                 3.7388                 3.4331
 IR Inten    --    104.2558               123.8476                81.1686

                     73                     74                     75
                      A                      A                      A
 Frequencies --   1597.1036              1611.5328              1636.6812
 Red. masses --      2.2537                 2.1384                 1.4588
 Frc consts  --      3.3870                 3.2721                 2.3024
 IR Inten    --    639.1634               459.9179               650.1689

                     76                     77                     78
                      A                      A                      A
 Frequencies --   1648.0167              1659.0789              1701.9773
 Red. masses --      4.3464                 5.3945                 3.2866
 Frc consts  --      6.9550                 8.7485                 5.6092
 IR Inten    --     26.1068               201.9141              1023.4782

                     79                     80                     81
                      A                      A                      A
 Frequencies --   1739.7724              3080.7000              3147.6184
 Red. masses --      6.3828                 1.0360                 1.1014
 Frc consts  --     11.3827                 5.7929                 6.4292
 IR Inten    --    402.0777                 9.1183                 9.8448

                     82                     83                     84
                      A                      A                      A
 Frequencies --   3168.6827              3207.7182              3219.1049
 Red. masses --      1.1047                 1.0880                 1.0906
 Frc consts  --      6.5352                 6.5960                 6.6587
 IR Inten    --     24.9862                21.3189                 9.0631

                     85                     86                     87
                      A                      A                      A
 Frequencies --   3227.4278              3284.6850              3305.6059
 Red. masses --      1.0934                 1.0919                 1.0945
 Frc consts  --      6.7101                 6.9411                 7.0467
 IR Inten    --     28.1861                 6.1724                 4.0678

                     88                     89                     90
                      A                      A                      A
 Frequencies --   3512.1908              3530.5361              3542.9533
 Red. masses --      1.0473                 1.0703                 1.0545
 Frc consts  --      7.6113                 7.8603                 7.7990
 IR Inten    --    349.6261               167.3242               453.3827

                     91                     92                     93
                      A                      A                      A
 Frequencies --   3568.3181              3613.3838              3650.9419
 Red. masses --      1.0785                 1.1050                 1.1090
 Frc consts  --      8.0912                 8.5005                 8.7098
 IR Inten    --     92.8149               235.4724               253.9130

 - Thermochemistry -
 -------------------
 Temperature   298.150 Kelvin.  Pressure   1.00000 Atm.
 Atom     1 has atomic number  6 and mass  12.00000

 Molecular mass:   276.09191 amu.
 Principal axes and moments of inertia in atomic units:
                           1         2         3
     Eigenvalues --  2531.63694********************
           X            1.00000   0.00045   0.00109
           Y           -0.00045   0.99999   0.00450
           Z           -0.00108  -0.00450   0.99999
 This molecule is an asymmetric top.
 Rotational symmetry number  1.
 Warning -- assumption of classical behavior for rotation
           may cause significant error
 Rotational temperatures (Kelvin)      0.03421     0.00642     0.00545
 Rotational constants (GHZ):           0.71288     0.13378     0.11361
 Zero-point vibrational energy     684451.7 (Joules/Mol)
                                  163.58787 (Kcal/Mol)
 Warning -- explicit consideration of  30 degrees of freedom as
           vibrations may cause significant error
 Vibrational temperatures:     48.03    58.86    82.60    90.41   109.79
          (Kelvin)            140.45   147.91   192.26   204.88   267.28
                              354.13   372.59   379.33   392.06   409.28
                              415.97   520.61   536.11   583.66   655.32
                              675.75   696.75   764.62   779.87   791.08
                              811.57   832.51   845.16   871.31   892.40
                              931.14   936.02   961.16   986.91  1009.87
                             1015.60  1023.03  1083.15  1095.00  1173.79
                             1203.30  1272.85  1317.18  1323.80  1345.40
                             1428.63  1435.94  1459.20  1495.43  1513.65
                             1536.33  1562.53  1587.51  1612.37  1629.66
                             1727.00  1742.51  1827.52  1847.65  1889.21
                             1924.58  1956.98  1976.81  2050.23  2076.34
                             2079.77  2150.30  2170.09  2203.34  2238.77
                             2256.09  2272.01  2297.88  2318.64  2354.82
                             2371.13  2387.04  2448.77  2503.14  4432.44
                             4528.72  4559.03  4615.19  4631.57  4643.55
                             4725.93  4756.03  5053.26  5079.65  5097.52
                             5134.01  5198.85  5252.89

 Zero-point correction=                           0.260694 (Hartree/Particle)
 Thermal correction to Energy=                    0.278777
 Thermal correction to Enthalpy=                  0.279721
 Thermal correction to Gibbs Free Energy=         0.213306
 Sum of electronic and zero-point Energies=          -1212.556602
 Sum of electronic and thermal Energies=             -1212.538519
 Sum of electronic and thermal Enthalpies=           -1212.537575
 Sum of electronic and thermal Free Energies=        -1212.603990

                     E (Thermal)             CV                S
                      KCal/Mol        Cal/Mol-Kelvin    Cal/Mol-Kelvin
 Total                  174.935             69.064            139.783
 Electronic               0.000              0.000              0.000
 Translational            0.889              2.981             42.745
 Rotational               0.889              2.981             34.650
 Vibrational            173.158             63.102             62.388
 Vibration     1          0.594              1.983              5.618
 Vibration     2          0.594              1.981              5.215
 Vibration     3          0.596              1.975              4.544
 Vibration     4          0.597              1.972              4.366
 Vibration     5          0.599              1.965              3.984
 Vibration     6          0.603              1.951              3.501
 Vibration     7          0.605              1.947              3.401
 Vibration     8          0.613              1.920              2.893
 Vibration     9          0.616              1.911              2.771
 Vibration    10          0.632              1.859              2.270
 Vibration    11          0.661              1.769              1.758
 Vibration    12          0.668              1.748              1.669
 Vibration    13          0.670              1.740              1.637
 Vibration    14          0.675              1.724              1.580
 Vibration    15          0.683              1.702              1.507
 Vibration    16          0.686              1.694              1.479
 Vibration    17          0.736              1.551              1.114
 Vibration    18          0.744              1.528              1.069
 Vibration    19          0.771              1.458              0.942
 Vibration    20          0.814              1.349              0.779
 Vibration    21          0.827              1.317              0.738
 Vibration    22          0.840              1.285              0.699
 Vibration    23          0.886              1.180              0.584
 Vibration    24          0.897              1.157              0.561
 Vibration    25          0.905              1.140              0.545
 Vibration    26          0.920              1.109              0.516
 Vibration    27          0.935              1.078              0.488
 Vibration    28          0.945              1.059              0.472
 Vibration    29          0.964              1.020              0.440
 Vibration    30          0.980              0.989              0.416

                           ! Non-Optimized Parameters !
 Normal termination of Gaussian 16 at Sun Jul 18 16:13:38 2021.

 ----------------------------------------------------------------------
 #p b3lyp/6-31G(d) scrf=(iefpcm,read,solvent=water) geom=allcheck guess
 =read
 ----------------------------------------------------------------------

 Structure from the checkpoint file:  "SET_328_BBB321_conf1.geo_045_330_135.chk"
 ---------------------------------------------
 SET_328_BBB321_conf1.geo_045_330_135 geometry
 ---------------------------------------------
 Charge =  1 Multiplicity = 1

 SCF Done:  E(RB3LYP) =  -1212.81729589     A.U. after    1 cycles
 Normal termination of Gaussian 16 at Sun Jul 18 16:13:49 2021.

 -----------------------------
 #p B3LYP/6-31G* geom=allcheck
 -----------------------------

 Structure from the checkpoint file:  "SET_328_BBB321_conf1.geo_045_330_135.chk"
 ---------------------------------------------
 SET_328_BBB321_conf1.geo_045_330_135 geometry
 ---------------------------------------------
 Charge =  1 Multiplicity = 1

 SCF Done:  E(RB3LYP) =  -1212.68017144     A.U. after   17 cycles

 The electronic state is 1-A.
 Alpha  occ. eigenvalues --  -89.05545 -19.18138 -14.57958 -14.57564 -14.56889
 Alpha  occ. eigenvalues --  -14.47306 -14.45222 -10.53500 -10.43501 -10.36201
 Alpha  occ. eigenvalues --  -10.35162 -10.34045 -10.31782 -10.29422 -10.27781
 Alpha  occ. eigenvalues --  -10.27350 -10.27009 -10.26235 -10.25747  -8.11639
 Alpha  occ. eigenvalues --   -6.08071  -6.07669  -6.07312  -1.22534  -1.13764
 Alpha  occ. eigenvalues --   -1.10365  -1.10031  -1.08059  -1.01524  -0.94089
 Alpha  occ. eigenvalues --   -0.93673  -0.89929  -0.85481  -0.83747  -0.82422
 Alpha  occ. eigenvalues --   -0.79901  -0.79255  -0.78336  -0.73234  -0.72807
 Alpha  occ. eigenvalues --   -0.70502  -0.70351  -0.69410  -0.68334  -0.64655
 Alpha  occ. eigenvalues --   -0.63993  -0.63008  -0.60834  -0.57970  -0.56665
 Alpha  occ. eigenvalues --   -0.56278  -0.55167  -0.53421  -0.51951  -0.51928
 Alpha  occ. eigenvalues --   -0.51192  -0.49560  -0.48975  -0.47980  -0.47410
 Alpha  occ. eigenvalues --   -0.46860  -0.46564  -0.44568  -0.43541  -0.43381
 Alpha  occ. eigenvalues --   -0.41593  -0.41566  -0.38653  -0.36553  -0.32213
 Alpha  occ. eigenvalues --   -0.31583  -0.29727
 Alpha virt. eigenvalues --   -0.19557  -0.14166  -0.13246  -0.12063  -0.10434
 Alpha virt. eigenvalues --   -0.08691  -0.08262  -0.07173  -0.06641  -0.04105
 Alpha virt. eigenvalues --   -0.03306  -0.01432  -0.00793  -0.00563   0.01114

 Mulliken charges:
               1
     1  C   -0.541678
     2  H    0.202837
     3  H    0.141300
     4  H    0.203129
     5  C    0.604930
     6  O   -0.488295
     7  N   -0.711602
     8  H    0.330869
     9  C    0.375768
    10  C   -0.151166
    11  C   -0.147443
    12  C   -0.179820
    13  H    0.129180
    14  H    0.157898
    15  H    0.209433
    16  C   -0.255910
    17  H    0.136556
    18  C    0.116615
    19  C    0.294244
    20  N   -0.483935
    21  C   -0.396393
    22  H    0.221712
    23  S    0.294024
    24  C    0.272329
    25  N   -0.650584
    26  C    0.809361
    27  N   -0.740705
    28  H    0.396001
    29  H    0.399436
    30  N   -0.726715
    31  H    0.388465
    32  H    0.401531
    33  H    0.388632
 Sum of Mulliken charges =   1.00000

 Dipole moment (field-independent basis, Debye):
    X=             21.7337    Y=             -7.7222    Z=              0.4952  Tot=             23.0701
 Quadrupole moment (field-independent basis, Debye-Ang):
   XX=             -5.0874   YY=            -73.7411   ZZ=           -113.2020
   XY=            -26.2403   XZ=              5.7951   YZ=              4.9751

 Normal termination of Gaussian 16 at Sun Jul 18 16:14:37 2021.
 Gaussian 16:  ES64L-G16RevB.01 20-Dec-2017

 --------------------------------------------------------
 #p mp2/aug-cc-pVDZ scf=tight maxdisk=180GB geom=allcheck
 --------------------------------------------------------

 Structure from the checkpoint file:  "SET_328_BBB321_conf1.geo_045_330_135.chk"
 ---------------------------------------------
 SET_328_BBB321_conf1.geo_045_330_135 geometry
 ---------------------------------------------
 Charge =  1 Multiplicity = 1

                         Standard orientation:
 ---------------------------------------------------------------------
 Center     Atomic      Atomic             Coordinates (Angstroms)
 Number     Number       Type             X           Y           Z
 ---------------------------------------------------------------------
      1          6           0       -5.424387   -2.808362    0.070018
      2          1           0       -6.012621   -2.996402    0.972273
      3          1           0       -4.586439   -3.506701    0.041030
      4          1           0       -6.073881   -2.995542   -0.789779
      5          6           0       -5.006888   -1.350567    0.056190
      6          8           0       -5.842499   -0.445060    0.067574
      7          7           0       -3.654993   -1.140908    0.031700
      8          1           0       -3.073643   -1.973089    0.025993
      9          6           0       -2.948499    0.077336    0.011270
     10          6           0       -3.574373    1.333367    0.023475
     11          6           0       -2.785645    2.485894    0.000297
     12          6           0       -1.396841    2.415235   -0.034525
     13          1           0       -0.806641    3.324549   -0.051514
     14          1           0       -3.271834    3.456011    0.010216
     15          1           0       -4.651815    1.387864    0.050440
     16          6           0       -1.547575    0.002601   -0.022845
     17          1           0       -1.050147   -0.960767   -0.032451
     18          6           0       -0.763645    1.160905   -0.045810
     19          6           0        0.705497    1.044044   -0.080001
     20          7           0        1.285392   -0.215591   -0.058216
     21          6           0        1.597413    2.081276   -0.115964
     22          1           0        1.402739    3.142023   -0.106500
     23         16           0        3.230292    1.495875   -0.135143
     24          6           0        2.582633   -0.140521   -0.075523
     25          7           0        3.353700   -1.294290   -0.161062
     26          6           0        4.678776   -1.445055    0.094322
     27          7           0        5.291668   -2.511537   -0.396679
     28          1           0        6.257906   -2.704731   -0.149589
     29          1           0        4.840155   -3.092807   -1.096768
     30          7           0        5.343734   -0.522818    0.795969
     31          1           0        6.337855   -0.674816    0.952204
     32          1           0        4.856580   -0.002257    1.520993
     33          1           0        2.851798   -2.117775   -0.492262
 ---------------------------------------------------------------------

 SCF Done:  E(RHF) =  -1207.14105945     A.U. after   17 cycles
