 Gaussian 16, Revision B.01,

 -----------------------------------------------------------
 #p b3lyp/6-31G(d) opt freq scrf=(iefpcm,read,solvent=water)
 -----------------------------------------------------------

 --------------------------------------------
 SET_328_BBB20_conf1.geo_120_180_060 geometry
 --------------------------------------------
 Symbolic Z-matrix:
 Charge =  1 Multiplicity = 1

 SCF Done:  E(RB3LYP) =  -769.775368377     A.U. after   12 cycles
 SCF Done:  E(RB3LYP) =  -769.810978482     A.U. after   11 cycles
 SCF Done:  E(RB3LYP) =  -769.825431692     A.U. after   11 cycles
 SCF Done:  E(RB3LYP) =  -769.829642891     A.U. after   11 cycles
 SCF Done:  E(RB3LYP) =  -769.830859280     A.U. after   10 cycles
 SCF Done:  E(RB3LYP) =  -769.831310612     A.U. after   11 cycles
 SCF Done:  E(RB3LYP) =  -769.831581804     A.U. after    9 cycles
 SCF Done:  E(RB3LYP) =  -769.831725968     A.U. after    9 cycles
 SCF Done:  E(RB3LYP) =  -769.831787671     A.U. after    9 cycles
 SCF Done:  E(RB3LYP) =  -769.831710466     A.U. after    9 cycles
 SCF Done:  E(RB3LYP) =  -769.831736672     A.U. after    8 cycles
 SCF Done:  E(RB3LYP) =  -769.831733750     A.U. after    8 cycles
 SCF Done:  E(RB3LYP) =  -769.831736674     A.U. after    8 cycles
 SCF Done:  E(RB3LYP) =  -769.831734213     A.U. after    8 cycles
 SCF Done:  E(RB3LYP) =  -769.831736685     A.U. after    8 cycles
 SCF Done:  E(RB3LYP) =  -769.831733606     A.U. after    8 cycles
 Optimization completed.
    -- Stationary point found.
 Normal termination of Gaussian 16 at Sun Jul 18 14:10:21 2021.

 --------------------------------------------------------------------
 #P Geom=AllCheck Guess=TCheck SCRF=Check GenChk RB3LYP/6-31G(d) Freq
 --------------------------------------------------------------------

 Structure from the checkpoint file:  "SET_328_BBB20_conf1.geo_120_180_060.chk"
 --------------------------------------------
 SET_328_BBB20_conf1.geo_120_180_060 geometry
 --------------------------------------------
 Charge =  1 Multiplicity = 1

 SCF Done:  E(RB3LYP) =  -769.831733606     A.U. after    1 cycles

  Exact polarizability: 272.855 -31.801 287.874 -46.972 -27.091 201.657
 Approx polarizability: 297.634 -28.344 305.028 -56.796 -31.647 231.986

                      1                      2                      3
                      A                      A                      A
 Frequencies --     37.1788                49.5055                58.7085
 Red. masses --      3.9790                 3.3817                 2.7034
 Frc consts  --      0.0032                 0.0049                 0.0055
 IR Inten    --      2.7982                21.5876                 1.5150

                      4                      5                      6
                      A                      A                      A
 Frequencies --     69.0592               106.4130               141.1072
 Red. masses --      4.1819                 3.7462                 3.2613
 Frc consts  --      0.0118                 0.0250                 0.0383
 IR Inten    --     10.2125                 3.7556                 0.2802

                      7                      8                      9
                      A                      A                      A
 Frequencies --    155.4406               158.5872               221.2826
 Red. masses --      2.0027                 3.0468                 2.3452
 Frc consts  --      0.0285                 0.0451                 0.0677
 IR Inten    --     21.4653                 1.7276                 7.4208

                     10                     11                     12
                      A                      A                      A
 Frequencies --    265.3728               278.0126               280.6430
 Red. masses --      3.0496                 1.5784                 2.5787
 Frc consts  --      0.1265                 0.0719                 0.1197
 IR Inten    --      9.0271                 0.2998                 0.8487

                     13                     14                     15
                      A                      A                      A
 Frequencies --    297.8718               327.8017               330.5489
 Red. masses --      2.6893                 3.7901                 3.3357
 Frc consts  --      0.1406                 0.2400                 0.2147
 IR Inten    --      6.0055                 2.6128                 1.6347

                     16                     17                     18
                      A                      A                      A
 Frequencies --    373.6859               408.9109               446.5247
 Red. masses --      3.3222                 3.7871                 2.8999
 Frc consts  --      0.2733                 0.3731                 0.3407
 IR Inten    --      1.7663                16.2145                 8.1581

                     19                     20                     21
                      A                      A                      A
 Frequencies --    451.3715               479.1960               481.9975
 Red. masses --      2.9937                 3.4697                 3.0851
 Frc consts  --      0.3594                 0.4694                 0.4223
 IR Inten    --      4.5370                 6.2020                 0.7020

                     22                     23                     24
                      A                      A                      A
 Frequencies --    529.4346               553.8065               574.4498
 Red. masses --      3.5641                 3.9805                 4.7081
 Frc consts  --      0.5886                 0.7193                 0.9154
 IR Inten    --      0.1921                 0.6675                 1.2699

                     25                     26                     27
                      A                      A                      A
 Frequencies --    602.8909               616.5947               636.2141
 Red. masses --      3.1417                 4.0590                 5.1272
 Frc consts  --      0.6728                 0.9092                 1.2227
 IR Inten    --      5.3100                10.8884                11.7791

                     28                     29                     30
                      A                      A                      A
 Frequencies --    699.4935               725.1384               758.0391
 Red. masses --      4.5877                 3.0318                 2.3301
 Frc consts  --      1.3226                 0.9393                 0.7889
 IR Inten    --      3.0114                 3.4059                22.7611

                     31                     32                     33
                      A                      A                      A
 Frequencies --    767.4335               779.3504               783.9474
 Red. masses --      1.4875                 1.7722                 1.6810
 Frc consts  --      0.5162                 0.6342                 0.6087
 IR Inten    --     33.5668                49.3748                52.9460

                     34                     35                     36
                      A                      A                      A
 Frequencies --    788.4924               816.2383               843.3493
 Red. masses --      2.1924                 2.6935                 1.5436
 Frc consts  --      0.8031                 1.0573                 0.6468
 IR Inten    --      6.7415                 2.3955                24.6880

                     37                     38                     39
                      A                      A                      A
 Frequencies --    864.7451               870.3920               886.7557
 Red. masses --      1.4752                 2.4043                 1.4268
 Frc consts  --      0.6499                 1.0732                 0.6611
 IR Inten    --      0.2335                16.0650                 3.0648

                     40                     41                     42
                      A                      A                      A
 Frequencies --    905.0914               935.2369               946.6601
 Red. masses --      2.3785                 2.4075                 1.4645
 Frc consts  --      1.1480                 1.2407                 0.7733
 IR Inten    --     15.1091                17.5112                 8.0454

                     43                     44                     45
                      A                      A                      A
 Frequencies --    952.8563               970.7621               981.2201
 Red. masses --      1.3820                 1.4139                 1.2656
 Frc consts  --      0.7393                 0.7850                 0.7179
 IR Inten    --      4.4546                10.9490                 0.1859

                     46                     47                     48
                      A                      A                      A
 Frequencies --    987.6288               988.3943              1028.4583
 Red. masses --      1.2726                 2.0441                 1.7900
 Frc consts  --      0.7314                 1.1765                 1.1155
 IR Inten    --      0.0082                 2.1059                33.2119

                     49                     50                     51
                      A                      A                      A
 Frequencies --   1055.1139              1061.4978              1071.2490
 Red. masses --      2.6339                 2.6974                 2.3061
 Frc consts  --      1.7276                 1.7907                 1.5592
 IR Inten    --      2.4691                 7.4291                 7.5235

                     52                     53                     54
                      A                      A                      A
 Frequencies --   1081.3226              1094.6566              1135.7509
 Red. masses --      2.9596                 2.2778                 1.9779
 Frc consts  --      2.0389                 1.6081                 1.5032
 IR Inten    --      5.5528                15.8829                46.7106

                     55                     56                     57
                      A                      A                      A
 Frequencies --   1143.3935              1156.4272              1175.5250
 Red. masses --      1.7064                 1.8826                 1.7038
 Frc consts  --      1.3144                 1.4834                 1.3872
 IR Inten    --     15.8991                18.8076                15.3921

                     58                     59                     60
                      A                      A                      A
 Frequencies --   1187.5526              1190.7300              1199.7125
 Red. masses --      1.0974                 1.2830                 1.1655
 Frc consts  --      0.9118                 1.0718                 0.9884
 IR Inten    --      1.1764                 5.6791                 3.3631

                     61                     62                     63
                      A                      A                      A
 Frequencies --   1213.7693              1235.5419              1247.4252
 Red. masses --      1.7093                 2.3661                 2.5559
 Frc consts  --      1.4837                 2.1281                 2.3432
 IR Inten    --      6.2281                16.0278               111.3416

                     64                     65                     66
                      A                      A                      A
 Frequencies --   1260.0831              1265.1586              1295.8900
 Red. masses --      1.6123                 1.5169                 1.5870
 Frc consts  --      1.5083                 1.4305                 1.5703
 IR Inten    --     68.4915               139.9604                63.0366

                     67                     68                     69
                      A                      A                      A
 Frequencies --   1325.2293              1329.1753              1335.3459
 Red. masses --      1.5165                 1.6739                 1.8200
 Frc consts  --      1.5692                 1.7423                 1.9121
 IR Inten    --     43.3865                28.6531               112.5567

                     70                     71                     72
                      A                      A                      A
 Frequencies --   1345.9184              1363.7957              1370.3993
 Red. masses --      3.8109                 3.8638                 1.2355
 Frc consts  --      4.0674                 4.2341                 1.3670
 IR Inten    --      7.7133                10.6729                26.0317

                     73                     74                     75
                      A                      A                      A
 Frequencies --   1380.9843              1396.8634              1400.0258
 Red. masses --      1.5452                 1.3596                 1.4757
 Frc consts  --      1.7362                 1.5631                 1.7042
 IR Inten    --      9.1874                39.0162                12.5542

                     76                     77                     78
                      A                      A                      A
 Frequencies --   1426.4346              1481.2380              1487.8973
 Red. masses --      1.3721                 1.5947                 1.3208
 Frc consts  --      1.6449                 2.0614                 1.7228
 IR Inten    --     35.4925                22.6246                 7.8755

                     79                     80                     81
                      A                      A                      A
 Frequencies --   1494.0273              1496.9992              1500.6566
 Red. masses --      1.1177                 1.1987                 1.4358
 Frc consts  --      1.4699                 1.5827                 1.9050
 IR Inten    --     25.7402                 5.6098                11.7426

                     82                     83                     84
                      A                      A                      A
 Frequencies --   1505.8005              1512.1718              1524.7944
 Red. masses --      1.7876                 1.0826                 1.2157
 Frc consts  --      2.3882                 1.4586                 1.6653
 IR Inten    --    120.2245                13.5131               228.9220

                     85                     86                     87
                      A                      A                      A
 Frequencies --   1531.5034              1545.1346              1564.9476
 Red. masses --      2.0558                 2.5262                 1.1263
 Frc consts  --      2.8410                 3.5535                 1.6251
 IR Inten    --    181.3749                20.3131                 7.7460

                     88                     89                     90
                      A                      A                      A
 Frequencies --   1628.4847              1629.8093              1639.8880
 Red. masses --      5.7572                 1.0409                 6.4967
 Frc consts  --      8.9956                 1.6290                10.2937
 IR Inten    --     23.4642                67.8052                15.3499

                     91                     92                     93
                      A                      A                      A
 Frequencies --   1653.3702              1659.7467              1664.7782
 Red. masses --      5.6556                 4.6676                 1.0914
 Frc consts  --      9.1090                 7.5758                 1.7821
 IR Inten    --     46.7842                27.6237                81.2521

                     94                     95                     96
                      A                      A                      A
 Frequencies --   3022.3814              3039.2579              3059.6854
 Red. masses --      1.0727                 1.0652                 1.0656
 Frc consts  --      5.7732                 5.7974                 5.8777
 IR Inten    --     94.8430                49.5584                28.9490

                     97                     98                     99
                      A                      A                      A
 Frequencies --   3079.6004              3081.7672              3116.2242
 Red. masses --      1.0954                 1.0615                 1.1000
 Frc consts  --      6.1209                 5.9400                 6.2937
 IR Inten    --     77.8629                30.0836                53.9301

                    100                    101                    102
                      A                      A                      A
 Frequencies --   3121.4489              3135.4405              3142.8513
 Red. masses --      1.0948                 1.0651                 1.0922
 Frc consts  --      6.2850                 6.1692                 6.3565
 IR Inten    --      1.1331                14.7725                59.3382

                    103                    104                    105
                      A                      A                      A
 Frequencies --   3190.0962              3191.0129              3192.0733
 Red. masses --      1.0873                 1.1101                 1.0869
 Frc consts  --      6.5193                 6.6597                 6.5248
 IR Inten    --     20.8426                14.3275                13.6743

                    106                    107                    108
                      A                      A                      A
 Frequencies --   3199.6564              3205.9920              3217.5190
 Red. masses --      1.0890                 1.0884                 1.0941
 Frc consts  --      6.5690                 6.5912                 6.6733
 IR Inten    --     25.6000                21.2511                56.2216

                    109                    110                    111
                      A                      A                      A
 Frequencies --   3221.8587              3227.5468              3247.3188
 Red. masses --      1.0958                 1.0943                 1.0907
 Frc consts  --      6.7018                 6.7164                 6.7765
 IR Inten    --     54.0006                21.3449                25.8990

                    112                    113                    114
                      A                      A                      A
 Frequencies --   3384.6876              3445.4845              3469.5052
 Red. masses --      1.0342                 1.0925                 1.0940
 Frc consts  --      6.9806                 7.6410                 7.7587
 IR Inten    --    131.7126               221.1727               226.1264

 - Thermochemistry -
 -------------------
 Temperature   298.150 Kelvin.  Pressure   1.00000 Atm.
 Atom     1 has atomic number  7 and mass  14.00307

 Molecular mass:   253.17047 amu.
 Principal axes and moments of inertia in atomic units:
                           1         2         3
     Eigenvalues --  4694.121945035.838558223.52291
           X            0.95618   0.29275  -0.00522
           Y           -0.29277   0.95618  -0.00357
           Z            0.00394   0.00494   0.99998
 This molecule is an asymmetric top.
 Rotational symmetry number  1.
 Warning -- assumption of classical behavior for rotation
           may cause significant error
 Rotational temperatures (Kelvin)      0.01845     0.01720     0.01053
 Rotational constants (GHZ):           0.38447     0.35838     0.21946
 Zero-point vibrational energy     929916.6 (Joules/Mol)
                                  222.25541 (Kcal/Mol)
 Warning -- explicit consideration of  26 degrees of freedom as
           vibrations may cause significant error
 Vibrational temperatures:     53.49    71.23    84.47    99.36   153.10
          (Kelvin)            203.02   223.64   228.17   318.38   381.81
                              400.00   403.78   428.57   471.63   475.59
                              537.65   588.33   642.45   649.42   689.46
                              693.49   761.74   796.80   826.51   867.43
                              887.14   915.37  1006.42  1043.31  1090.65
                             1104.17  1121.31  1127.93  1134.46  1174.38
                             1213.39  1244.18  1252.30  1275.84  1302.22
                             1345.60  1362.03  1370.95  1396.71  1411.76
                             1420.98  1422.08  1479.72  1518.07  1527.26
                             1541.29  1555.78  1574.97  1634.09  1645.09
                             1663.84  1691.32  1708.62  1713.19  1726.12
                             1746.34  1777.67  1794.77  1812.98  1820.28
                             1864.50  1906.71  1912.39  1921.26  1936.48
                             1962.20  1971.70  1986.93  2009.77  2014.32
                             2052.32  2131.17  2140.75  2149.57  2153.85
                             2159.11  2166.51  2175.68  2193.84  2203.49
                             2223.10  2251.61  2343.03  2344.93  2359.43
                             2378.83  2388.01  2395.24  4348.53  4372.81
                             4402.20  4430.86  4433.98  4483.55  4491.07
                             4511.20  4521.86  4589.84  4591.16  4592.68
                             4603.59  4612.71  4629.29  4635.54  4643.72
                             4672.17  4869.81  4957.28  4991.84

 Zero-point correction=                           0.354187 (Hartree/Particle)
 Thermal correction to Energy=                    0.370564
 Thermal correction to Enthalpy=                  0.371508
 Thermal correction to Gibbs Free Energy=         0.309927
 Sum of electronic and zero-point Energies=           -769.477547
 Sum of electronic and thermal Energies=              -769.461170
 Sum of electronic and thermal Enthalpies=            -769.460226
 Sum of electronic and thermal Free Energies=         -769.521807

                     E (Thermal)             CV                S
                      KCal/Mol        Cal/Mol-Kelvin    Cal/Mol-Kelvin
 Total                  232.532             66.096            129.608
 Electronic               0.000              0.000              0.000
 Translational            0.889              2.981             42.487
 Rotational               0.889              2.981             33.630
 Vibrational            230.755             60.134             53.492
 Vibration     1          0.594              1.982              5.404
 Vibration     2          0.595              1.978              4.837
 Vibration     3          0.596              1.974              4.500
 Vibration     4          0.598              1.969              4.180
 Vibration     5          0.605              1.944              3.333
 Vibration     6          0.615              1.912              2.789
 Vibration     7          0.620              1.897              2.605
 Vibration     8          0.621              1.893              2.567
 Vibration     9          0.648              1.809              1.949
 Vibration    10          0.671              1.737              1.626
 Vibration    11          0.679              1.714              1.546
 Vibration    12          0.680              1.709              1.530
 Vibration    13          0.691              1.678              1.429
 Vibration    14          0.711              1.620              1.271
 Vibration    15          0.713              1.614              1.257
 Vibration    16          0.745              1.526              1.065
 Vibration    17          0.773              1.451              0.930
 Vibration    18          0.806              1.369              0.806
 Vibration    19          0.810              1.358              0.792
 Vibration    20          0.836              1.296              0.712
 Vibration    21          0.838              1.290              0.705
 Vibration    22          0.884              1.185              0.588
 Vibration    23          0.909              1.131              0.536
 Vibration    24          0.931              1.087              0.496
 Vibration    25          0.961              1.026              0.445
 Vibration    26          0.976              0.997              0.422

 Optimization completed.
    -- Stationary point found.
 Normal termination of Gaussian 16 at Sun Jul 18 14:29:16 2021.

 ----------------------------------------------------------------------
 #p b3lyp/6-31G(d) scrf=(iefpcm,read,solvent=water) geom=allcheck guess
 =read
 ----------------------------------------------------------------------

 Structure from the checkpoint file:  "SET_328_BBB20_conf1.geo_120_180_060.chk"
 --------------------------------------------
 SET_328_BBB20_conf1.geo_120_180_060 geometry
 --------------------------------------------
 Charge =  1 Multiplicity = 1

 SCF Done:  E(RB3LYP) =  -769.831733606     A.U. after    1 cycles
 Normal termination of Gaussian 16 at Sun Jul 18 14:29:32 2021.

 -----------------------------
 #p B3LYP/6-31G* geom=allcheck
 -----------------------------

 Structure from the checkpoint file:  "SET_328_BBB20_conf1.geo_120_180_060.chk"
 --------------------------------------------
 SET_328_BBB20_conf1.geo_120_180_060 geometry
 --------------------------------------------
 Charge =  1 Multiplicity = 1

 SCF Done:  E(RB3LYP) =  -769.714066611     A.U. after   15 cycles

 The electronic state is 1-A.
 Alpha  occ. eigenvalues --  -14.66394 -14.45626 -10.42886 -10.35700 -10.34893
 Alpha  occ. eigenvalues --  -10.31840 -10.31133 -10.27848 -10.27665 -10.27599
 Alpha  occ. eigenvalues --  -10.27368 -10.27249 -10.26962 -10.26946 -10.26882
 Alpha  occ. eigenvalues --  -10.26849 -10.26806 -10.26484 -10.26261  -1.20477
 Alpha  occ. eigenvalues --   -1.05544  -0.96180  -0.93884  -0.92844  -0.88268
 Alpha  occ. eigenvalues --   -0.86246  -0.83871  -0.83766  -0.80909  -0.79722
 Alpha  occ. eigenvalues --   -0.78827  -0.77444  -0.75679  -0.72983  -0.69493
 Alpha  occ. eigenvalues --   -0.68667  -0.67940  -0.66813  -0.65565  -0.62662
 Alpha  occ. eigenvalues --   -0.60970  -0.60057  -0.58347  -0.57607  -0.55796
 Alpha  occ. eigenvalues --   -0.55514  -0.54384  -0.53690  -0.52463  -0.52112
 Alpha  occ. eigenvalues --   -0.51687  -0.50504  -0.49853  -0.49256  -0.47844
 Alpha  occ. eigenvalues --   -0.46849  -0.46087  -0.44868  -0.43894  -0.42934
 Alpha  occ. eigenvalues --   -0.42412  -0.41836  -0.41180  -0.38194  -0.33165
 Alpha  occ. eigenvalues --   -0.32606  -0.32014  -0.28982
 Alpha virt. eigenvalues --   -0.16674  -0.10326  -0.10043  -0.09083  -0.08308
 Alpha virt. eigenvalues --   -0.08157  -0.07681  -0.06276  -0.03688  -0.02762
 Alpha virt. eigenvalues --   -0.00880   0.00101   0.01994   0.02221   0.02691

 Mulliken charges:
               1
     1  N   -0.725229
     2  H    0.430275
     3  H    0.434243
     4  C   -0.223621
     5  H    0.233647
     6  H    0.230015
     7  C   -0.298550
     8  H    0.178576
     9  H    0.224823
    10  C   -0.149551
    11  H    0.156176
    12  H    0.132552
    13  N   -0.580289
    14  C    0.209348
    15  C   -0.165106
    16  H    0.118951
    17  C   -0.145524
    18  H    0.144400
    19  C   -0.118512
    20  H    0.150328
    21  C   -0.208831
    22  H    0.144487
    23  C    0.161087
    24  C   -0.350618
    25  H    0.156290
    26  H    0.140705
    27  C   -0.347001
    28  H    0.174259
    29  H    0.163289
    30  C    0.159863
    31  C   -0.197478
    32  H    0.143227
    33  C   -0.119832
    34  H    0.149190
    35  C   -0.144678
    36  H    0.140672
    37  C   -0.181554
    38  H    0.103327
    39  C    0.242910
    40  H    0.433734
 Sum of Mulliken charges =   1.00000

 Dipole moment (field-independent basis, Debye):
    X=             14.8848    Y=             10.9214    Z=              2.7650  Tot=             18.6676
 Quadrupole moment (field-independent basis, Debye-Ang):
   XX=            -36.4061   YY=            -64.7430   ZZ=           -104.5288
   XY=             42.2803   XZ=              4.9303   YZ=              3.9866

 Normal termination of Gaussian 16 at Sun Jul 18 14:30:46 2021.
 Gaussian 16:  ES64L-G16RevB.01 20-Dec-2017

 --------------------------------------------------------
 #p mp2/aug-cc-pVDZ scf=tight maxdisk=180GB geom=allcheck
 --------------------------------------------------------

 Structure from the checkpoint file:  "SET_328_BBB20_conf1.geo_120_180_060.chk"
 --------------------------------------------
 SET_328_BBB20_conf1.geo_120_180_060 geometry
 --------------------------------------------
 Charge =  1 Multiplicity = 1

                         Standard orientation:
 ---------------------------------------------------------------------
 Center     Atomic      Atomic             Coordinates (Angstroms)
 Number     Number       Type             X           Y           Z
 ---------------------------------------------------------------------
      1          7           0        3.720276    2.877634    0.598367
      2          1           0        3.320455    3.142655    1.509237
      3          1           0        3.118747    3.279530   -0.136420
      4          6           0        3.859536    1.383735    0.470249
      5          1           0        4.610542    1.088323    1.201478
      6          1           0        4.251131    1.199488   -0.529990
      7          6           0        2.541839    0.661543    0.717180
      8          1           0        2.168682    0.896855    1.719316
      9          1           0        2.763323   -0.409336    0.703389
     10          6           0        1.454696    0.978950   -0.319042
     11          1           0        1.848927    0.841161   -1.335659
     12          1           0        1.169736    2.028762   -0.241242
     13          7           0        0.231421    0.210721   -0.072970
     14          6           0       -0.993527    0.916613   -0.273498
     15          6           0       -1.132186    1.831817   -1.325669
     16          1           0       -0.314171    1.971579   -2.023065
     17          6           0       -2.314114    2.556004   -1.482943
     18          1           0       -2.407434    3.260076   -2.304558
     19          6           0       -3.372350    2.365171   -0.593069
     20          1           0       -4.295366    2.923458   -0.709767
     21          6           0       -3.231864    1.454772    0.455541
     22          1           0       -4.043388    1.309316    1.163443
     23          6           0       -2.047872    0.734509    0.636923
     24          6           0       -1.874428   -0.243024    1.760595
     25          1           0       -2.703799   -0.142062    2.465107
     26          1           0       -0.950093   -0.024167    2.307721
     27          6           0       -1.838974   -1.684399    1.250895
     28          1           0       -2.775418   -1.876387    0.711569
     29          1           0       -1.847912   -2.366098    2.108626
     30          6           0       -0.670253   -2.080057    0.364698
     31          6           0       -0.528497   -3.457780    0.145269
     32          1           0       -1.255415   -4.114520    0.614735
     33          6           0        0.498691   -4.005901   -0.617008
     34          1           0        0.573648   -5.079833   -0.750699
     35          6           0        1.430680   -3.142883   -1.190107
     36          1           0        2.247867   -3.527969   -1.790856
     37          6           0        1.310887   -1.770227   -1.001042
     38          1           0        2.035613   -1.120787   -1.473333
     39          6           0        0.271308   -1.205379   -0.233205
     40          1           0        4.641024    3.340687    0.518597
 ---------------------------------------------------------------------

 SCF Done:  E(RHF) =  -764.744522387     A.U. after   16 cycles
