 Gaussian 16, Revision B.01,

 -----------------------------------------------------------
 #p b3lyp/6-31G(d) opt freq scrf=(iefpcm,read,solvent=water)
 -----------------------------------------------------------

 ---------------------------------------------
 SET_328_BBB321_conf1.geo_195_210_120 geometry
 ---------------------------------------------
 Symbolic Z-matrix:
 Charge =  1 Multiplicity = 1

 SCF Done:  E(RB3LYP) =  -1212.51227884     A.U. after   15 cycles
 SCF Done:  E(RB3LYP) =  -1212.64848446     A.U. after   13 cycles
 SCF Done:  E(RB3LYP) =  -1212.76607765     A.U. after   14 cycles
 SCF Done:  E(RB3LYP) =  -1212.79326061     A.U. after   13 cycles
 SCF Done:  E(RB3LYP) =  -1212.80588226     A.U. after   13 cycles
 SCF Done:  E(RB3LYP) =  -1212.81252971     A.U. after   11 cycles
 SCF Done:  E(RB3LYP) =  -1212.80783857     A.U. after   14 cycles
 SCF Done:  E(RB3LYP) =  -1212.81701006     A.U. after   11 cycles
 SCF Done:  E(RB3LYP) =  -1212.81701224     A.U. after   14 cycles
 SCF Done:  E(RB3LYP) =  -1212.81998400     A.U. after   13 cycles
 SCF Done:  E(RB3LYP) =  -1212.82218046     A.U. after    9 cycles
 SCF Done:  E(RB3LYP) =  -1212.82217626     A.U. after    9 cycles
 SCF Done:  E(RB3LYP) =  -1212.82218082     A.U. after    9 cycles
 SCF Done:  E(RB3LYP) =  -1212.82218081     A.U. after    6 cycles
 SCF Done:  E(RB3LYP) =  -1212.82218076     A.U. after    5 cycles
 SCF Done:  E(RB3LYP) =  -1212.82218075     A.U. after    5 cycles
 Optimization completed.
    -- Stationary point found.
 Normal termination of Gaussian 16 at Sun Jul 18 16:40:10 2021.

 --------------------------------------------------------------------
 #P Geom=AllCheck Guess=TCheck SCRF=Check GenChk RB3LYP/6-31G(d) Freq
 --------------------------------------------------------------------

 Structure from the checkpoint file:  "SET_328_BBB321_conf1.geo_195_210_120.chk"
 ---------------------------------------------
 SET_328_BBB321_conf1.geo_195_210_120 geometry
 ---------------------------------------------
 Charge =  1 Multiplicity = 1

 SCF Done:  E(RB3LYP) =  -1212.82218075     A.U. after    1 cycles

  Exact polarizability: 380.870  -8.967 295.296  -0.266  -0.122  90.872
 Approx polarizability: 388.414 -18.548 355.644  -0.380  -0.181 108.920

 ******    1 imaginary frequencies (negative Signs) ******

                      1                      2                      3
                      A                      A                      A
 Frequencies --   -111.8089                19.0758                43.6958
 Red. masses --      1.1409                 4.4164                 7.6723
 Frc consts  --      0.0084                 0.0009                 0.0086
 IR Inten    --    297.0284                 7.3303                21.7083

                      4                      5                      6
                      A                      A                      A
 Frequencies --     55.2371                59.8717                64.5022
 Red. masses --      4.1686                 1.6394                 3.7437
 Frc consts  --      0.0075                 0.0035                 0.0092
 IR Inten    --      9.3117                 0.6144                30.7543

                      7                      8                      9
                      A                      A                      A
 Frequencies --     71.5036                93.6605               113.8469
 Red. masses --      6.6731                 3.3081                 2.8907
 Frc consts  --      0.0201                 0.0171                 0.0221
 IR Inten    --      3.0271                 0.0593                 2.0131

                     10                     11                     12
                      A                      A                      A
 Frequencies --    121.9789               199.9383               241.0624
 Red. masses --      4.2985                 6.2155                 3.7108
 Frc consts  --      0.0377                 0.1464                 0.1271
 IR Inten    --      1.6571                22.6907                16.7558

                     13                     14                     15
                      A                      A                      A
 Frequencies --    243.7819               256.1151               266.5977
 Red. masses --      5.0419                 3.3846                 3.5467
 Frc consts  --      0.1765                 0.1308                 0.1485
 IR Inten    --      5.0075                 6.0894                19.9160

                     16                     17                     18
                      A                      A                      A
 Frequencies --    295.4023               324.1601               350.4299
 Red. masses --      1.6850                 6.7013                 4.3303
 Frc consts  --      0.0866                 0.4149                 0.3133
 IR Inten    --    263.5444                24.1118                 0.3129

                     19                     20                     21
                      A                      A                      A
 Frequencies --    357.2919               371.2123               384.6110
 Red. masses --      6.7511                 1.1153                 4.6967
 Frc consts  --      0.5078                 0.0906                 0.4093
 IR Inten    --      1.8548               276.8521                 5.0936

                     22                     23                     24
                      A                      A                      A
 Frequencies --    455.2739               491.5842               494.1420
 Red. masses --      3.1828                 3.0042                 1.6685
 Frc consts  --      0.3887                 0.4277                 0.2400
 IR Inten    --      2.5226                24.9737                67.8055

                     25                     26                     27
                      A                      A                      A
 Frequencies --    536.8663               539.3456               556.0565
 Red. masses --      4.0948                 2.4987                 2.8490
 Frc consts  --      0.6954                 0.4283                 0.5190
 IR Inten    --     38.5150                 0.6373                50.5373

                     28                     29                     30
                      A                      A                      A
 Frequencies --    581.2142               604.2370               615.5565
 Red. masses --      2.1546                 2.9291                 9.0888
 Frc consts  --      0.4288                 0.6301                 2.0290
 IR Inten    --     39.7172                16.2392                 0.4202

                     31                     32                     33
                      A                      A                      A
 Frequencies --    629.7742               642.7234               666.0304
 Red. masses --      1.2193                 1.5187                 6.0282
 Frc consts  --      0.2849                 0.3696                 1.5755
 IR Inten    --      1.3486                47.4441                 5.8497

                     34                     35                     36
                      A                      A                      A
 Frequencies --    696.5228               700.7170               707.6281
 Red. masses --      3.9895                 2.8094                 2.4626
 Frc consts  --      1.1404                 0.8127                 0.7265
 IR Inten    --      0.1639                 8.5221                 0.4252

                     37                     38                     39
                      A                      A                      A
 Frequencies --    711.5795               749.4777               822.6938
 Red. masses --      6.1703                 1.7187                 1.4130
 Frc consts  --      1.8408                 0.5688                 0.5635
 IR Inten    --      8.4959                96.3675                18.5769

                     40                     41                     42
                      A                      A                      A
 Frequencies --    827.4228               864.3244               874.9312
 Red. masses --      7.0320                 5.8679                 1.7919
 Frc consts  --      2.8365                 2.5828                 0.8082
 IR Inten    --     43.5633                16.5227                40.1560

                     43                     44                     45
                      A                      A                      A
 Frequencies --    885.4429               929.1699               949.9471
 Red. masses --      4.7973                 1.3713                 5.2690
 Frc consts  --      2.2160                 0.6976                 2.8014
 IR Inten    --     26.7801                 0.1801                 4.2856

                     46                     47                     48
                      A                      A                      A
 Frequencies --    997.5151              1001.8194              1009.5891
 Red. masses --      1.2730                 4.2630                 4.9263
 Frc consts  --      0.7463                 2.5208                 2.9584
 IR Inten    --      2.5063                 5.4630                15.9942

                     49                     50                     51
                      A                      A                      A
 Frequencies --   1015.9032              1041.5139              1066.5744
 Red. masses --      4.9565                 1.6429                 1.6802
 Frc consts  --      3.0139                 1.0500                 1.1261
 IR Inten    --      4.2014                34.2073                19.3550

                     52                     53                     54
                      A                      A                      A
 Frequencies --   1076.6297              1098.2097              1119.7534
 Red. masses --      1.4334                 1.9053                 1.5824
 Frc consts  --      0.9790                 1.3539                 1.1690
 IR Inten    --      1.1109                24.2515                25.8967

                     55                     56                     57
                      A                      A                      A
 Frequencies --   1129.3615              1194.0685              1226.4950
 Red. masses --      1.6409                 1.1110                 1.7484
 Frc consts  --      1.2331                 0.9333                 1.5496
 IR Inten    --     16.4204                 2.7071                26.5446

                     58                     59                     60
                      A                      A                      A
 Frequencies --   1253.4705              1270.0154              1296.7645
 Red. masses --      2.8686                 3.2840                 2.2527
 Frc consts  --      2.6555                 3.1208                 2.2319
 IR Inten    --    253.1059                55.0099               141.0791

                     61                     62                     63
                      A                      A                      A
 Frequencies --   1328.9953              1351.2316              1368.7063
 Red. masses --      2.3470                 2.4292                 4.8094
 Frc consts  --      2.4423                 2.6132                 5.3083
 IR Inten    --     11.2694               203.1337               170.7645

                     64                     65                     66
                      A                      A                      A
 Frequencies --   1422.6346              1460.0830              1490.8882
 Red. masses --      1.2592                 3.0654                 1.0725
 Frc consts  --      1.5015                 3.8503                 1.4046
 IR Inten    --     52.2923                27.1422                19.2028

                     67                     68                     69
                      A                      A                      A
 Frequencies --   1504.6115              1505.6085              1517.4792
 Red. masses --      1.7458                 1.0865                 2.8001
 Frc consts  --      2.3285                 1.4511                 3.7990
 IR Inten    --     47.2986                12.9794               319.1477

                     70                     71                     72
                      A                      A                      A
 Frequencies --   1541.2847              1566.5511              1588.9285
 Red. masses --      1.8371                 3.8647                 2.8916
 Frc consts  --      2.5713                 5.5880                 4.3013
 IR Inten    --    423.0524               237.5002               320.0187

                     73                     74                     75
                      A                      A                      A
 Frequencies --   1597.9269              1615.5110              1634.0372
 Red. masses --      2.7264                 1.4367                 1.9996
 Frc consts  --      4.1017                 2.2091                 3.1457
 IR Inten    --    195.6067               178.2816              1279.8977

                     76                     77                     78
                      A                      A                      A
 Frequencies --   1645.9180              1662.0270              1715.8015
 Red. masses --      4.2526                 5.4196                 3.3296
 Frc consts  --      6.7877                 8.8205                 5.7754
 IR Inten    --      6.9090               278.3198               853.3640

                     79                     80                     81
                      A                      A                      A
 Frequencies --   1742.1617              3080.6495              3149.9189
 Red. masses --      6.3788                 1.0386                 1.0979
 Frc consts  --     11.4069                 5.8073                 6.4182
 IR Inten    --    395.0611                 7.0936                12.9068

                     82                     83                     84
                      A                      A                      A
 Frequencies --   3176.3327              3210.2633              3217.3006
 Red. masses --      1.1049                 1.0895                 1.0899
 Frc consts  --      6.5680                 6.6152                 6.6466
 IR Inten    --     21.5105                38.5184                15.7841

                     85                     86                     87
                      A                      A                      A
 Frequencies --   3243.2580              3288.2763              3304.1404
 Red. masses --      1.0921                 1.0916                 1.0946
 Frc consts  --      6.7681                 6.9543                 7.0410
 IR Inten    --      8.6038                 6.4783                 6.6280

                     88                     89                     90
                      A                      A                      A
 Frequencies --   3480.3148              3525.3111              3554.7863
 Red. masses --      1.0546                 1.0803                 1.0480
 Frc consts  --      7.5264                 7.9099                 7.8023
 IR Inten    --    466.7902               221.8376               370.3847

                     91                     92                     93
                      A                      A                      A
 Frequencies --   3586.8176              3637.4114              3665.4775
 Red. masses --      1.0778                 1.1005                 1.1087
 Frc consts  --      8.1699                 8.5784                 8.7768
 IR Inten    --     93.9504               407.0782               250.5308

 - Thermochemistry -
 -------------------
 Temperature   298.150 Kelvin.  Pressure   1.00000 Atm.
 Atom     1 has atomic number  6 and mass  12.00000

 Molecular mass:   276.09191 amu.
 Principal axes and moments of inertia in atomic units:
                           1         2         3
     Eigenvalues --  1974.61837********************
           X            0.99989   0.01508  -0.00008
           Y           -0.01508   0.99989  -0.00002
           Z            0.00008   0.00002   1.00000
 This molecule is an asymmetric top.
 Rotational symmetry number  1.
 Warning -- assumption of classical behavior for rotation
           may cause significant error
 Rotational temperatures (Kelvin)      0.04386     0.00622     0.00545
 Rotational constants (GHZ):           0.91397     0.12961     0.11360
    1 imaginary frequencies ignored.
 Zero-point vibrational energy     679747.8 (Joules/Mol)
                                  162.46363 (Kcal/Mol)
 Warning -- explicit consideration of  29 degrees of freedom as
           vibrations may cause significant error
 Vibrational temperatures:     27.45    62.87    79.47    86.14    92.80
          (Kelvin)            102.88   134.76   163.80   175.50   287.67
                              346.84   350.75   368.49   383.57   425.02
                              466.39   504.19   514.06   534.09   553.37
                              655.04   707.28   710.96   772.43   776.00
                              800.04   836.24   869.36   885.65   906.10
                              924.74   958.27  1002.14  1008.18  1018.12
                             1023.80  1078.33  1183.67  1190.48  1243.57
                             1258.83  1273.95  1336.87  1366.76  1435.20
                             1441.39  1452.57  1461.66  1498.51  1534.56
                             1549.03  1580.08  1611.08  1624.90  1718.00
                             1764.65  1803.46  1827.27  1865.75  1912.13
                             1944.12  1969.26  2046.85  2100.73  2145.06
                             2164.80  2166.23  2183.31  2217.56  2253.92
                             2286.11  2299.06  2324.36  2351.02  2368.11
                             2391.29  2468.66  2506.58  4432.37  4532.03
                             4570.03  4618.85  4628.98  4666.32  4731.10
                             4753.92  5007.40  5072.14  5114.54  5160.63
                             5233.42  5273.80

 Zero-point correction=                           0.258902 (Hartree/Particle)
 Thermal correction to Energy=                    0.277158
 Thermal correction to Enthalpy=                  0.278102
 Thermal correction to Gibbs Free Energy=         0.210419
 Sum of electronic and zero-point Energies=          -1212.563278
 Sum of electronic and thermal Energies=             -1212.545023
 Sum of electronic and thermal Enthalpies=           -1212.544079
 Sum of electronic and thermal Free Energies=        -1212.611762

                     E (Thermal)             CV                S
                      KCal/Mol        Cal/Mol-Kelvin    Cal/Mol-Kelvin
 Total                  173.919             68.427            142.452
 Electronic               0.000              0.000              0.000
 Translational            0.889              2.981             42.745
 Rotational               0.889              2.981             34.434
 Vibrational            172.142             62.465             65.272
 Vibration     1          0.593              1.986              6.728
 Vibration     2          0.595              1.980              5.084
 Vibration     3          0.596              1.975              4.620
 Vibration     4          0.597              1.973              4.461
 Vibration     5          0.597              1.971              4.314
 Vibration     6          0.598              1.968              4.112
 Vibration     7          0.603              1.954              3.582
 Vibration     8          0.607              1.938              3.202
 Vibration     9          0.609              1.931              3.069
 Vibration    10          0.638              1.840              2.134
 Vibration    11          0.658              1.777              1.795
 Vibration    12          0.659              1.773              1.775
 Vibration    13          0.666              1.752              1.688
 Vibration    14          0.672              1.734              1.618
 Vibration    15          0.690              1.682              1.443
 Vibration    16          0.709              1.627              1.289
 Vibration    17          0.727              1.574              1.164
 Vibration    18          0.732              1.560              1.134
 Vibration    19          0.743              1.531              1.075
 Vibration    20          0.754              1.503              1.021
 Vibration    21          0.814              1.349              0.780
 Vibration    22          0.847              1.269              0.680
 Vibration    23          0.850              1.263              0.673
 Vibration    24          0.892              1.168              0.572
 Vibration    25          0.894              1.163              0.567
 Vibration    26          0.912              1.126              0.532
 Vibration    27          0.938              1.072              0.483
 Vibration    28          0.963              1.023              0.442
 Vibration    29          0.975              0.999              0.424

                           ! Non-Optimized Parameters !
 Normal termination of Gaussian 16 at Sun Jul 18 16:50:11 2021.

 ----------------------------------------------------------------------
 #p b3lyp/6-31G(d) scrf=(iefpcm,read,solvent=water) geom=allcheck guess
 =read
 ----------------------------------------------------------------------

 Structure from the checkpoint file:  "SET_328_BBB321_conf1.geo_195_210_120.chk"
 ---------------------------------------------
 SET_328_BBB321_conf1.geo_195_210_120 geometry
 ---------------------------------------------
 Charge =  1 Multiplicity = 1

 SCF Done:  E(RB3LYP) =  -1212.82218075     A.U. after    2 cycles
 Normal termination of Gaussian 16 at Sun Jul 18 16:50:25 2021.

 -----------------------------
 #p B3LYP/6-31G* geom=allcheck
 -----------------------------

 Structure from the checkpoint file:  "SET_328_BBB321_conf1.geo_195_210_120.chk"
 ---------------------------------------------
 SET_328_BBB321_conf1.geo_195_210_120 geometry
 ---------------------------------------------
 Charge =  1 Multiplicity = 1

 SCF Done:  E(RB3LYP) =  -1212.69323220     A.U. after   16 cycles
 Normal termination of Gaussian 16 at Sun Jul 18 16:51:07 2021.
 Gaussian 16:  ES64L-G16RevB.01 20-Dec-2017

 --------------------------------------------------------
 #p mp2/aug-cc-pVDZ scf=tight maxdisk=180GB geom=allcheck
 --------------------------------------------------------

 Structure from the checkpoint file:  "SET_328_BBB321_conf1.geo_195_210_120.chk"
 ---------------------------------------------
 SET_328_BBB321_conf1.geo_195_210_120 geometry
 ---------------------------------------------
 Charge =  1 Multiplicity = 1

                         Standard orientation:
 ---------------------------------------------------------------------
 Center     Atomic      Atomic             Coordinates (Angstroms)
 Number     Number       Type             X           Y           Z
 ---------------------------------------------------------------------
      1          6           0       -6.463884   -1.180973    0.039868
      2          1           0       -6.829547   -1.282626    1.066769
      3          1           0       -6.083735   -2.149989   -0.288491
      4          1           0       -7.308723   -0.890897   -0.587542
      5          6           0       -5.421991   -0.080077   -0.005667
      6          8           0       -5.740869    1.109775   -0.012225
      7          7           0       -4.125887   -0.521930   -0.011027
      8          1           0       -3.995050   -1.529148   -0.004201
      9          6           0       -2.935801    0.231487   -0.008334
     10          6           0       -2.907680    1.637057   -0.009762
     11          6           0       -1.675620    2.290008   -0.008785
     12          6           0       -0.475517    1.582644   -0.006813
     13          1           0        0.474504    2.101863   -0.006517
     14          1           0       -1.656103    3.375014   -0.009936
     15          1           0       -3.837854    2.184149   -0.011609
     16          6           0       -1.730231   -0.481798   -0.006317
     17          1           0       -1.760660   -1.565552   -0.005476
     18          6           0       -0.495657    0.179340   -0.005693
     19          6           0        0.764075   -0.585677   -0.004784
     20          7           0        1.974427    0.097852   -0.003610
     21          6           0        0.883441   -1.948153   -0.006185
     22          1           0        0.106343   -2.696139   -0.008055
     23         16           0        2.551641   -2.428415   -0.005861
     24          6           0        2.981839   -0.724101   -0.004088
     25          7           0        4.315288   -0.356832   -0.001975
     26          6           0        4.817674    0.913306    0.009284
     27          7           0        6.141067    1.046000    0.000016
     28          1           0        6.747579    0.233502    0.045542
     29          1           0        6.557185    1.969552    0.059516
     30          7           0        4.013413    1.964627    0.018085
     31          1           0        3.004329    1.825468    0.013066
     32          1           0        4.405097    2.900915    0.031143
     33          1           0        5.005278   -1.106084   -0.009390
 ---------------------------------------------------------------------

 SCF Done:  E(RHF) =  -1207.15437424     A.U. after   18 cycles
 E2 =    -0.2816655881D+01 EUMP2 =    -0.12099710301214D+04

 The electronic state is 1-A.
 Alpha  occ. eigenvalues --  -92.13539 -20.60387 -15.81719 -15.80208 -15.78890
 Alpha  occ. eigenvalues --  -15.72113 -15.69137 -11.60871 -11.51518 -11.43979
 Alpha  occ. eigenvalues --  -11.41406 -11.39187 -11.38391 -11.35626 -11.33779
 Alpha  occ. eigenvalues --  -11.33224 -11.33100 -11.31999 -11.31269  -9.13704
 Alpha  occ. eigenvalues --   -6.81868  -6.81761  -6.81567  -1.55326  -1.45586
 Alpha  occ. eigenvalues --   -1.45553  -1.39683  -1.38919  -1.33873  -1.24570
 Alpha  occ. eigenvalues --   -1.20527  -1.16931  -1.11772  -1.10910  -1.06366
 Alpha  occ. eigenvalues --   -1.05341  -0.99699  -0.98869  -0.95311  -0.93843
 Alpha  occ. eigenvalues --   -0.91142  -0.89147  -0.86670  -0.85828  -0.84406
 Alpha  occ. eigenvalues --   -0.82960  -0.82083  -0.81092  -0.76799  -0.75155
 Alpha  occ. eigenvalues --   -0.72373  -0.72313  -0.70920  -0.70000  -0.69349
 Alpha  occ. eigenvalues --   -0.68278  -0.65753  -0.64228  -0.64172  -0.63280
 Alpha  occ. eigenvalues --   -0.62378  -0.61551  -0.61454  -0.59028  -0.58068
 Alpha  occ. eigenvalues --   -0.57999  -0.53242  -0.51825  -0.49439  -0.47621
 Alpha  occ. eigenvalues --   -0.40935  -0.39022
 Alpha virt. eigenvalues --   -0.09196  -0.07129  -0.05465  -0.04951  -0.04483
 Alpha virt. eigenvalues --   -0.03493  -0.03392  -0.02961  -0.02336  -0.01781
 Alpha virt. eigenvalues --   -0.01443  -0.00345  -0.00049   0.00260   0.00701

 Mulliken charges:
               1
     1  C    0.442744
     2  H    0.076174
     3  H   -0.142077
     4  H    0.016498
     5  C    0.532823
     6  O   -0.860013
     7  N   -0.584965
     8  H   -0.019623
     9  C   -0.446649
    10  C    1.129771
    11  C   -0.070820
    12  C    0.849683
    13  H   -0.545995
    14  H   -0.575313
    15  H   -0.642683
    16  C    1.150180
    17  H   -0.773696
    18  C    1.567909
    19  C   -0.796303
    20  N   -0.706301
    21  C    0.567863
    22  H   -0.614767
    23  S    0.503513
    24  C    0.607957
    25  N   -0.743385
    26  C    1.324782
    27  N   -0.265326
    28  H    0.002047
    29  H    0.031091
    30  N   -0.115409
    31  H    0.089788
    32  H    0.010498
    33  H    0.000004
 Sum of Mulliken charges =   1.00000

 Dipole moment (field-independent basis, Debye):
    X=             20.2412    Y=             -0.9884    Z=              0.2783  Tot=             20.2673
 Quadrupole moment (field-independent basis, Debye-Ang):
   XX=             15.9989   YY=            -87.7697   ZZ=           -124.6031
   XY=             40.6882   XZ=              0.9018   YZ=              0.3271

 Normal termination of Gaussian 16 at Sun Jul 18 17:21:15 2021.
