 Gaussian 16, Revision B.01,

 -----------------------------------------------------------
 #p b3lyp/6-31G(d) opt freq scrf=(iefpcm,read,solvent=water)
 -----------------------------------------------------------

 ---------------------------------------------
 SET_328_BBB292_conf1.geo_075_060_105 geometry
 ---------------------------------------------
 Symbolic Z-matrix:
 Charge =  1 Multiplicity = 1

 SCF Done:  E(RB3LYP) =  -705.576905158     A.U. after   13 cycles
 SCF Done:  E(RB3LYP) =  -705.649649233     A.U. after   12 cycles
 SCF Done:  E(RB3LYP) =  -705.693148304     A.U. after   13 cycles
 SCF Done:  E(RB3LYP) =  -705.699561362     A.U. after   12 cycles
 SCF Done:  E(RB3LYP) =  -705.701943204     A.U. after   11 cycles
 SCF Done:  E(RB3LYP) =  -705.704007017     A.U. after   10 cycles
 SCF Done:  E(RB3LYP) =  -705.705373202     A.U. after   11 cycles
 SCF Done:  E(RB3LYP) =  -705.707218342     A.U. after   13 cycles
 SCF Done:  E(RB3LYP) =  -705.708151392     A.U. after   11 cycles
 SCF Done:  E(RB3LYP) =  -705.708569051     A.U. after   13 cycles
 SCF Done:  E(RB3LYP) =  -705.710189377     A.U. after    8 cycles
 SCF Done:  E(RB3LYP) =  -705.710191146     A.U. after    8 cycles
 SCF Done:  E(RB3LYP) =  -705.710189796     A.U. after    8 cycles
 SCF Done:  E(RB3LYP) =  -705.710190906     A.U. after    8 cycles
 SCF Done:  E(RB3LYP) =  -705.710191217     A.U. after    7 cycles
 SCF Done:  E(RB3LYP) =  -705.710190933     A.U. after    7 cycles
 Optimization completed.
    -- Stationary point found.
 Normal termination of Gaussian 16 at Sun Jul 18 14:09:56 2021.

 --------------------------------------------------------------------
 #P Geom=AllCheck Guess=TCheck SCRF=Check GenChk RB3LYP/6-31G(d) Freq
 --------------------------------------------------------------------

 Structure from the checkpoint file:  "SET_328_BBB292_conf1.geo_075_060_105.chk"
 ---------------------------------------------
 SET_328_BBB292_conf1.geo_075_060_105 geometry
 ---------------------------------------------
 Charge =  1 Multiplicity = 1

 SCF Done:  E(RB3LYP) =  -705.710190933     A.U. after    1 cycles

  Exact polarizability: 176.244  -7.109 152.191 -32.200 -20.843 105.509
 Approx polarizability: 197.466  -7.223 177.406 -42.510 -26.140 127.029

                      1                      2                      3
                      A                      A                      A
 Frequencies --     37.3253                48.3327                89.0175
 Red. masses --      5.5339                10.1268                 5.2788
 Frc consts  --      0.0045                 0.0139                 0.0246
 IR Inten    --      6.5735                 9.0964                 8.9455

                      4                      5                      6
                      A                      A                      A
 Frequencies --    102.6970               144.8346               191.5923
 Red. masses --      5.9374                 6.2151                 2.6248
 Frc consts  --      0.0369                 0.0768                 0.0568
 IR Inten    --     15.2864                10.9408               128.7752

                      7                      8                      9
                      A                      A                      A
 Frequencies --    233.5156               242.8988               266.6907
 Red. masses --      1.8288                 2.5249                 1.1170
 Frc consts  --      0.0588                 0.0878                 0.0468
 IR Inten    --    145.5097                42.8857                 1.9997

                     10                     11                     12
                      A                      A                      A
 Frequencies --    273.6712               284.5790               313.9204
 Red. masses --      3.6027                 3.5228                 5.1510
 Frc consts  --      0.1590                 0.1681                 0.2991
 IR Inten    --     24.6010                47.1624                 6.0820

                     13                     14                     15
                      A                      A                      A
 Frequencies --    373.2723               388.5184               415.5452
 Red. masses --      3.5761                 3.8758                 1.1098
 Frc consts  --      0.2936                 0.3447                 0.1129
 IR Inten    --     15.9867                29.6456                72.3771

                     16                     17                     18
                      A                      A                      A
 Frequencies --    461.2555               481.1528               509.7393
 Red. masses --      3.4338                 5.1058                 3.8640
 Frc consts  --      0.4304                 0.6964                 0.5915
 IR Inten    --      2.3257                 7.4508                27.1010

                     19                     20                     21
                      A                      A                      A
 Frequencies --    525.5308               563.7584               599.0050
 Red. masses --      1.2791                 4.1444                 5.5358
 Frc consts  --      0.2081                 0.7761                 1.1703
 IR Inten    --    162.1794                 3.4182                21.8103

                     22                     23                     24
                      A                      A                      A
 Frequencies --    617.2825               635.7541               705.2381
 Red. masses --      2.9970                 4.4763                 5.6505
 Frc consts  --      0.6728                 1.0660                 1.6558
 IR Inten    --      9.0563                11.6559                 0.9338

                     25                     26                     27
                      A                      A                      A
 Frequencies --    749.6870               771.3436               807.4539
 Red. masses --      5.2532                 4.7978                 3.6493
 Frc consts  --      1.7395                 1.6818                 1.4018
 IR Inten    --      4.3608                20.4994                10.2530

                     28                     29                     30
                      A                      A                      A
 Frequencies --    815.5715               830.7710               876.0179
 Red. masses --      5.5218                 1.5207                 1.3870
 Frc consts  --      2.1640                 0.6184                 0.6271
 IR Inten    --     16.0996                34.7183                37.2742

                     31                     32                     33
                      A                      A                      A
 Frequencies --    933.3953               949.8668               954.0810
 Red. masses --      1.3163                 2.1560                 1.7352
 Frc consts  --      0.6757                 1.1461                 0.9306
 IR Inten    --      0.1966                15.6991                40.0352

                     34                     35                     36
                      A                      A                      A
 Frequencies --    987.3946              1027.2398              1093.5034
 Red. masses --      2.3681                 3.1592                 1.6037
 Frc consts  --      1.3603                 1.9641                 1.1298
 IR Inten    --     27.1704                32.2458                81.5485

                     37                     38                     39
                      A                      A                      A
 Frequencies --   1130.3746              1148.6948              1177.4709
 Red. masses --      1.6765                 1.6978                 1.6887
 Frc consts  --      1.2621                 1.3199                 1.3795
 IR Inten    --    163.9016                49.5946               105.2745

                     40                     41                     42
                      A                      A                      A
 Frequencies --   1194.9148              1225.4833              1229.9698
 Red. masses --      1.3841                 1.6044                 1.4998
 Frc consts  --      1.1644                 1.4196                 1.3368
 IR Inten    --     24.3536               162.0886               103.0660

                     43                     44                     45
                      A                      A                      A
 Frequencies --   1286.5012              1299.7842              1330.7017
 Red. masses --      1.9967                 2.1700                 2.8942
 Frc consts  --      1.9471                 2.1600                 3.0196
 IR Inten    --     88.5512               176.2118               162.1462

                     46                     47                     48
                      A                      A                      A
 Frequencies --   1341.9609              1371.4971              1382.2794
 Red. masses --      1.5972                 1.3686                 1.6805
 Frc consts  --      1.6947                 1.5168                 1.8918
 IR Inten    --    410.0993                68.4128                67.3435

                     49                     50                     51
                      A                      A                      A
 Frequencies --   1398.7455              1408.7312              1424.2451
 Red. masses --      1.3018                 1.5820                 2.6776
 Frc consts  --      1.5006                 1.8498                 3.2001
 IR Inten    --    135.5077               119.8492                59.2981

                     52                     53                     54
                      A                      A                      A
 Frequencies --   1488.5149              1523.7025              1568.0494
 Red. masses --      3.4699                 1.1668                 1.0813
 Frc consts  --      4.5298                 1.5960                 1.5665
 IR Inten    --    119.1467               192.7843                48.7647

                     55                     56                     57
                      A                      A                      A
 Frequencies --   1586.1598              1631.3379              1639.1845
 Red. masses --      2.6635                 1.0441                 1.0442
 Frc consts  --      3.9482                 1.6371                 1.6530
 IR Inten    --    121.2804                99.1126               100.9630

                     58                     59                     60
                      A                      A                      A
 Frequencies --   1662.6786              1668.6868              1837.9579
 Red. masses --      5.9599                 6.0895                 8.6808
 Frc consts  --      9.7075                 9.9903                17.2775
 IR Inten    --     43.7097                32.9417               379.9602

                     61                     62                     63
                      A                      A                      A
 Frequencies --   3084.3339              3146.2084              3178.4820
 Red. masses --      1.0675                 1.0927                 1.0894
 Frc consts  --      5.9832                 6.3728                 6.4844
 IR Inten    --     33.0057                17.4193                 7.9716

                     64                     65                     66
                      A                      A                      A
 Frequencies --   3204.8891              3209.0068              3224.0862
 Red. masses --      1.0899                 1.0878                 1.0945
 Frc consts  --      6.5956                 6.6002                 6.7033
 IR Inten    --     18.1296                15.8204                18.3043

                     67                     68                     69
                      A                      A                      A
 Frequencies --   3366.9552              3427.5655              3440.1491
 Red. masses --      1.0323                 1.0938                 1.0955
 Frc consts  --      6.8946                 7.5712                 7.6385
 IR Inten    --    189.6564               267.2809               257.2442

                     70                     71                     72
                      A                      A                      A
 Frequencies --   3690.2052              3712.3596              3722.8404
 Red. masses --      1.0655                 1.0667                 1.0665
 Frc consts  --      8.5491                 8.6613                 8.7091
 IR Inten    --    229.7988               193.2878               223.4331

 - Thermochemistry -
 -------------------
 Temperature   298.150 Kelvin.  Pressure   1.00000 Atm.
 Atom     1 has atomic number  7 and mass  14.00307

 Molecular mass:   198.07663 amu.
 Principal axes and moments of inertia in atomic units:
                           1         2         3
     Eigenvalues --  1360.388384917.304335319.04856
           X            0.99982  -0.01419  -0.01223
           Y            0.01365   0.99898  -0.04308
           Z            0.01283   0.04290   0.99900
 This molecule is an asymmetric top.
 Rotational symmetry number  1.
 Warning -- assumption of classical behavior for rotation
           may cause significant error
 Rotational temperatures (Kelvin)      0.06367     0.01761     0.01628
 Rotational constants (GHZ):           1.32664     0.36702     0.33930
 Zero-point vibrational energy     560248.1 (Joules/Mol)
                                  133.90250 (Kcal/Mol)
 Warning -- explicit consideration of  22 degrees of freedom as
           vibrations may cause significant error
 Vibrational temperatures:     53.70    69.54   128.08   147.76   208.38
          (Kelvin)            275.66   335.98   349.48   383.71   393.75
                              409.45   451.66   537.06   558.99   597.88
                              663.64   692.27   733.40   756.12   811.12
                              861.83   888.13   914.71  1014.68  1078.63
                             1109.79  1161.75  1173.43  1195.29  1260.39
                             1342.95  1366.65  1372.71  1420.64  1477.97
                             1573.31  1626.36  1652.72  1694.12  1719.22
                             1763.20  1769.65  1850.99  1870.10  1914.58
                             1930.78  1973.28  1988.79  2012.48  2026.85
                             2049.17  2141.64  2192.27  2256.07  2282.13
                             2347.13  2358.42  2392.22  2400.87  2644.41
                             4437.67  4526.69  4573.13  4611.12  4617.05
                             4638.74  4844.30  4931.50  4949.61  5309.38
                             5341.26  5356.34

 Zero-point correction=                           0.213387 (Hartree/Particle)
 Thermal correction to Energy=                    0.226921
 Thermal correction to Enthalpy=                  0.227865
 Thermal correction to Gibbs Free Energy=         0.172850
 Sum of electronic and zero-point Energies=           -705.496804
 Sum of electronic and thermal Energies=              -705.483270
 Sum of electronic and thermal Enthalpies=            -705.482326
 Sum of electronic and thermal Free Energies=         -705.537341

                     E (Thermal)             CV                S
                      KCal/Mol        Cal/Mol-Kelvin    Cal/Mol-Kelvin
 Total                  142.395             51.419            115.789
 Electronic               0.000              0.000              0.000
 Translational            0.889              2.981             41.755
 Rotational               0.889              2.981             31.943
 Vibrational            140.617             45.458             42.091
 Vibration     1          0.594              1.982              5.396
 Vibration     2          0.595              1.978              4.884
 Vibration     3          0.602              1.957              3.682
 Vibration     4          0.605              1.947              3.402
 Vibration     5          0.616              1.908              2.739
 Vibration     6          0.634              1.851              2.212
 Vibration     7          0.654              1.790              1.852
 Vibration     8          0.659              1.774              1.782
 Vibration     9          0.672              1.734              1.618
 Vibration    10          0.676              1.722              1.573
 Vibration    11          0.683              1.702              1.506
 Vibration    12          0.702              1.647              1.342
 Vibration    13          0.745              1.527              1.066
 Vibration    14          0.757              1.495              1.006
 Vibration    15          0.779              1.436              0.907
 Vibration    16          0.819              1.336              0.762
 Vibration    17          0.837              1.292              0.707
 Vibration    18          0.865              1.228              0.634
 Vibration    19          0.880              1.193              0.597
 Vibration    20          0.920              1.110              0.516
 Vibration    21          0.957              1.034              0.451
 Vibration    22          0.977              0.995              0.421

 Optimization completed.
    -- Stationary point found.
 Normal termination of Gaussian 16 at Sun Jul 18 14:16:05 2021.

 ----------------------------------------------------------------------
 #p b3lyp/6-31G(d) scrf=(iefpcm,read,solvent=water) geom=allcheck guess
 =read
 ----------------------------------------------------------------------

 Structure from the checkpoint file:  "SET_328_BBB292_conf1.geo_075_060_105.chk"
 ---------------------------------------------
 SET_328_BBB292_conf1.geo_075_060_105 geometry
 ---------------------------------------------
 Charge =  1 Multiplicity = 1

 SCF Done:  E(RB3LYP) =  -705.710190933     A.U. after    1 cycles
 Normal termination of Gaussian 16 at Sun Jul 18 14:16:12 2021.

 -----------------------------
 #p B3LYP/6-31G* geom=allcheck
 -----------------------------

 Structure from the checkpoint file:  "SET_328_BBB292_conf1.geo_075_060_105.chk"
 ---------------------------------------------
 SET_328_BBB292_conf1.geo_075_060_105 geometry
 ---------------------------------------------
 Charge =  1 Multiplicity = 1

 SCF Done:  E(RB3LYP) =  -705.552539685     A.U. after   16 cycles

 The electronic state is 1-A.
 Alpha  occ. eigenvalues --  -19.36618 -19.29586 -19.29582 -19.27152 -14.68160
 Alpha  occ. eigenvalues --  -10.48888 -10.44974 -10.37654 -10.36239 -10.35528
 Alpha  occ. eigenvalues --  -10.32337 -10.31213 -10.30498 -10.29392  -1.27059
 Alpha  occ. eigenvalues --   -1.22041  -1.18027  -1.17823  -1.14550  -0.99351
 Alpha  occ. eigenvalues --   -0.95420  -0.88347  -0.85730  -0.83057  -0.81179
 Alpha  occ. eigenvalues --   -0.79029  -0.78718  -0.75116  -0.73257  -0.70544
 Alpha  occ. eigenvalues --   -0.67661  -0.65766  -0.64768  -0.62213  -0.59847
 Alpha  occ. eigenvalues --   -0.59396  -0.58156  -0.57298  -0.55936  -0.54601
 Alpha  occ. eigenvalues --   -0.53633  -0.53250  -0.51371  -0.49405  -0.47804
 Alpha  occ. eigenvalues --   -0.47340  -0.46714  -0.45125  -0.44026  -0.42927
 Alpha  occ. eigenvalues --   -0.35102  -0.31872
 Alpha virt. eigenvalues --   -0.19378  -0.16519  -0.12966  -0.12153  -0.11017
 Alpha virt. eigenvalues --   -0.10382  -0.08206  -0.04774  -0.04509  -0.02939
 Alpha virt. eigenvalues --   -0.01485   0.00185   0.00727   0.01749   0.03079

 Mulliken charges:
               1
     1  N   -0.729288
     2  H    0.445166
     3  H    0.436320
     4  C   -0.165738
     5  C    0.624202
     6  O   -0.518529
     7  H    0.410126
     8  O   -0.372323
     9  H    0.251990
    10  C   -0.392199
    11  H    0.164917
    12  H    0.183549
    13  C    0.171601
    14  C   -0.245844
    15  H    0.118640
    16  C    0.323549
    17  O   -0.658498
    18  H    0.428112
    19  C    0.342011
    20  O   -0.627715
    21  H    0.441362
    22  C   -0.162870
    23  H    0.177264
    24  C   -0.189530
    25  H    0.129354
    26  H    0.414368
 Sum of Mulliken charges =   1.00000

 Dipole moment (field-independent basis, Debye):
    X=            -13.7757    Y=              8.1267    Z=              3.7224  Tot=             16.4216
 Quadrupole moment (field-independent basis, Debye-Ang):
   XX=            -11.8441   YY=            -62.4823   ZZ=            -79.4535
   XY=            -13.1495   XZ=            -15.2878   YZ=             -6.7817

 Normal termination of Gaussian 16 at Sun Jul 18 14:16:43 2021.
 Gaussian 16:  ES64L-G16RevB.01 20-Dec-2017

 --------------------------------------------------------
 #p mp2/aug-cc-pVDZ scf=tight maxdisk=180GB geom=allcheck
 --------------------------------------------------------

 Structure from the checkpoint file:  "SET_328_BBB292_conf1.geo_075_060_105.chk"
 ---------------------------------------------
 SET_328_BBB292_conf1.geo_075_060_105 geometry
 ---------------------------------------------
 Charge =  1 Multiplicity = 1

                         Standard orientation:
 ---------------------------------------------------------------------
 Center     Atomic      Atomic             Coordinates (Angstroms)
 Number     Number       Type             X           Y           Z
 ---------------------------------------------------------------------
      1          7           0       -3.610456    1.208883    0.293449
      2          1           0       -4.260258    1.224468   -0.509432
      3          1           0       -3.551823    2.175787    0.658591
      4          6           0       -2.241115    0.720929   -0.108528
      5          6           0       -2.330448   -0.652597   -0.797433
      6          8           0       -2.874481   -1.685347   -0.140844
      7          1           0       -3.139637   -1.487011    0.779078
      8          8           0       -1.899136   -0.806466   -1.917524
      9          1           0       -1.900110    1.405431   -0.882183
     10          6           0       -1.291095    0.770112    1.107469
     11          1           0       -1.697719    0.165982    1.923624
     12          1           0       -1.276431    1.806875    1.459417
     13          6           0        0.111167    0.308173    0.770197
     14          6           0        1.014173    1.186183    0.147992
     15          1           0        0.717285    2.207753   -0.072505
     16          6           0        2.297514    0.763464   -0.181709
     17          8           0        3.248916    1.540836   -0.782474
     18          1           0        2.903089    2.437392   -0.941883
     19          6           0        2.703475   -0.554748    0.108538
     20          8           0        3.960639   -0.975058   -0.207789
     21          1           0        4.431861   -0.232718   -0.627658
     22          6           0        1.813591   -1.424362    0.729448
     23          1           0        2.141216   -2.433536    0.954989
     24          6           0        0.524477   -0.995485    1.059139
     25          1           0       -0.156673   -1.683600    1.548362
     26          1           0       -4.035548    0.629263    1.033827
 ---------------------------------------------------------------------

 SCF Done:  E(RHF) =  -701.560730644     A.U. after   16 cycles
