 Gaussian 16, Revision B.01,

 -----------------------------------------------------------
 #p b3lyp/6-31G(d) opt freq scrf=(iefpcm,read,solvent=water)
 -----------------------------------------------------------

 ---------------------------------------------
 SET_328_BBB292_conf1.geo_075_060_255 geometry
 ---------------------------------------------
 Symbolic Z-matrix:
 Charge =  1 Multiplicity = 1

 SCF Done:  E(RB3LYP) =  -705.675263985     A.U. after   13 cycles
 SCF Done:  E(RB3LYP) =  -705.704053983     A.U. after   11 cycles
 SCF Done:  E(RB3LYP) =  -705.713024454     A.U. after   11 cycles
 SCF Done:  E(RB3LYP) =  -705.714249177     A.U. after   11 cycles
 SCF Done:  E(RB3LYP) =  -705.714936767     A.U. after   11 cycles
 SCF Done:  E(RB3LYP) =  -705.714792972     A.U. after   11 cycles
 SCF Done:  E(RB3LYP) =  -705.715819562     A.U. after   11 cycles
 SCF Done:  E(RB3LYP) =  -705.716010617     A.U. after   10 cycles
 SCF Done:  E(RB3LYP) =  -705.716049241     A.U. after   10 cycles
 SCF Done:  E(RB3LYP) =  -705.716070658     A.U. after    9 cycles
 SCF Done:  E(RB3LYP) =  -705.716086391     A.U. after    7 cycles
 SCF Done:  E(RB3LYP) =  -705.716088738     A.U. after    7 cycles
 SCF Done:  E(RB3LYP) =  -705.716090116     A.U. after    7 cycles
 SCF Done:  E(RB3LYP) =  -705.716092954     A.U. after    7 cycles
 SCF Done:  E(RB3LYP) =  -705.716093866     A.U. after    7 cycles
 SCF Done:  E(RB3LYP) =  -705.716094626     A.U. after    6 cycles
 Optimization completed.
    -- Stationary point found.
 Normal termination of Gaussian 16 at Sun Jul 18 13:59:25 2021.

 --------------------------------------------------------------------
 #P Geom=AllCheck Guess=TCheck SCRF=Check GenChk RB3LYP/6-31G(d) Freq
 --------------------------------------------------------------------

 Structure from the checkpoint file:  "SET_328_BBB292_conf1.geo_075_060_255.chk"
 ---------------------------------------------
 SET_328_BBB292_conf1.geo_075_060_255 geometry
 ---------------------------------------------
 Charge =  1 Multiplicity = 1

 SCF Done:  E(RB3LYP) =  -705.716094626     A.U. after    1 cycles

  Exact polarizability: 184.287   8.480 146.386 -30.878  19.272 101.681
 Approx polarizability: 206.566   6.664 173.081 -39.228  26.990 117.435

                      1                      2                      3
                      A                      A                      A
 Frequencies --     36.7610                49.3144                61.1150
 Red. masses --      6.9669                 6.9296                 7.4128
 Frc consts  --      0.0055                 0.0099                 0.0163
 IR Inten    --      1.9761                 7.7439                 0.3426

                      4                      5                      6
                      A                      A                      A
 Frequencies --     93.0203               116.1488               149.0418
 Red. masses --      4.3029                 1.7440                 5.3787
 Frc consts  --      0.0219                 0.0139                 0.0704
 IR Inten    --     21.4340               236.0668                17.2587

                      7                      8                      9
                      A                      A                      A
 Frequencies --    211.3274               230.6370               269.8875
 Red. masses --      4.2681                 1.0874                 4.7140
 Frc consts  --      0.1123                 0.0341                 0.2023
 IR Inten    --      5.4806                 4.7206                 3.1838

                     10                     11                     12
                      A                      A                      A
 Frequencies --    280.2846               293.9181               299.1962
 Red. masses --      3.9609                 3.1221                 2.4085
 Frc consts  --      0.1833                 0.1589                 0.1270
 IR Inten    --     24.2075                12.2215                17.7695

                     13                     14                     15
                      A                      A                      A
 Frequencies --    319.6720               390.5592               452.6456
 Red. masses --      2.1000                 4.6836                 4.5440
 Frc consts  --      0.1264                 0.4209                 0.5485
 IR Inten    --    106.5704                 1.6093                34.9227

                     16                     17                     18
                      A                      A                      A
 Frequencies --    465.9287               475.8786               518.4874
 Red. masses --      3.4214                 4.5126                 1.0945
 Frc consts  --      0.4376                 0.6021                 0.1734
 IR Inten    --     32.0324                 9.4031                98.6784

                     19                     20                     21
                      A                      A                      A
 Frequencies --    555.2298               566.4678               591.7170
 Red. masses --      4.4341                 1.2354                 4.7203
 Frc consts  --      0.8054                 0.2336                 0.9738
 IR Inten    --      8.1089               168.5999                 5.0346

                     22                     23                     24
                      A                      A                      A
 Frequencies --    619.3566               642.4632               709.8165
 Red. masses --      4.1167                 4.0033                 5.0532
 Frc consts  --      0.9304                 0.9736                 1.5001
 IR Inten    --     16.8760                26.1177                 5.5133

                     25                     26                     27
                      A                      A                      A
 Frequencies --    758.2771               764.4517               799.3810
 Red. masses --      4.4336                 5.2233                 2.7878
 Frc consts  --      1.5020                 1.7984                 1.0496
 IR Inten    --     27.0049                21.2443                41.4745

                     28                     29                     30
                      A                      A                      A
 Frequencies --    809.6682               840.7680               899.8231
 Red. masses --      4.0762                 1.4955                 1.3716
 Frc consts  --      1.5744                 0.6229                 0.6543
 IR Inten    --     27.1843                43.7207                34.7977

                     31                     32                     33
                      A                      A                      A
 Frequencies --    945.3503               954.1858               955.9153
 Red. masses --      1.5863                 1.8480                 1.6923
 Frc consts  --      0.8352                 0.9913                 0.9111
 IR Inten    --      7.7256                15.8911                21.5706

                     34                     35                     36
                      A                      A                      A
 Frequencies --    982.0455              1051.1641              1105.5782
 Red. masses --      2.4823                 3.3835                 1.5960
 Frc consts  --      1.4105                 2.2027                 1.1494
 IR Inten    --     24.9181                37.1012                57.0782

                     37                     38                     39
                      A                      A                      A
 Frequencies --   1131.2874              1155.1679              1170.8384
 Red. masses --      1.5966                 1.4171                 1.8298
 Frc consts  --      1.2039                 1.1142                 1.4779
 IR Inten    --     64.2837                29.2315                55.0013

                     40                     41                     42
                      A                      A                      A
 Frequencies --   1190.4109              1193.4209              1226.9295
 Red. masses --      2.0625                 1.2552                 1.6412
 Frc consts  --      1.7220                 1.0533                 1.4557
 IR Inten    --    198.8883               173.8324               107.7642

                     43                     44                     45
                      A                      A                      A
 Frequencies --   1236.2491              1263.0941              1319.8212
 Red. masses --      1.4450                 2.9792                 1.4022
 Frc consts  --      1.3011                 2.8004                 1.4391
 IR Inten    --    200.2566               155.7472                 7.1086

                     46                     47                     48
                      A                      A                      A
 Frequencies --   1326.8649              1346.0552              1367.1297
 Red. masses --      4.8828                 1.5207                 1.2916
 Frc consts  --      5.0649                 1.6234                 1.4223
 IR Inten    --    176.7286                67.6392                18.6069

                     49                     50                     51
                      A                      A                      A
 Frequencies --   1383.9277              1414.5376              1462.5630
 Red. masses --      1.4013                 2.4187                 2.2640
 Frc consts  --      1.5812                 2.8514                 2.8534
 IR Inten    --     19.3842                 7.1352                47.6370

                     52                     53                     54
                      A                      A                      A
 Frequencies --   1490.5091              1517.1215              1532.2492
 Red. masses --      3.4874                 1.1080                 1.1708
 Frc consts  --      4.5648                 1.5026                 1.6196
 IR Inten    --     22.2169                 6.7722               310.9910

                     55                     56                     57
                      A                      A                      A
 Frequencies --   1551.3952              1619.3830              1644.8400
 Red. masses --      3.6047                 1.0410                 1.3461
 Frc consts  --      5.1118                 1.6084                 2.1457
 IR Inten    --    298.8875                93.7549                53.2269

                     58                     59                     60
                      A                      A                      A
 Frequencies --   1648.8612              1673.4541              1810.9124
 Red. masses --      2.6475                 6.5698                10.2099
 Frc consts  --      4.2409                10.8400                19.7272
 IR Inten    --     55.0517                15.1650               521.0687

                     61                     62                     63
                      A                      A                      A
 Frequencies --   3079.4991              3128.7084              3169.5145
 Red. masses --      1.0613                 1.1020                 1.0875
 Frc consts  --      5.9298                 6.3560                 6.4366
 IR Inten    --     38.2549                15.0028                 6.0705

                     64                     65                     66
                      A                      A                      A
 Frequencies --   3201.1040              3208.9529              3217.3738
 Red. masses --      1.0880                 1.0910                 1.0946
 Frc consts  --      6.5688                 6.6194                 6.6757
 IR Inten    --     16.4770                17.2537                16.1218

                     67                     68                     69
                      A                      A                      A
 Frequencies --   3365.6501              3439.3340              3472.8848
 Red. masses --      1.0431                 1.0846                 1.0927
 Frc consts  --      6.9614                 7.5593                 7.7650
 IR Inten    --    178.1982               263.7804               248.8117

                     70                     71                     72
                      A                      A                      A
 Frequencies --   3640.1107              3679.3944              3691.5482
 Red. masses --      1.0645                 1.0664                 1.0654
 Frc consts  --      8.3108                 8.5060                 8.5539
 IR Inten    --    225.8640               237.9321               161.7070

 - Thermochemistry -
 -------------------
 Temperature   298.150 Kelvin.  Pressure   1.00000 Atm.
 Atom     1 has atomic number  7 and mass  14.00307

 Molecular mass:   198.07663 amu.
 Principal axes and moments of inertia in atomic units:
                           1         2         3
     Eigenvalues --  1280.562915067.299095460.54480
           X            0.99983   0.01642  -0.00848
           Y           -0.01633   0.99982   0.00979
           Z            0.00864  -0.00965   0.99992
 This molecule is an asymmetric top.
 Rotational symmetry number  1.
 Warning -- assumption of classical behavior for rotation
           may cause significant error
 Rotational temperatures (Kelvin)      0.06764     0.01709     0.01586
 Rotational constants (GHZ):           1.40933     0.35615     0.33051
 Zero-point vibrational energy     557678.6 (Joules/Mol)
                                  133.28838 (Kcal/Mol)
 Warning -- explicit consideration of  22 degrees of freedom as
           vibrations may cause significant error
 Vibrational temperatures:     52.89    70.95    87.93   133.84   167.11
          (Kelvin)            214.44   304.05   331.84   388.31   403.27
                              422.88   430.48   459.94   561.93   651.26
                              670.37   684.68   745.99   798.85   815.02
                              851.35   891.12   924.36  1021.27  1090.99
                             1099.88  1150.13  1164.93  1209.68  1294.64
                             1360.15  1372.86  1375.35  1412.94  1512.39
                             1590.68  1627.67  1662.03  1684.58  1712.74
                             1717.07  1765.28  1778.69  1817.31  1898.93
                             1909.06  1936.67  1966.99  1991.16  2035.20
                             2104.30  2144.51  2182.80  2204.56  2232.11
                             2329.93  2366.56  2372.34  2407.73  2605.50
                             4430.71  4501.51  4560.22  4605.67  4616.97
                             4629.08  4842.42  4948.43  4996.71  5237.31
                             5293.83  5311.31

 Zero-point correction=                           0.212409 (Hartree/Particle)
 Thermal correction to Energy=                    0.226178
 Thermal correction to Enthalpy=                  0.227122
 Thermal correction to Gibbs Free Energy=         0.171122
 Sum of electronic and zero-point Energies=           -705.503686
 Sum of electronic and thermal Energies=              -705.489917
 Sum of electronic and thermal Enthalpies=            -705.488973
 Sum of electronic and thermal Free Energies=         -705.544972

                     E (Thermal)             CV                S
                      KCal/Mol        Cal/Mol-Kelvin    Cal/Mol-Kelvin
 Total                  141.929             51.524            117.860
 Electronic               0.000              0.000              0.000
 Translational            0.889              2.981             41.755
 Rotational               0.889              2.981             31.938
 Vibrational            140.151             45.562             44.167
 Vibration     1          0.594              1.982              5.426
 Vibration     2          0.595              1.978              4.845
 Vibration     3          0.597              1.973              4.421
 Vibration     4          0.602              1.954              3.596
 Vibration     5          0.608              1.936              3.163
 Vibration     6          0.618              1.904              2.684
 Vibration     7          0.643              1.824              2.032
 Vibration     8          0.652              1.794              1.874
 Vibration     9          0.674              1.729              1.597
 Vibration    10          0.680              1.710              1.532
 Vibration    11          0.689              1.685              1.451
 Vibration    12          0.692              1.675              1.421
 Vibration    13          0.706              1.636              1.312
 Vibration    14          0.758              1.490              0.998
 Vibration    15          0.811              1.355              0.788
 Vibration    16          0.823              1.326              0.749
 Vibration    17          0.833              1.304              0.721
 Vibration    18          0.873              1.209              0.613
 Vibration    19          0.911              1.128              0.533
 Vibration    20          0.922              1.104              0.511
 Vibration    21          0.949              1.049              0.464
 Vibration    22          0.979              0.991              0.418

 Optimization completed.
    -- Stationary point found.
 Normal termination of Gaussian 16 at Sun Jul 18 14:05:32 2021.

 ----------------------------------------------------------------------
 #p b3lyp/6-31G(d) scrf=(iefpcm,read,solvent=water) geom=allcheck guess
 =read
 ----------------------------------------------------------------------

 Structure from the checkpoint file:  "SET_328_BBB292_conf1.geo_075_060_255.chk"
 ---------------------------------------------
 SET_328_BBB292_conf1.geo_075_060_255 geometry
 ---------------------------------------------
 Charge =  1 Multiplicity = 1

 SCF Done:  E(RB3LYP) =  -705.716094626     A.U. after    1 cycles
 Normal termination of Gaussian 16 at Sun Jul 18 14:05:39 2021.

 -----------------------------
 #p B3LYP/6-31G* geom=allcheck
 -----------------------------

 Structure from the checkpoint file:  "SET_328_BBB292_conf1.geo_075_060_255.chk"
 ---------------------------------------------
 SET_328_BBB292_conf1.geo_075_060_255 geometry
 ---------------------------------------------
 Charge =  1 Multiplicity = 1

 SCF Done:  E(RB3LYP) =  -705.580058851     A.U. after   15 cycles

 The electronic state is 1-A.
 Alpha  occ. eigenvalues --  -19.36102 -19.31128 -19.28517 -19.28328 -14.66049
 Alpha  occ. eigenvalues --  -10.49583 -10.44271 -10.36639 -10.35837 -10.35605
 Alpha  occ. eigenvalues --  -10.31969 -10.30686 -10.30510 -10.29610  -1.27543
 Alpha  occ. eigenvalues --   -1.20759  -1.18221  -1.17601  -1.14832  -0.98840
 Alpha  occ. eigenvalues --   -0.95314  -0.88316  -0.85652  -0.82890  -0.79482
 Alpha  occ. eigenvalues --   -0.78335  -0.77215  -0.73387  -0.71288  -0.68183
 Alpha  occ. eigenvalues --   -0.67558  -0.66774  -0.63710  -0.62733  -0.61975
 Alpha  occ. eigenvalues --   -0.60656  -0.58264  -0.56640  -0.55437  -0.54799
 Alpha  occ. eigenvalues --   -0.53614  -0.53381  -0.50188  -0.49482  -0.48749
 Alpha  occ. eigenvalues --   -0.48227  -0.46576  -0.44977  -0.43832  -0.42593
 Alpha  occ. eigenvalues --   -0.35356  -0.32787
 Alpha virt. eigenvalues --   -0.16923  -0.15192  -0.11879  -0.10931  -0.09637
 Alpha virt. eigenvalues --   -0.08923  -0.06882  -0.05745  -0.03380  -0.03217
 Alpha virt. eigenvalues --   -0.01403   0.01344   0.01507   0.02820   0.03792

 Mulliken charges:
               1
     1  N   -0.721266
     2  H    0.428151
     3  H    0.435196
     4  C   -0.117327
     5  C    0.614960
     6  O   -0.525134
     7  H    0.452575
     8  O   -0.443485
     9  H    0.241241
    10  C   -0.393136
    11  H    0.191623
    12  H    0.183364
    13  C    0.176437
    14  C   -0.222662
    15  H    0.136347
    16  C    0.290688
    17  O   -0.651915
    18  H    0.416913
    19  C    0.326987
    20  O   -0.623977
    21  H    0.413923
    22  C   -0.167283
    23  H    0.175300
    24  C   -0.194944
    25  H    0.142271
    26  H    0.435154
 Sum of Mulliken charges =   1.00000

 Dipole moment (field-independent basis, Debye):
    X=             10.7812    Y=              4.6601    Z=              0.9626  Tot=             11.7846
 Quadrupole moment (field-independent basis, Debye-Ang):
   XX=            -21.0366   YY=            -66.6386   ZZ=            -69.3407
   XY=             19.9398   XZ=             -8.8255   YZ=             -2.8488

 Normal termination of Gaussian 16 at Sun Jul 18 14:06:09 2021.
 Gaussian 16:  ES64L-G16RevB.01 20-Dec-2017

 --------------------------------------------------------
 #p mp2/aug-cc-pVDZ scf=tight maxdisk=180GB geom=allcheck
 --------------------------------------------------------

 Structure from the checkpoint file:  "SET_328_BBB292_conf1.geo_075_060_255.chk"
 ---------------------------------------------
 SET_328_BBB292_conf1.geo_075_060_255 geometry
 ---------------------------------------------
 Charge =  1 Multiplicity = 1

                         Standard orientation:
 ---------------------------------------------------------------------
 Center     Atomic      Atomic             Coordinates (Angstroms)
 Number     Number       Type             X           Y           Z
 ---------------------------------------------------------------------
      1          7           0        3.570753    1.262064   -0.319789
      2          1           0        3.459623    2.189723   -0.756063
      3          1           0        4.023654    0.633558   -1.004670
      4          6           0        2.249465    0.705303    0.115312
      5          6           0        2.521075   -0.693598    0.653988
      6          8           0        1.605935   -1.062022    1.544832
      7          1           0        1.785209   -1.987438    1.817897
      8          8           0        3.455272   -1.373070    0.278651
      9          1           0        1.872169    1.348713    0.909432
     10          6           0        1.286580    0.699095   -1.094034
     11          1           0        1.699767    0.038705   -1.861602
     12          1           0        1.288389    1.714096   -1.504480
     13          6           0       -0.124527    0.276900   -0.757050
     14          6           0       -0.981468    1.140198   -0.060315
     15          1           0       -0.650525    2.125621    0.252186
     16          6           0       -2.280340    0.756058    0.254143
     17          8           0       -3.118563    1.640245    0.902956
     18          1           0       -3.508271    1.202633    1.682451
     19          6           0       -2.760643   -0.503397   -0.152821
     20          8           0       -4.040462   -0.893709    0.110203
     21          1           0       -4.554904   -0.112386    0.384812
     22          6           0       -1.909185   -1.370901   -0.834767
     23          1           0       -2.288009   -2.340008   -1.143368
     24          6           0       -0.602155   -0.983269   -1.130528
     25          1           0        0.047729   -1.665773   -1.669596
     26          1           0        4.219629    1.368227    0.474828
 ---------------------------------------------------------------------

 SCF Done:  E(RHF) =  -701.591157822     A.U. after   16 cycles
