 Gaussian 16, Revision B.01,

 -----------------------------------------------------------
 #p b3lyp/6-31G(d) opt freq scrf=(iefpcm,read,solvent=water)
 -----------------------------------------------------------

 ---------------------------------------------
 SET_328_BBB321_conf1.geo_165_150_255 geometry
 ---------------------------------------------
 Symbolic Z-matrix:
 Charge =  1 Multiplicity = 1

 SCF Done:  E(RB3LYP) =  -1212.59642926     A.U. after   14 cycles
 SCF Done:  E(RB3LYP) =  -1212.70066482     A.U. after   12 cycles
 SCF Done:  E(RB3LYP) =  -1212.77860005     A.U. after   13 cycles
 SCF Done:  E(RB3LYP) =  -1212.80194975     A.U. after   13 cycles
 SCF Done:  E(RB3LYP) =  -1212.81060369     A.U. after   12 cycles
 SCF Done:  E(RB3LYP) =  -1212.81494664     A.U. after   13 cycles
 SCF Done:  E(RB3LYP) =  -1212.81704500     A.U. after   11 cycles
 SCF Done:  E(RB3LYP) =  -1212.81690802     A.U. after   14 cycles
 SCF Done:  E(RB3LYP) =  -1212.81906246     A.U. after   11 cycles
 SCF Done:  E(RB3LYP) =  -1212.82018063     A.U. after   11 cycles
 SCF Done:  E(RB3LYP) =  -1212.82236225     A.U. after    7 cycles
 SCF Done:  E(RB3LYP) =  -1212.82236528     A.U. after    7 cycles
 SCF Done:  E(RB3LYP) =  -1212.82236381     A.U. after    7 cycles
 SCF Done:  E(RB3LYP) =  -1212.82236367     A.U. after    7 cycles
 SCF Done:  E(RB3LYP) =  -1212.82236374     A.U. after    7 cycles
 SCF Done:  E(RB3LYP) =  -1212.82236380     A.U. after    6 cycles
 Optimization completed.
    -- Stationary point found.
 Normal termination of Gaussian 16 at Sun Jul 18 15:47:01 2021.

 --------------------------------------------------------------------
 #P Geom=AllCheck Guess=TCheck SCRF=Check GenChk RB3LYP/6-31G(d) Freq
 --------------------------------------------------------------------

 Structure from the checkpoint file:  "SET_328_BBB321_conf1.geo_165_150_255.chk"
 ---------------------------------------------
 SET_328_BBB321_conf1.geo_165_150_255 geometry
 ---------------------------------------------
 Charge =  1 Multiplicity = 1

 SCF Done:  E(RB3LYP) =  -1212.82236380     A.U. after    1 cycles

  Exact polarizability: 379.898   8.954 291.607  -1.964   5.093  94.527
 Approx polarizability: 387.754  18.479 350.804  -2.041   6.907 112.780

                      1                      2                      3
                      A                      A                      A
 Frequencies --     20.8906                38.8875                54.9756
 Red. masses --      4.6396                 8.0811                 3.0390
 Frc consts  --      0.0012                 0.0072                 0.0054
 IR Inten    --     10.5346                 7.4605                 7.8542

                      4                      5                      6
                      A                      A                      A
 Frequencies --     60.0353                68.8626                80.5903
 Red. masses --      1.6079                 4.6756                 5.7474
 Frc consts  --      0.0034                 0.0131                 0.0220
 IR Inten    --      4.1077                 0.1514                13.1898

                      7                      8                      9
                      A                      A                      A
 Frequencies --     96.7916               112.4839               128.8134
 Red. masses --      2.7856                 4.4524                 5.1051
 Frc consts  --      0.0154                 0.0332                 0.0499
 IR Inten    --      0.6098                 0.2878                 5.0491

                     10                     11                     12
                      A                      A                      A
 Frequencies --    176.8974               198.7638               241.8380
 Red. masses --      1.1617                 6.1303                 5.1181
 Frc consts  --      0.0214                 0.1427                 0.1764
 IR Inten    --    337.3464                20.9398                 8.8234

                     13                     14                     15
                      A                      A                      A
 Frequencies --    260.4122               262.5424               274.1621
 Red. masses --      4.5664                 4.1902                 3.8838
 Frc consts  --      0.1825                 0.1702                 0.1720
 IR Inten    --      8.0146                 2.7837                 8.8812

                     16                     17                     18
                      A                      A                      A
 Frequencies --    327.0597               337.5216               350.2578
 Red. masses --      2.8552                 1.8699                 4.8302
 Frc consts  --      0.1799                 0.1255                 0.3491
 IR Inten    --     84.8340               200.2095                 1.8214

                     19                     20                     21
                      A                      A                      A
 Frequencies --    355.1898               382.8483               385.3519
 Red. masses --      5.6282                 1.2113                 3.3658
 Frc consts  --      0.4184                 0.1046                 0.2945
 IR Inten    --      2.1021               244.0965                16.0343

                     22                     23                     24
                      A                      A                      A
 Frequencies --    454.0673               489.2418               502.2576
 Red. masses --      3.3446                 4.0148                 1.4661
 Frc consts  --      0.4063                 0.5662                 0.2179
 IR Inten    --      2.5348                 4.5125                99.7858

                     25                     26                     27
                      A                      A                      A
 Frequencies --    536.5076               548.9284               555.9406
 Red. masses --      3.8515                 2.6107                 1.9126
 Frc consts  --      0.6532                 0.4635                 0.3483
 IR Inten    --     43.8012                 8.6594               115.6284

                     28                     29                     30
                      A                      A                      A
 Frequencies --    573.8174               604.2830               616.2871
 Red. masses --      2.1484                 3.5339                 8.4690
 Frc consts  --      0.4168                 0.7603                 1.8952
 IR Inten    --     10.7884                 9.3122                 1.5055

                     31                     32                     33
                      A                      A                      A
 Frequencies --    636.7675               651.1455               665.3278
 Red. masses --      1.9476                 1.1826                 6.3982
 Frc consts  --      0.4653                 0.2954                 1.6687
 IR Inten    --     14.9470                10.5189                 5.0049

                     34                     35                     36
                      A                      A                      A
 Frequencies --    696.4338               699.6692               707.9624
 Red. masses --      3.1719                 2.1178                 3.4531
 Frc consts  --      0.9064                 0.6108                 1.0197
 IR Inten    --      0.1184                 2.2863                 3.0781

                     37                     38                     39
                      A                      A                      A
 Frequencies --    711.5978               743.2701               821.5424
 Red. masses --      6.0732                 1.8959                 1.5446
 Frc consts  --      1.8119                 0.6171                 0.6142
 IR Inten    --      7.9538                88.9467                28.1430

                     40                     41                     42
                      A                      A                      A
 Frequencies --    828.5426               865.2084               882.0368
 Red. masses --      5.6820                 5.9996                 2.8701
 Frc consts  --      2.2982                 2.6462                 1.3156
 IR Inten    --     41.5751                17.1566                35.4905

                     43                     44                     45
                      A                      A                      A
 Frequencies --    889.7619               925.2232               951.5749
 Red. masses --      2.1491                 1.3770                 5.2941
 Frc consts  --      1.0024                 0.6945                 2.8244
 IR Inten    --     24.9028                 0.4661                 4.3737

                     46                     47                     48
                      A                      A                      A
 Frequencies --    998.3325              1004.1800              1010.7765
 Red. masses --      1.2672                 4.6534                 5.3671
 Frc consts  --      0.7441                 2.7646                 3.2307
 IR Inten    --      2.0449                 6.3591                 9.5147

                     49                     50                     51
                      A                      A                      A
 Frequencies --   1018.0589              1047.9564              1069.3570
 Red. masses --      4.8034                 1.5843                 1.6658
 Frc consts  --      2.9332                 1.0251                 1.1223
 IR Inten    --      5.5628                32.4551                16.2032

                     52                     53                     54
                      A                      A                      A
 Frequencies --   1085.7541              1098.3876              1113.8028
 Red. masses --      1.4284                 1.7749                 1.5325
 Frc consts  --      0.9921                 1.2617                 1.1201
 IR Inten    --      3.9711                12.9567                41.4356

                     55                     56                     57
                      A                      A                      A
 Frequencies --   1136.2581              1186.9382              1222.9312
 Red. masses --      1.6600                 1.1095                 1.6947
 Frc consts  --      1.2627                 0.9209                 1.4933
 IR Inten    --      6.8050                 2.3386                16.0282

                     58                     59                     60
                      A                      A                      A
 Frequencies --   1250.8964              1268.7213              1291.1083
 Red. masses --      2.8652                 3.4268                 2.1144
 Frc consts  --      2.6415                 3.2499                 2.0767
 IR Inten    --    258.9877                54.0111               114.9072

                     61                     62                     63
                      A                      A                      A
 Frequencies --   1327.9991              1349.9959              1368.7383
 Red. masses --      2.4272                 2.3465                 5.5318
 Frc consts  --      2.5220                 2.5197                 6.1060
 IR Inten    --      8.8825               189.0791               189.4279

                     64                     65                     66
                      A                      A                      A
 Frequencies --   1426.5870              1457.0139              1494.0485
 Red. masses --      1.2295                 3.1335                 1.0445
 Frc consts  --      1.4743                 3.9193                 1.3736
 IR Inten    --     39.7572                33.8313                11.2395

                     67                     68                     69
                      A                      A                      A
 Frequencies --   1503.6813              1508.0885              1517.1895
 Red. masses --      1.7523                 1.1638                 2.5559
 Frc consts  --      2.3344                 1.5596                 3.4664
 IR Inten    --     35.9953                36.2575               328.7109

                     70                     71                     72
                      A                      A                      A
 Frequencies --   1543.1748              1563.4618              1589.1581
 Red. masses --      2.0997                 3.6219                 2.6304
 Frc consts  --      2.9461                 5.2163                 3.9138
 IR Inten    --    466.0804               350.8226               367.7582

                     73                     74                     75
                      A                      A                      A
 Frequencies --   1593.8369              1617.5580              1641.3984
 Red. masses --      3.1565                 1.4785                 1.6812
 Frc consts  --      4.7244                 2.2792                 2.6688
 IR Inten    --     63.7998               356.3419              1013.0715

                     76                     77                     78
                      A                      A                      A
 Frequencies --   1644.0475              1661.3438              1714.2364
 Red. masses --      4.4682                 5.6865                 3.5401
 Frc consts  --      7.1155                 9.2473                 6.1293
 IR Inten    --     21.4561               228.4622               883.1089

                     79                     80                     81
                      A                      A                      A
 Frequencies --   1739.1204              3087.1506              3152.3675
 Red. masses --      6.9061                 1.0365                 1.1013
 Frc consts  --     12.3067                 5.8199                 6.4481
 IR Inten    --    417.0234                 9.2948                 9.8813

                     82                     83                     84
                      A                      A                      A
 Frequencies --   3178.7396              3206.4356              3209.6143
 Red. masses --      1.1035                 1.0901                 1.0893
 Frc consts  --      6.5697                 6.6033                 6.6116
 IR Inten    --     25.4842                31.7988                19.8278

                     85                     86                     87
                      A                      A                      A
 Frequencies --   3239.6478              3286.3919              3306.9529
 Red. masses --      1.0925                 1.0917                 1.0946
 Frc consts  --      6.7557                 6.9471                 7.0530
 IR Inten    --     10.5232                 6.5037                 6.9993

                     88                     89                     90
                      A                      A                      A
 Frequencies --   3474.1799              3518.4354              3554.1164
 Red. masses --      1.0553                 1.0802                 1.0484
 Frc consts  --      7.5049                 7.8783                 7.8026
 IR Inten    --    471.6806               228.4536               372.3162

                     91                     92                     93
                      A                      A                      A
 Frequencies --   3588.0696              3637.6652              3667.0528
 Red. masses --      1.0778                 1.0998                 1.1082
 Frc consts  --      8.1757                 8.5742                 8.7799
 IR Inten    --     95.2430               404.4283               260.6327

 - Thermochemistry -
 -------------------
 Temperature   298.150 Kelvin.  Pressure   1.00000 Atm.
 Atom     1 has atomic number  6 and mass  12.00000

 Molecular mass:   276.09191 amu.
 Principal axes and moments of inertia in atomic units:
                           1         2         3
     Eigenvalues --  1997.14470********************
           X            0.99989  -0.01490  -0.00058
           Y            0.01490   0.99988   0.00433
           Z            0.00052  -0.00434   0.99999
 This molecule is an asymmetric top.
 Rotational symmetry number  1.
 Warning -- assumption of classical behavior for rotation
           may cause significant error
 Rotational temperatures (Kelvin)      0.04337     0.00622     0.00548
 Rotational constants (GHZ):           0.90366     0.12960     0.11410
 Zero-point vibrational energy     681533.6 (Joules/Mol)
                                  162.89045 (Kcal/Mol)
 Warning -- explicit consideration of  30 degrees of freedom as
           vibrations may cause significant error
 Vibrational temperatures:     30.06    55.95    79.10    86.38    99.08
          (Kelvin)            115.95   139.26   161.84   185.33   254.52
                              285.98   347.95   374.68   377.74   394.46
                              470.57   485.62   503.94   511.04   550.83
                              554.44   653.30   703.91   722.64   771.91
                              789.79   799.87   825.60   869.43   886.70
                              916.17   936.85   957.26  1002.01  1006.67
                             1018.60  1023.83  1069.40  1182.02  1192.09
                             1244.84  1269.05  1280.17  1331.19  1369.10
                             1436.38  1444.79  1454.28  1464.76  1507.78
                             1538.57  1562.16  1580.33  1602.51  1634.82
                             1707.74  1759.53  1799.76  1825.41  1857.62
                             1910.69  1942.34  1969.31  2052.54  2096.32
                             2149.60  2163.46  2169.80  2182.90  2220.28
                             2249.47  2286.44  2293.18  2327.31  2361.61
                             2365.42  2390.30  2466.40  2502.21  4441.72
                             4535.55  4573.50  4613.35  4617.92  4661.13
                             4728.38  4757.97  4998.57  5062.24  5113.58
                             5162.43  5233.79  5276.07

 Zero-point correction=                           0.259582 (Hartree/Particle)
 Thermal correction to Energy=                    0.278279
 Thermal correction to Enthalpy=                  0.279224
 Thermal correction to Gibbs Free Energy=         0.210878
 Sum of electronic and zero-point Energies=          -1212.562781
 Sum of electronic and thermal Energies=             -1212.544084
 Sum of electronic and thermal Enthalpies=           -1212.543140
 Sum of electronic and thermal Free Energies=        -1212.611486

                     E (Thermal)             CV                S
                      KCal/Mol        Cal/Mol-Kelvin    Cal/Mol-Kelvin
 Total                  174.623             70.063            143.845
 Electronic               0.000              0.000              0.000
 Translational            0.889              2.981             42.745
 Rotational               0.889              2.981             34.441
 Vibrational            172.846             64.101             66.659
 Vibration     1          0.593              1.986              6.548
 Vibration     2          0.594              1.981              5.315
 Vibration     3          0.596              1.976              4.630
 Vibration     4          0.597              1.973              4.456
 Vibration     5          0.598              1.969              4.186
 Vibration     6          0.600              1.962              3.876
 Vibration     7          0.603              1.951              3.518
 Vibration     8          0.607              1.939              3.226
 Vibration     9          0.611              1.924              2.964
 Vibration    10          0.628              1.871              2.361
 Vibration    11          0.637              1.842              2.145
 Vibration    12          0.658              1.776              1.789
 Vibration    13          0.668              1.745              1.659
 Vibration    14          0.670              1.741              1.645
 Vibration    15          0.676              1.721              1.570
 Vibration    16          0.711              1.621              1.275
 Vibration    17          0.718              1.601              1.224
 Vibration    18          0.727              1.575              1.165
 Vibration    19          0.731              1.565              1.143
 Vibration    20          0.752              1.507              1.028
 Vibration    21          0.754              1.501              1.018
 Vibration    22          0.813              1.352              0.784
 Vibration    23          0.845              1.274              0.686
 Vibration    24          0.858              1.245              0.653
 Vibration    25          0.892              1.169              0.573
 Vibration    26          0.904              1.142              0.546
 Vibration    27          0.911              1.127              0.532
 Vibration    28          0.930              1.088              0.497
 Vibration    29          0.963              1.023              0.442
 Vibration    30          0.976              0.997              0.422

                           ! Non-Optimized Parameters !
 Normal termination of Gaussian 16 at Sun Jul 18 15:58:12 2021.

 ----------------------------------------------------------------------
 #p b3lyp/6-31G(d) scrf=(iefpcm,read,solvent=water) geom=allcheck guess
 =read
 ----------------------------------------------------------------------

 Structure from the checkpoint file:  "SET_328_BBB321_conf1.geo_165_150_255.chk"
 ---------------------------------------------
 SET_328_BBB321_conf1.geo_165_150_255 geometry
 ---------------------------------------------
 Charge =  1 Multiplicity = 1

 SCF Done:  E(RB3LYP) =  -1212.82236380     A.U. after    1 cycles
 Normal termination of Gaussian 16 at Sun Jul 18 15:58:22 2021.

 -----------------------------
 #p B3LYP/6-31G* geom=allcheck
 -----------------------------

 Structure from the checkpoint file:  "SET_328_BBB321_conf1.geo_165_150_255.chk"
 ---------------------------------------------
 SET_328_BBB321_conf1.geo_165_150_255 geometry
 ---------------------------------------------
 Charge =  1 Multiplicity = 1

 SCF Done:  E(RB3LYP) =  -1212.69363931     A.U. after   16 cycles
 Normal termination of Gaussian 16 at Sun Jul 18 15:59:08 2021.
 Gaussian 16:  ES64L-G16RevB.01 20-Dec-2017

 --------------------------------------------------------
 #p mp2/aug-cc-pVDZ scf=tight maxdisk=180GB geom=allcheck
 --------------------------------------------------------

 Structure from the checkpoint file:  "SET_328_BBB321_conf1.geo_165_150_255.chk"
 ---------------------------------------------
 SET_328_BBB321_conf1.geo_165_150_255 geometry
 ---------------------------------------------
 Charge =  1 Multiplicity = 1

                         Standard orientation:
 ---------------------------------------------------------------------
 Center     Atomic      Atomic             Coordinates (Angstroms)
 Number     Number       Type             X           Y           Z
 ---------------------------------------------------------------------
      1          6           0       -6.447071    1.164010    0.390551
      2          1           0       -6.023839    2.156439    0.551295
      3          1           0       -7.059064    0.892368    1.254337
      4          1           0       -7.106047    1.196410   -0.481258
      5          6           0       -5.409594    0.081645    0.172575
      6          8           0       -5.739327   -1.095012    0.015072
      7          7           0       -4.112830    0.519123    0.162149
      8          1           0       -3.974919    1.513209    0.305954
      9          6           0       -2.930920   -0.224901   -0.021008
     10          6           0       -2.914557   -1.615015   -0.223178
     11          6           0       -1.690210   -2.262649   -0.385056
     12          6           0       -0.486160   -1.562961   -0.353428
     13          1           0        0.457567   -2.076938   -0.486530
     14          1           0       -1.680515   -3.336583   -0.540520
     15          1           0       -3.847221   -2.156907   -0.246618
     16          6           0       -1.721741    0.481503    0.011939
     17          1           0       -1.741414    1.553051    0.183094
     18          6           0       -0.495253   -0.173028   -0.156918
     19          6           0        0.768440    0.585432   -0.135140
     20          7           0        1.973893   -0.102503   -0.054394
     21          6           0        0.895081    1.945601   -0.202131
     22          1           0        0.124214    2.693895   -0.297412
     23         16           0        2.564270    2.418242   -0.151358
     24          6           0        2.985356    0.715688   -0.052859
     25          7           0        4.315306    0.343887    0.030934
     26          6           0        4.801437   -0.919746    0.214858
     27          7           0        3.985104   -1.956190    0.324666
     28          1           0        2.979056   -1.811451    0.256845
     29          1           0        4.366881   -2.886776    0.461811
     30          7           0        6.121580   -1.061897    0.279329
     31          1           0        6.529008   -1.982004    0.410482
     32          1           0        6.738550   -0.258793    0.211584
     33          1           0        5.013812    1.081897   -0.041926
 ---------------------------------------------------------------------

 SCF Done:  E(RHF) =  -1207.15480087     A.U. after   18 cycles
 E2 =    -0.2816498336D+01 EUMP2 =    -0.12099712992103D+04

 The electronic state is 1-A.
 Alpha  occ. eigenvalues --  -92.13533 -20.60269 -15.81703 -15.80199 -15.78844
 Alpha  occ. eigenvalues --  -15.72131 -15.69165 -11.60846 -11.51508 -11.43949
 Alpha  occ. eigenvalues --  -11.41400 -11.39199 -11.38360 -11.35616 -11.33801
 Alpha  occ. eigenvalues --  -11.33208 -11.33086 -11.31977 -11.31236  -9.13703
 Alpha  occ. eigenvalues --   -6.81867  -6.81760  -6.81566  -1.55300  -1.45563
 Alpha  occ. eigenvalues --   -1.45500  -1.39645  -1.38891  -1.33900  -1.24565
 Alpha  occ. eigenvalues --   -1.20534  -1.16919  -1.11755  -1.10888  -1.06369
 Alpha  occ. eigenvalues --   -1.05332  -0.99663  -0.98852  -0.95286  -0.93839
 Alpha  occ. eigenvalues --   -0.91166  -0.89171  -0.86655  -0.85803  -0.84408
 Alpha  occ. eigenvalues --   -0.82935  -0.82050  -0.81110  -0.76773  -0.75167
 Alpha  occ. eigenvalues --   -0.72389  -0.72287  -0.70903  -0.69984  -0.69307
 Alpha  occ. eigenvalues --   -0.68296  -0.65728  -0.64404  -0.63930  -0.63281
 Alpha  occ. eigenvalues --   -0.62373  -0.61526  -0.61381  -0.59017  -0.58099
 Alpha  occ. eigenvalues --   -0.57946  -0.53193  -0.51769  -0.49392  -0.47548
 Alpha  occ. eigenvalues --   -0.41009  -0.39055
 Alpha virt. eigenvalues --   -0.09192  -0.07123  -0.05451  -0.04945  -0.04430
 Alpha virt. eigenvalues --   -0.03804  -0.03415  -0.02790  -0.02379  -0.01942
 Alpha virt. eigenvalues --   -0.01428  -0.00341  -0.00090   0.00421   0.00563

 Mulliken charges:
               1
     1  C    0.510828
     2  H   -0.214192
     3  H    0.053533
     4  H    0.062161
     5  C    0.482140
     6  O   -0.866514
     7  N   -0.553430
     8  H   -0.017119
     9  C   -0.263723
    10  C    1.157294
    11  C   -0.106636
    12  C    0.698695
    13  H   -0.638910
    14  H   -0.514647
    15  H   -0.647592
    16  C    1.055687
    17  H   -0.778073
    18  C    1.667335
    19  C   -0.587144
    20  N   -0.677173
    21  C    0.432194
    22  H   -0.571565
    23  S    0.482843
    24  C    0.441390
    25  N   -0.697706
    26  C    1.373333
    27  N   -0.178612
    28  H    0.121501
    29  H    0.010647
    30  N   -0.267867
    31  H    0.030888
    32  H    0.003222
    33  H   -0.002789
 Sum of Mulliken charges =   1.00000

 Dipole moment (field-independent basis, Debye):
    X=             20.2476    Y=              0.9114    Z=              1.3356  Tot=             20.3121
 Quadrupole moment (field-independent basis, Debye-Ang):
   XX=             14.8306   YY=            -88.2016   ZZ=           -123.5243
   XY=            -40.3276   XZ=              2.5230   YZ=             -1.4444

 Normal termination of Gaussian 16 at Sun Jul 18 16:34:38 2021.
