 Gaussian 16, Revision B.01,

 -----------------------------------------------------------
 #p b3lyp/6-31G(d) opt freq scrf=(iefpcm,read,solvent=water)
 -----------------------------------------------------------

 --------------------------------------------
 SET_328_BBB20_conf1.geo_090_075_180 geometry
 --------------------------------------------
 Symbolic Z-matrix:
 Charge =  1 Multiplicity = 1

 SCF Done:  E(RB3LYP) =  -769.784850916     A.U. after   13 cycles
 SCF Done:  E(RB3LYP) =  -769.816576805     A.U. after   11 cycles
 SCF Done:  E(RB3LYP) =  -769.827483066     A.U. after   11 cycles
 SCF Done:  E(RB3LYP) =  -769.829801814     A.U. after   10 cycles
 SCF Done:  E(RB3LYP) =  -769.830292936     A.U. after   10 cycles
 SCF Done:  E(RB3LYP) =  -769.828955478     A.U. after   10 cycles
 SCF Done:  E(RB3LYP) =  -769.830238682     A.U. after   10 cycles
 SCF Done:  E(RB3LYP) =  -769.830291480     A.U. after    9 cycles
 SCF Done:  E(RB3LYP) =  -769.830334178     A.U. after    9 cycles
 SCF Done:  E(RB3LYP) =  -769.830533675     A.U. after   10 cycles
 SCF Done:  E(RB3LYP) =  -769.833399186     A.U. after    1 cycles
 SCF Done:  E(RB3LYP) =  -769.833414291     A.U. after    8 cycles
 SCF Done:  E(RB3LYP) =  -769.833420721     A.U. after    7 cycles
 SCF Done:  E(RB3LYP) =  -769.833426034     A.U. after    7 cycles
 SCF Done:  E(RB3LYP) =  -769.833426877     A.U. after    7 cycles
 SCF Done:  E(RB3LYP) =  -769.833427394     A.U. after    6 cycles
 Optimization completed.
    -- Stationary point found.
 Normal termination of Gaussian 16 at Sun Jul 18 14:35:04 2021.

 --------------------------------------------------------------------
 #P Geom=AllCheck Guess=TCheck SCRF=Check GenChk RB3LYP/6-31G(d) Freq
 --------------------------------------------------------------------

 Structure from the checkpoint file:  "SET_328_BBB20_conf1.geo_090_075_180.chk"
 --------------------------------------------
 SET_328_BBB20_conf1.geo_090_075_180 geometry
 --------------------------------------------
 Charge =  1 Multiplicity = 1

 SCF Done:  E(RB3LYP) =  -769.833427394     A.U. after    1 cycles

  Exact polarizability: 279.997  42.564 237.797  24.041 -46.310 240.946
 Approx polarizability: 292.513  42.590 263.572  26.954 -55.574 276.399

                      1                      2                      3
                      A                      A                      A
 Frequencies --     39.2055                46.0227                69.5439
 Red. masses --      4.2927                 4.2365                 3.8568
 Frc consts  --      0.0039                 0.0053                 0.0110
 IR Inten    --      7.4119                12.9380                22.0951

                      4                      5                      6
                      A                      A                      A
 Frequencies --     95.6780               129.8885               136.5520
 Red. masses --      3.6532                 2.4613                 2.6389
 Frc consts  --      0.0197                 0.0245                 0.0290
 IR Inten    --      1.0686                 5.7095                 3.9109

                      7                      8                      9
                      A                      A                      A
 Frequencies --    150.0121               175.5129               202.5068
 Red. masses --      2.6362                 3.9648                 2.6108
 Frc consts  --      0.0350                 0.0720                 0.0631
 IR Inten    --      2.4179                11.2399                 0.1871

                     10                     11                     12
                      A                      A                      A
 Frequencies --    244.8720               283.6079               295.5057
 Red. masses --      3.5678                 3.3017                 2.6982
 Frc consts  --      0.1260                 0.1565                 0.1388
 IR Inten    --      1.3919                14.1386                 2.9009

                     13                     14                     15
                      A                      A                      A
 Frequencies --    316.1110               326.3610               341.6450
 Red. masses --      1.7690                 1.5217                 2.4253
 Frc consts  --      0.1041                 0.0955                 0.1668
 IR Inten    --      1.3819                 1.3779                 1.5902

                     16                     17                     18
                      A                      A                      A
 Frequencies --    358.6289               412.5013               440.5902
 Red. masses --      3.9962                 5.0818                 2.9356
 Frc consts  --      0.3028                 0.5095                 0.3358
 IR Inten    --      2.5914                16.9950                 6.4149

                     19                     20                     21
                      A                      A                      A
 Frequencies --    468.6037               478.1989               501.5643
 Red. masses --      3.6775                 3.1690                 3.5655
 Frc consts  --      0.4758                 0.4270                 0.5285
 IR Inten    --      2.0686                 0.7357                 5.6188

                     22                     23                     24
                      A                      A                      A
 Frequencies --    522.1152               550.3428               575.0959
 Red. masses --      2.9598                 3.8436                 4.8782
 Frc consts  --      0.4754                 0.6859                 0.9506
 IR Inten    --      2.4714                 2.6124                 2.7542

                     25                     26                     27
                      A                      A                      A
 Frequencies --    591.9049               610.3182               634.7253
 Red. masses --      3.6599                 3.0299                 5.2695
 Frc consts  --      0.7555                 0.6650                 1.2508
 IR Inten    --      1.2712                13.0140                 6.1551

                     28                     29                     30
                      A                      A                      A
 Frequencies --    695.2356               727.7387               758.5032
 Red. masses --      4.5381                 3.4741                 2.5230
 Frc consts  --      1.2924                 1.0840                 0.8552
 IR Inten    --      4.9305                 2.9750                11.5560

                     31                     32                     33
                      A                      A                      A
 Frequencies --    769.2181               776.4896               785.1258
 Red. masses --      1.5189                 1.6880                 2.2325
 Frc consts  --      0.5295                 0.5997                 0.8108
 IR Inten    --     33.1068                56.9190                 4.2832

                     34                     35                     36
                      A                      A                      A
 Frequencies --    787.7249               809.5336               858.5489
 Red. masses --      1.7432                 2.2552                 1.9698
 Frc consts  --      0.6373                 0.8708                 0.8555
 IR Inten    --     41.7910                 7.0272                10.6004

                     37                     38                     39
                      A                      A                      A
 Frequencies --    873.4213               887.5440               892.8693
 Red. masses --      1.3961                 1.5900                 1.9620
 Frc consts  --      0.6275                 0.7379                 0.9216
 IR Inten    --      2.7844                 2.2285                12.4548

                     40                     41                     42
                      A                      A                      A
 Frequencies --    929.4142               934.5975               949.7481
 Red. masses --      2.0922                 1.7937                 1.4039
 Frc consts  --      1.0648                 0.9231                 0.7461
 IR Inten    --     27.9543                13.2171                 8.8997

                     43                     44                     45
                      A                      A                      A
 Frequencies --    955.6882               983.4526               984.5900
 Red. masses --      1.4022                 2.1527                 1.3266
 Frc consts  --      0.7546                 1.2267                 0.7577
 IR Inten    --      6.0421                 5.2273                 3.9177

                     46                     47                     48
                      A                      A                      A
 Frequencies --    986.9200               989.3780              1008.1365
 Red. masses --      1.8167                 1.3810                 1.5216
 Frc consts  --      1.0425                 0.7964                 0.9112
 IR Inten    --     10.5992                 3.0475                22.1970

                     49                     50                     51
                      A                      A                      A
 Frequencies --   1026.7028              1049.0016              1075.0734
 Red. masses --      2.2863                 2.4016                 2.1988
 Frc consts  --      1.4200                 1.5571                 1.4973
 IR Inten    --      4.5512                 3.3422                 5.3363

                     52                     53                     54
                      A                      A                      A
 Frequencies --   1088.4181              1093.4287              1133.7027
 Red. masses --      2.5760                 2.4863                 2.1455
 Frc consts  --      1.7980                 1.7514                 1.6247
 IR Inten    --     10.0615                21.1876                57.9060

                     55                     56                     57
                      A                      A                      A
 Frequencies --   1145.9070              1158.1163              1165.1538
 Red. masses --      1.9246                 1.8009                 1.7752
 Frc consts  --      1.4890                 1.4231                 1.4199
 IR Inten    --      8.5690                52.2105                37.6330

                     58                     59                     60
                      A                      A                      A
 Frequencies --   1189.2425              1191.9423              1202.3579
 Red. masses --      1.1720                 1.2004                 1.1646
 Frc consts  --      0.9766                 1.0049                 0.9920
 IR Inten    --      1.3076                 2.3271                 5.5907

                     61                     62                     63
                      A                      A                      A
 Frequencies --   1211.9528              1234.1132              1247.3479
 Red. masses --      1.6677                 2.6980                 1.8300
 Frc consts  --      1.4432                 2.4211                 1.6775
 IR Inten    --      2.5677                12.5204                77.3477

                     64                     65                     66
                      A                      A                      A
 Frequencies --   1260.2541              1273.9175              1303.9302
 Red. masses --      1.9135                 1.8576                 1.4162
 Frc consts  --      1.7906                 1.7762                 1.4187
 IR Inten    --     78.8078               183.7844                 6.2604

                     67                     68                     69
                      A                      A                      A
 Frequencies --   1314.5475              1328.7447              1337.3349
 Red. masses --      1.3749                 1.6617                 2.6323
 Frc consts  --      1.3999                 1.7286                 2.7737
 IR Inten    --      3.5334                 8.6232               100.5779

                     70                     71                     72
                      A                      A                      A
 Frequencies --   1346.0980              1358.0985              1362.0548
 Red. masses --      3.2993                 1.1530                 2.3595
 Frc consts  --      3.5223                 1.2530                 2.5791
 IR Inten    --     19.4239                23.8744                 6.0329

                     73                     74                     75
                      A                      A                      A
 Frequencies --   1376.1920              1378.8120              1397.3815
 Red. masses --      1.5076                 1.4862                 1.4666
 Frc consts  --      1.6823                 1.6647                 1.6873
 IR Inten    --     38.1068                 8.9593                19.9017

                     76                     77                     78
                      A                      A                      A
 Frequencies --   1429.9311              1441.5318              1487.0594
 Red. masses --      1.4333                 1.3378                 1.7064
 Frc consts  --      1.7267                 1.6379                 2.2233
 IR Inten    --     20.9119                17.3806                32.7112

                     79                     80                     81
                      A                      A                      A
 Frequencies --   1491.5328              1496.8469              1498.1879
 Red. masses --      1.3280                 1.2931                 1.1387
 Frc consts  --      1.7406                 1.7070                 1.5058
 IR Inten    --     35.5760                 4.1717                 2.7539

                     82                     83                     84
                      A                      A                      A
 Frequencies --   1503.6328              1520.5771              1528.9639
 Red. masses --      1.8153                 1.1589                 1.7109
 Frc consts  --      2.4182                 1.5787                 2.3565
 IR Inten    --     49.1470               187.5178               155.4764

                     85                     86                     87
                      A                      A                      A
 Frequencies --   1530.0177              1544.4478              1549.6262
 Red. masses --      1.1354                 1.9595                 1.4401
 Frc consts  --      1.5660                 2.7538                 2.0375
 IR Inten    --     71.4100                25.4451                21.5453

                     88                     89                     90
                      A                      A                      A
 Frequencies --   1629.7062              1640.7643              1643.3337
 Red. masses --      5.8911                 6.4109                 1.0379
 Frc consts  --      9.2187                10.1687                 1.6514
 IR Inten    --     22.7771                12.6904                80.8643

                     91                     92                     93
                      A                      A                      A
 Frequencies --   1653.2110              1658.6119              1659.5114
 Red. masses --      5.6836                 1.0540                 5.3965
 Frc consts  --      9.1524                 1.7084                 8.7564
 IR Inten    --     39.6623                76.8009                14.6161

                     94                     95                     96
                      A                      A                      A
 Frequencies --   3023.8341              3039.1548              3055.5295
 Red. masses --      1.0718                 1.0649                 1.0622
 Frc consts  --      5.7740                 5.7954                 5.8430
 IR Inten    --     94.8461                45.5409                40.0996

                     97                     98                     99
                      A                      A                      A
 Frequencies --   3078.1930              3081.0057              3102.4548
 Red. masses --      1.0957                 1.0600                 1.1032
 Frc consts  --      6.1167                 5.9285                 6.2565
 IR Inten    --     82.5615                29.8502                55.2632

                    100                    101                    102
                      A                      A                      A
 Frequencies --   3117.9103              3129.1270              3133.8172
 Red. masses --      1.0996                 1.0663                 1.0878
 Frc consts  --      6.2982                 6.1516                 6.2943
 IR Inten    --     10.4651                 7.2434                57.7755

                    103                    104                    105
                      A                      A                      A
 Frequencies --   3190.1086              3192.5429              3194.2778
 Red. masses --      1.1090                 1.0862                 1.0875
 Frc consts  --      6.6494                 6.5227                 6.5378
 IR Inten    --     17.3388                10.5514                18.2432

                    106                    107                    108
                      A                      A                      A
 Frequencies --   3199.4515              3207.4428              3219.9027
 Red. masses --      1.0897                 1.0883                 1.0958
 Frc consts  --      6.5719                 6.5963                 6.6935
 IR Inten    --     34.7571                17.3433                56.7950

                    109                    110                    111
                      A                      A                      A
 Frequencies --   3220.9559              3232.4208              3242.4317
 Red. masses --      1.0934                 1.0947                 1.0912
 Frc consts  --      6.6837                 6.7388                 6.7590
 IR Inten    --     50.9573                27.6298                20.1804

                    112                    113                    114
                      A                      A                      A
 Frequencies --   3395.1051              3462.9912              3471.1917
 Red. masses --      1.0323                 1.0947                 1.0945
 Frc consts  --      7.0108                 7.7347                 7.7701
 IR Inten    --    123.7957               230.7492               226.0381

 - Thermochemistry -
 -------------------
 Temperature   298.150 Kelvin.  Pressure   1.00000 Atm.
 Atom     1 has atomic number  7 and mass  14.00307

 Molecular mass:   253.17047 amu.
 Principal axes and moments of inertia in atomic units:
                           1         2         3
     Eigenvalues --  3879.272565728.962967269.86013
           X            0.99908  -0.04289  -0.00257
           Y            0.04286   0.99899  -0.01316
           Z            0.00313   0.01304   0.99991
 This molecule is an asymmetric top.
 Rotational symmetry number  1.
 Warning -- assumption of classical behavior for rotation
           may cause significant error
 Rotational temperatures (Kelvin)      0.02233     0.01512     0.01191
 Rotational constants (GHZ):           0.46523     0.31502     0.24825
 Zero-point vibrational energy     930028.7 (Joules/Mol)
                                  222.28220 (Kcal/Mol)
 Warning -- explicit consideration of  26 degrees of freedom as
           vibrations may cause significant error
 Vibrational temperatures:     56.41    66.22   100.06   137.66   186.88
          (Kelvin)            196.47   215.83   252.52   291.36   352.32
                              408.05   425.17   454.81   469.56   491.55
                              515.99   593.50   633.91   674.22   688.02
                              721.64   751.21   791.82   827.43   851.62
                              878.11   913.23  1000.29  1047.05  1091.32
                             1106.73  1117.20  1129.62  1133.36  1164.74
                             1235.26  1256.66  1276.98  1284.64  1337.22
                             1344.68  1366.48  1375.02  1414.97  1416.61
                             1419.96  1423.49  1450.48  1477.20  1509.28
                             1546.79  1565.99  1573.20  1631.15  1648.70
                             1666.27  1676.40  1711.05  1714.94  1729.92
                             1743.73  1775.61  1794.66  1813.22  1832.88
                             1876.06  1891.34  1911.77  1924.13  1936.73
                             1954.00  1959.69  1980.03  1983.80  2010.52
                             2057.35  2074.04  2139.55  2145.98  2153.63
                             2155.56  2163.39  2187.77  2199.84  2201.35
                             2222.12  2229.57  2344.78  2360.69  2364.39
                             2378.60  2386.37  2387.67  4350.62  4372.67
                             4396.23  4428.83  4432.88  4463.74  4485.98
                             4502.12  4508.86  4589.85  4593.36  4595.85
                             4603.30  4614.79  4632.72  4634.24  4650.73
                             4665.14  4884.80  4982.47  4994.27

 Zero-point correction=                           0.354229 (Hartree/Particle)
 Thermal correction to Energy=                    0.370477
 Thermal correction to Enthalpy=                  0.371421
 Thermal correction to Gibbs Free Energy=         0.310563
 Sum of electronic and zero-point Energies=           -769.479198
 Sum of electronic and thermal Energies=              -769.462951
 Sum of electronic and thermal Enthalpies=            -769.462007
 Sum of electronic and thermal Free Energies=         -769.522864

                     E (Thermal)             CV                S
                      KCal/Mol        Cal/Mol-Kelvin    Cal/Mol-Kelvin
 Total                  232.478             66.003            128.085
 Electronic               0.000              0.000              0.000
 Translational            0.889              2.981             42.487
 Rotational               0.889              2.981             33.446
 Vibrational            230.700             60.041             52.152
 Vibration     1          0.594              1.981              5.299
 Vibration     2          0.595              1.979              4.981
 Vibration     3          0.598              1.969              4.166
 Vibration     4          0.603              1.952              3.541
 Vibration     5          0.612              1.923              2.948
 Vibration     6          0.614              1.917              2.852
 Vibration     7          0.618              1.903              2.672
 Vibration     8          0.627              1.873              2.376
 Vibration     9          0.639              1.836              2.110
 Vibration    10          0.660              1.771              1.767
 Vibration    11          0.682              1.704              1.512
 Vibration    12          0.690              1.682              1.442
 Vibration    13          0.703              1.643              1.330
 Vibration    14          0.710              1.623              1.278
 Vibration    15          0.721              1.592              1.204
 Vibration    16          0.733              1.558              1.128
 Vibration    17          0.776              1.443              0.918
 Vibration    18          0.800              1.382              0.825
 Vibration    19          0.826              1.320              0.741
 Vibration    20          0.835              1.298              0.715
 Vibration    21          0.857              1.247              0.654
 Vibration    22          0.877              1.201              0.605
 Vibration    23          0.906              1.139              0.543
 Vibration    24          0.931              1.085              0.495
 Vibration    25          0.949              1.049              0.464
 Vibration    26          0.969              1.010              0.432

 Optimization completed.
    -- Stationary point found.
 Normal termination of Gaussian 16 at Sun Jul 18 14:53:20 2021.

 ----------------------------------------------------------------------
 #p b3lyp/6-31G(d) scrf=(iefpcm,read,solvent=water) geom=allcheck guess
 =read
 ----------------------------------------------------------------------

 Structure from the checkpoint file:  "SET_328_BBB20_conf1.geo_090_075_180.chk"
 --------------------------------------------
 SET_328_BBB20_conf1.geo_090_075_180 geometry
 --------------------------------------------
 Charge =  1 Multiplicity = 1

 SCF Done:  E(RB3LYP) =  -769.833427394     A.U. after    1 cycles
 Normal termination of Gaussian 16 at Sun Jul 18 14:53:34 2021.

 -----------------------------
 #p B3LYP/6-31G* geom=allcheck
 -----------------------------

 Structure from the checkpoint file:  "SET_328_BBB20_conf1.geo_090_075_180.chk"
 --------------------------------------------
 SET_328_BBB20_conf1.geo_090_075_180 geometry
 --------------------------------------------
 Charge =  1 Multiplicity = 1

 SCF Done:  E(RB3LYP) =  -769.718906221     A.U. after   14 cycles

 The electronic state is 1-A.
 Alpha  occ. eigenvalues --  -14.66089 -14.45338 -10.42128 -10.35114 -10.34674
 Alpha  occ. eigenvalues --  -10.31736 -10.31387 -10.28545 -10.28292 -10.28271
 Alpha  occ. eigenvalues --  -10.27997 -10.27888 -10.27760 -10.27639 -10.27531
 Alpha  occ. eigenvalues --  -10.26771 -10.26438 -10.26248 -10.25945  -1.20153
 Alpha  occ. eigenvalues --   -1.05363  -0.95792  -0.94372  -0.92566  -0.88735
 Alpha  occ. eigenvalues --   -0.85805  -0.84141  -0.83933  -0.80993  -0.79957
 Alpha  occ. eigenvalues --   -0.78576  -0.77728  -0.74431  -0.73447  -0.69577
 Alpha  occ. eigenvalues --   -0.68372  -0.68030  -0.66809  -0.65764  -0.63065
 Alpha  occ. eigenvalues --   -0.60718  -0.60091  -0.57949  -0.56959  -0.55955
 Alpha  occ. eigenvalues --   -0.55340  -0.54505  -0.53622  -0.52658  -0.52248
 Alpha  occ. eigenvalues --   -0.52114  -0.50415  -0.50207  -0.48732  -0.48377
 Alpha  occ. eigenvalues --   -0.47360  -0.46532  -0.44943  -0.44318  -0.43246
 Alpha  occ. eigenvalues --   -0.42710  -0.42330  -0.41388  -0.38097  -0.33865
 Alpha  occ. eigenvalues --   -0.32895  -0.31920  -0.29199
 Alpha virt. eigenvalues --   -0.16282  -0.09901  -0.09738  -0.09577  -0.09268
 Alpha virt. eigenvalues --   -0.07938  -0.07488  -0.05940  -0.03323  -0.02337
 Alpha virt. eigenvalues --   -0.00090   0.00974   0.01749   0.02062   0.02432

 Mulliken charges:
               1
     1  N   -0.724807
     2  H    0.431499
     3  H    0.427740
     4  C   -0.211857
     5  H    0.248959
     6  H    0.225998
     7  C   -0.304758
     8  H    0.165866
     9  H    0.183907
    10  C   -0.145838
    11  H    0.174752
    12  H    0.174474
    13  N   -0.594313
    14  C    0.199839
    15  C   -0.167459
    16  H    0.135603
    17  C   -0.148770
    18  H    0.150839
    19  C   -0.120011
    20  H    0.152022
    21  C   -0.212778
    22  H    0.143525
    23  C    0.150358
    24  C   -0.356609
    25  H    0.155033
    26  H    0.125045
    27  C   -0.343521
    28  H    0.176386
    29  H    0.162165
    30  C    0.158844
    31  C   -0.198127
    32  H    0.139196
    33  C   -0.118951
    34  H    0.148312
    35  C   -0.144309
    36  H    0.145727
    37  C   -0.180664
    38  H    0.128907
    39  C    0.234267
    40  H    0.433506
 Sum of Mulliken charges =   1.00000

 Dipole moment (field-independent basis, Debye):
    X=            -13.2054    Y=             10.9450    Z=              4.6353  Tot=             17.7669
 Quadrupole moment (field-independent basis, Debye-Ang):
   XX=            -52.4969   YY=            -67.6537   ZZ=            -94.2697
   XY=            -35.6074   XZ=            -14.5886   YZ=              8.9273

 Normal termination of Gaussian 16 at Sun Jul 18 14:54:41 2021.
 Gaussian 16:  ES64L-G16RevB.01 20-Dec-2017

 --------------------------------------------------------
 #p mp2/aug-cc-pVDZ scf=tight maxdisk=180GB geom=allcheck
 --------------------------------------------------------

 Structure from the checkpoint file:  "SET_328_BBB20_conf1.geo_090_075_180.chk"
 --------------------------------------------
 SET_328_BBB20_conf1.geo_090_075_180 geometry
 --------------------------------------------
 Charge =  1 Multiplicity = 1

                         Standard orientation:
 ---------------------------------------------------------------------
 Center     Atomic      Atomic             Coordinates (Angstroms)
 Number     Number       Type             X           Y           Z
 ---------------------------------------------------------------------
      1          7           0       -3.384768    2.783874    1.277061
      2          1           0       -4.061257    2.023845    1.107024
      3          1           0       -3.700700    3.605638    0.741730
      4          6           0       -1.991372    2.377074    0.886270
      5          1           0       -1.724842    1.530463    1.518454
      6          1           0       -1.343748    3.219448    1.132313
      7          6           0       -1.930884    2.027452   -0.596274
      8          1           0       -2.267767    2.883652   -1.189627
      9          1           0       -2.611514    1.197397   -0.809528
     10          6           0       -0.509129    1.682294   -1.054193
     11          1           0        0.147484    2.523646   -0.824613
     12          1           0       -0.507275    1.571658   -2.147704
     13          7           0        0.042084    0.507144   -0.368259
     14          6           0       -0.704632   -0.708388   -0.489497
     15          6           0       -1.361839   -1.044311   -1.679892
     16          1           0       -1.287267   -0.386068   -2.537500
     17          6           0       -2.105142   -2.221069   -1.768464
     18          1           0       -2.607745   -2.469326   -2.697310
     19          6           0       -2.191108   -3.076421   -0.669751
     20          1           0       -2.766143   -3.994176   -0.732695
     21          6           0       -1.537438   -2.739090    0.516639
     22          1           0       -1.608406   -3.394544    1.380172
     23          6           0       -0.803190   -1.554845    0.628011
     24          6           0       -0.088287   -1.172410    1.894144
     25          1           0       -0.403315   -1.829886    2.711134
     26          1           0       -0.354832   -0.147235    2.176898
     27          6           0        1.435314   -1.280047    1.739817
     28          1           0        1.677743   -2.324454    1.504568
     29          1           0        1.905988   -1.080617    2.709126
     30          6           0        2.109823   -0.387164    0.707250
     31          6           0        3.511547   -0.374143    0.748717
     32          1           0        3.996953   -0.983281    1.505464
     33          6           0        4.289439    0.390819   -0.115523
     34          1           0        5.371507    0.376393   -0.038976
     35          6           0        3.649248    1.172172   -1.074606
     36          1           0        4.222714    1.772798   -1.774318
     37          6           0        2.259744    1.172620   -1.149293
     38          1           0        1.780633    1.760590   -1.921286
     39          6           0        1.464156    0.415540   -0.265559
     40          1           0       -3.436911    3.026437    2.278271
 ---------------------------------------------------------------------

 SCF Done:  E(RHF) =  -764.750652136     A.U. after   16 cycles
