 Gaussian 16, Revision B.01,

 -----------------------------------------------------------
 #p b3lyp/6-31G(d) opt freq scrf=(iefpcm,read,solvent=water)
 -----------------------------------------------------------

 --------------------------------------------
 SET_328_BBB29_conf1.geo_135_285_285 geometry
 --------------------------------------------
 Symbolic Z-matrix:
 Charge =  1 Multiplicity = 1

 SCF Done:  E(RB3LYP) =  -1548.95345850     A.U. after   13 cycles
 SCF Done:  E(RB3LYP) =  -1548.98265179     A.U. after   12 cycles
 SCF Done:  E(RB3LYP) =  -1548.99084744     A.U. after   11 cycles
 SCF Done:  E(RB3LYP) =  -1548.99329822     A.U. after   11 cycles
 SCF Done:  E(RB3LYP) =  -1548.99440715     A.U. after   11 cycles
 SCF Done:  E(RB3LYP) =  -1548.99492629     A.U. after   11 cycles
 SCF Done:  E(RB3LYP) =  -1548.99620206     A.U. after   10 cycles
 SCF Done:  E(RB3LYP) =  -1548.99670517     A.U. after   10 cycles
 SCF Done:  E(RB3LYP) =  -1548.99684437     A.U. after   10 cycles
 SCF Done:  E(RB3LYP) =  -1548.99703283     A.U. after    9 cycles
 SCF Done:  E(RB3LYP) =  -1548.99721533     A.U. after    3 cycles
 SCF Done:  E(RB3LYP) =  -1548.99721533     A.U. after    3 cycles
 SCF Done:  E(RB3LYP) =  -1548.99715973     A.U. after    9 cycles
 SCF Done:  E(RB3LYP) =  -1548.99715782     A.U. after    6 cycles
 SCF Done:  E(RB3LYP) =  -1548.99721529     A.U. after    9 cycles
 SCF Done:  E(RB3LYP) =  -1548.99715582     A.U. after    9 cycles
 Optimization completed.
    -- Stationary point found.
 Normal termination of Gaussian 16 at Sun Jul 18 14:41:07 2021.

 --------------------------------------------------------------------
 #P Geom=AllCheck Guess=TCheck SCRF=Check GenChk RB3LYP/6-31G(d) Freq
 --------------------------------------------------------------------

 Structure from the checkpoint file:  "SET_328_BBB29_conf1.geo_135_285_285.chk"
 --------------------------------------------
 SET_328_BBB29_conf1.geo_135_285_285 geometry
 --------------------------------------------
 Charge =  1 Multiplicity = 1

 SCF Done:  E(RB3LYP) =  -1548.99715582     A.U. after    1 cycles

  Exact polarizability: 372.374 -19.958 229.481 -16.629 -66.404 218.521
 Approx polarizability: 390.400 -22.109 263.369 -14.743 -82.969 256.870

 ******    1 imaginary frequencies (negative Signs) ******

                      1                      2                      3
                      A                      A                      A
 Frequencies --    -53.4783                42.9172                47.0400
 Red. masses --      2.0017                 6.4981                 4.1267
 Frc consts  --      0.0034                 0.0071                 0.0054
 IR Inten    --      9.7523                 8.0738                27.4336

                      4                      5                      6
                      A                      A                      A
 Frequencies --     54.8957                92.8013               126.7552
 Red. masses --      4.0348                 5.5628                 3.5480
 Frc consts  --      0.0072                 0.0282                 0.0336
 IR Inten    --     15.7377                 1.8344                 0.5243

                      7                      8                      9
                      A                      A                      A
 Frequencies --    144.6848               163.7251               175.1432
 Red. masses --      3.8746                 3.9712                 3.9154
 Frc consts  --      0.0478                 0.0627                 0.0708
 IR Inten    --      0.6770                12.8218                 2.3469

                     10                     11                     12
                      A                      A                      A
 Frequencies --    223.2145               268.0370               280.8000
 Red. masses --      5.6851                 2.2601                 5.7110
 Frc consts  --      0.1669                 0.0957                 0.2653
 IR Inten    --      6.8422                 2.3680                 2.7923

                     13                     14                     15
                      A                      A                      A
 Frequencies --    293.0860               320.3430               346.2076
 Red. masses --      2.9429                 5.9354                 4.3544
 Frc consts  --      0.1489                 0.3589                 0.3075
 IR Inten    --      0.2839                 2.6640                 7.4823

                     16                     17                     18
                      A                      A                      A
 Frequencies --    360.2467               378.4686               398.1600
 Red. masses --      2.5402                 5.9860                 3.2522
 Frc consts  --      0.1942                 0.5052                 0.3038
 IR Inten    --      1.9182                 5.8616                 4.6739

                     19                     20                     21
                      A                      A                      A
 Frequencies --    434.8363               444.3628               458.4262
 Red. masses --      4.3504                 3.6749                 3.4481
 Frc consts  --      0.4847                 0.4275                 0.4269
 IR Inten    --      5.4459                 2.7596                 2.2818

                     22                     23                     24
                      A                      A                      A
 Frequencies --    481.2491               512.0116               535.8837
 Red. masses --      3.0038                 6.0476                 3.6776
 Frc consts  --      0.4099                 0.9341                 0.6222
 IR Inten    --     22.1320                19.9276                 3.3789

                     25                     26                     27
                      A                      A                      A
 Frequencies --    549.8816               590.9672               614.4164
 Red. masses --      4.2627                 6.5797                 4.9335
 Frc consts  --      0.7594                 1.3539                 1.0973
 IR Inten    --      0.2357                 9.6166                 9.6091

                     28                     29                     30
                      A                      A                      A
 Frequencies --    634.1098               687.6875               712.7825
 Red. masses --      5.3784                 5.7923                 5.1858
 Frc consts  --      1.2742                 1.6139                 1.5523
 IR Inten    --      6.9543                 9.9710                 0.5938

                     31                     32                     33
                      A                      A                      A
 Frequencies --    735.0130               744.4783               762.8006
 Red. masses --      5.3978                 2.9566                 1.7035
 Frc consts  --      1.7181                 0.9655                 0.5840
 IR Inten    --      2.6006                 5.3677                88.7667

                     34                     35                     36
                      A                      A                      A
 Frequencies --    771.4392               805.6554               814.5443
 Red. masses --      1.7802                 2.6389                 1.3673
 Frc consts  --      0.6242                 1.0092                 0.5345
 IR Inten    --     18.6764                12.8459                39.0928

                     37                     38                     39
                      A                      A                      A
 Frequencies --    832.0678               869.3595               872.3663
 Red. masses --      2.1984                 1.3804                 1.4138
 Frc consts  --      0.8967                 0.6147                 0.6339
 IR Inten    --     25.2815                 1.3806                24.4124

                     40                     41                     42
                      A                      A                      A
 Frequencies --    909.8246               937.5384               945.6391
 Red. masses --      2.3611                 1.6979                 1.3871
 Frc consts  --      1.1516                 0.8793                 0.7308
 IR Inten    --     72.7615                86.4601                 1.5826

                     43                     44                     45
                      A                      A                      A
 Frequencies --    948.1575               948.8558               986.8620
 Red. masses --      1.3112                 2.8829                 1.2644
 Frc consts  --      0.6945                 1.5292                 0.7255
 IR Inten    --      1.4735                35.0432                 0.6109

                     46                     47                     48
                      A                      A                      A
 Frequencies --   1030.0330              1053.7768              1065.0612
 Red. masses --      1.9675                 2.0875                 4.6361
 Frc consts  --      1.2299                 1.3658                 3.0985
 IR Inten    --     22.0583                17.2011                37.5674

                     49                     50                     51
                      A                      A                      A
 Frequencies --   1074.3061              1081.5942              1114.0576
 Red. masses --      3.1929                 2.1922                 2.4640
 Frc consts  --      2.1712                 1.5110                 1.8018
 IR Inten    --      3.4679                11.6040                10.1306

                     52                     53                     54
                      A                      A                      A
 Frequencies --   1122.9276              1139.4575              1155.1158
 Red. masses --      1.9802                 2.2210                 1.5601
 Frc consts  --      1.4711                 1.6990                 1.2265
 IR Inten    --     68.9819                 8.2518                28.7987

                     55                     56                     57
                      A                      A                      A
 Frequencies --   1160.9552              1170.9793              1194.3882
 Red. masses --      1.7902                 1.4440                 1.1282
 Frc consts  --      1.4216                 1.1666                 0.9482
 IR Inten    --     77.5775                 4.2805                 2.1479

                     58                     59                     60
                      A                      A                      A
 Frequencies --   1252.8810              1282.2523              1289.3471
 Red. masses --      1.8207                 2.4690                 1.3424
 Frc consts  --      1.6839                 2.3917                 1.3148
 IR Inten    --    167.5151               164.1918                 9.2550

                     61                     62                     63
                      A                      A                      A
 Frequencies --   1311.6740              1325.3318              1334.3246
 Red. masses --      1.6243                 1.5371                 3.7018
 Frc consts  --      1.6466                 1.5908                 3.8831
 IR Inten    --     23.2995                54.2619                78.5766

                     64                     65                     66
                      A                      A                      A
 Frequencies --   1345.4125              1355.5146              1366.6527
 Red. masses --      4.3501                 2.8340                 1.3027
 Frc consts  --      4.6394                 3.0681                 1.4336
 IR Inten    --     32.1159                24.3251                23.6204

                     67                     68                     69
                      A                      A                      A
 Frequencies --   1400.1425              1428.3504              1438.4602
 Red. masses --      1.3276                 1.8375                 2.0108
 Frc consts  --      1.5335                 2.2087                 2.4514
 IR Inten    --     21.4102                71.7752                34.4915

                     70                     71                     72
                      A                      A                      A
 Frequencies --   1464.7952              1487.9697              1495.0522
 Red. masses --      1.4276                 1.6188                 1.4026
 Frc consts  --      1.8047                 2.1116                 1.8472
 IR Inten    --     39.9937                18.6073                76.4613

                     73                     74                     75
                      A                      A                      A
 Frequencies --   1500.9390              1510.2220              1527.3245
 Red. masses --      2.0561                 1.0801                 1.1712
 Frc consts  --      2.7290                 1.4514                 1.6096
 IR Inten    --    375.0939                20.2162               188.4725

                     76                     77                     78
                      A                      A                      A
 Frequencies --   1531.2640              1553.6875              1610.2812
 Red. masses --      2.6105                 1.0995                 6.3390
 Frc consts  --      3.6064                 1.5638                 9.6844
 IR Inten    --     32.8709                42.8310                41.9707

                     79                     80                     81
                      A                      A                      A
 Frequencies --   1623.9147              1629.6253              1631.0110
 Red. masses --      6.0807                 1.4522                 2.3133
 Frc consts  --      9.4478                 2.2723                 3.6257
 IR Inten    --    108.7097                63.0980                14.9097

                     82                     83                     84
                      A                      A                      A
 Frequencies --   1649.2574              1672.9213              3066.0401
 Red. masses --      6.4715                 1.0392                 1.0723
 Frc consts  --     10.3712                 1.7135                 5.9390
 IR Inten    --     51.8449                81.8061                60.9926

                     85                     86                     87
                      A                      A                      A
 Frequencies --   3089.8055              3129.7950              3141.4305
 Red. masses --      1.0635                 1.0943                 1.0669
 Frc consts  --      5.9819                 6.3154                 6.2035
 IR Inten    --     37.5392                 5.7354                19.1337

                     88                     89                     90
                      A                      A                      A
 Frequencies --   3164.1113              3196.4308              3209.4931
 Red. masses --      1.0914                 1.1098                 1.0868
 Frc consts  --      6.4377                 6.6807                 6.5957
 IR Inten    --     36.9233                10.2551                 1.7569

                     91                     92                     93
                      A                      A                      A
 Frequencies --   3215.9801              3230.2116              3232.1553
 Red. masses --      1.0900                 1.0943                 1.0894
 Frc consts  --      6.6421                 6.7272                 6.7054
 IR Inten    --     15.5581                41.6203                 7.5461

                     94                     95                     96
                      A                      A                      A
 Frequencies --   3239.6684              3251.3985              3267.7657
 Red. masses --      1.0938                 1.0946                 1.0908
 Frc consts  --      6.7638                 6.8181                 6.8627
 IR Inten    --     20.7029                 5.6277                 1.7563

                     97                     98                     99
                      A                      A                      A
 Frequencies --   3410.0656              3476.1905              3493.4311
 Red. masses --      1.0343                 1.0941                 1.0921
 Frc consts  --      7.0864                 7.7898                 7.8528
 IR Inten    --    112.9677               230.1309               243.9700

 - Thermochemistry -
 -------------------
 Temperature   298.150 Kelvin.  Pressure   1.00000 Atm.
 Atom     1 has atomic number  7 and mass  14.00307

 Molecular mass:   291.07227 amu.
 Principal axes and moments of inertia in atomic units:
                           1         2         3
     Eigenvalues --  4306.078677960.792009743.51743
           X            0.99982   0.00875  -0.01672
           Y           -0.00844   0.99980   0.01830
           Z            0.01688  -0.01816   0.99969
 This molecule is an asymmetric top.
 Rotational symmetry number  1.
 Warning -- assumption of classical behavior for rotation
           may cause significant error
 Rotational temperatures (Kelvin)      0.02011     0.01088     0.00889
 Rotational constants (GHZ):           0.41911     0.22670     0.18522
    1 imaginary frequencies ignored.
 Zero-point vibrational energy     756356.8 (Joules/Mol)
                                  180.77361 (Kcal/Mol)
 Warning -- explicit consideration of  26 degrees of freedom as
           vibrations may cause significant error
 Vibrational temperatures:     61.75    67.68    78.98   133.52   182.37
          (Kelvin)            208.17   235.56   251.99   321.16   385.65
                              404.01   421.69   460.90   498.12   518.31
                              544.53   572.86   625.63   639.34   659.57
                              692.41   736.67   771.02   791.16   850.27
                              884.01   912.34   989.43  1025.53  1057.52
                             1071.14  1097.50  1109.93  1159.16  1171.95
                             1197.16  1250.81  1255.14  1309.03  1348.91
                             1360.56  1364.19  1365.19  1419.87  1481.99
                             1516.15  1532.39  1545.69  1556.17  1602.88
                             1615.64  1639.43  1661.95  1670.36  1684.78
                             1718.46  1802.62  1844.88  1855.08  1887.21
                             1906.86  1919.80  1935.75  1950.28  1966.31
                             2014.49  2055.08  2069.62  2107.51  2140.86
                             2151.05  2159.52  2172.87  2197.48  2203.15
                             2235.41  2316.84  2336.45  2344.67  2346.66
                             2372.91  2406.96  4411.35  4445.54  4503.08
                             4519.82  4552.45  4598.95  4617.74  4627.08
                             4647.55  4650.35  4661.16  4678.04  4701.59
                             4906.32  5001.46  5026.27

 Zero-point correction=                           0.288081 (Hartree/Particle)
 Thermal correction to Energy=                    0.304123
 Thermal correction to Enthalpy=                  0.305067
 Thermal correction to Gibbs Free Energy=         0.243947
 Sum of electronic and zero-point Energies=          -1548.709075
 Sum of electronic and thermal Energies=             -1548.693033
 Sum of electronic and thermal Enthalpies=           -1548.692088
 Sum of electronic and thermal Free Energies=        -1548.753209

                     E (Thermal)             CV                S
                      KCal/Mol        Cal/Mol-Kelvin    Cal/Mol-Kelvin
 Total                  190.840             63.939            128.639
 Electronic               0.000              0.000              0.000
 Translational            0.889              2.981             42.903
 Rotational               0.889              2.981             34.168
 Vibrational            189.063             57.977             51.568
 Vibration     1          0.595              1.980              5.120
 Vibration     2          0.595              1.979              4.938
 Vibration     3          0.596              1.976              4.633
 Vibration     4          0.602              1.954              3.600
 Vibration     5          0.611              1.926              2.995
 Vibration     6          0.616              1.908              2.741
 Vibration     7          0.623              1.887              2.506
 Vibration     8          0.627              1.873              2.380
 Vibration     9          0.649              1.806              1.933
 Vibration    10          0.673              1.732              1.609
 Vibration    11          0.680              1.709              1.529
 Vibration    12          0.688              1.687              1.456
 Vibration    13          0.706              1.635              1.308
 Vibration    14          0.724              1.583              1.183
 Vibration    15          0.735              1.554              1.121
 Vibration    16          0.749              1.516              1.045
 Vibration    17          0.764              1.474              0.969
 Vibration    18          0.795              1.394              0.843
 Vibration    19          0.804              1.373              0.813
 Vibration    20          0.816              1.342              0.771
 Vibration    21          0.838              1.292              0.707
 Vibration    22          0.867              1.223              0.629
 Vibration    23          0.891              1.171              0.574
 Vibration    24          0.905              1.140              0.544
 Vibration    25          0.948              1.051              0.465
 Vibration    26          0.974              1.001              0.426

 Optimization completed.
    -- Stationary point found.
 Normal termination of Gaussian 16 at Sun Jul 18 14:57:27 2021.

 ----------------------------------------------------------------------
 #p b3lyp/6-31G(d) scrf=(iefpcm,read,solvent=water) geom=allcheck guess
 =read
 ----------------------------------------------------------------------

 Structure from the checkpoint file:  "SET_328_BBB29_conf1.geo_135_285_285.chk"
 --------------------------------------------
 SET_328_BBB29_conf1.geo_135_285_285 geometry
 --------------------------------------------
 Charge =  1 Multiplicity = 1

 SCF Done:  E(RB3LYP) =  -1548.99715582     A.U. after    1 cycles
 Normal termination of Gaussian 16 at Sun Jul 18 14:57:42 2021.

 -----------------------------
 #p B3LYP/6-31G* geom=allcheck
 -----------------------------

 Structure from the checkpoint file:  "SET_328_BBB29_conf1.geo_135_285_285.chk"
 --------------------------------------------
 SET_328_BBB29_conf1.geo_135_285_285 geometry
 --------------------------------------------
 Charge =  1 Multiplicity = 1

 SCF Done:  E(RB3LYP) =  -1548.88027652     A.U. after   16 cycles

 The electronic state is 1-A.
 Alpha  occ. eigenvalues -- -101.63546 -88.99145 -14.66145 -14.48951 -10.42525
 Alpha  occ. eigenvalues --  -10.37147 -10.35914 -10.35199 -10.35027 -10.34216
 Alpha  occ. eigenvalues --  -10.32626 -10.32185 -10.30697 -10.30216 -10.29689
 Alpha  occ. eigenvalues --  -10.29597 -10.29286 -10.29011 -10.28517  -9.55162
 Alpha  occ. eigenvalues --   -8.05175  -7.31572  -7.30583  -7.30547  -6.01678
 Alpha  occ. eigenvalues --   -6.01319  -6.00676  -1.20295  -1.08905  -0.98765
 Alpha  occ. eigenvalues --   -0.96998  -0.95405  -0.93898  -0.89468  -0.87598
 Alpha  occ. eigenvalues --   -0.86721  -0.84078  -0.83326  -0.79785  -0.78548
 Alpha  occ. eigenvalues --   -0.77661  -0.76575  -0.73443  -0.71159  -0.70699
 Alpha  occ. eigenvalues --   -0.67823  -0.66479  -0.64445  -0.63628  -0.62027
 Alpha  occ. eigenvalues --   -0.60006  -0.58557  -0.57891  -0.57318  -0.55897
 Alpha  occ. eigenvalues --   -0.55235  -0.54649  -0.53665  -0.52769  -0.52192
 Alpha  occ. eigenvalues --   -0.51501  -0.50629  -0.49083  -0.48199  -0.47910
 Alpha  occ. eigenvalues --   -0.46214  -0.45074  -0.44401  -0.42495  -0.41346
 Alpha  occ. eigenvalues --   -0.40022  -0.38622  -0.36077  -0.34694  -0.32991
 Alpha  occ. eigenvalues --   -0.29715
 Alpha virt. eigenvalues --   -0.16432  -0.11916  -0.11553  -0.10545  -0.09939
 Alpha virt. eigenvalues --   -0.09718  -0.09412  -0.06862  -0.05686  -0.05448
 Alpha virt. eigenvalues --   -0.03565  -0.03068  -0.01934   0.00047   0.00711

 Mulliken charges:
               1
     1  N   -0.728359
     2  H    0.425798
     3  H    0.435932
     4  C   -0.213291
     5  H    0.256938
     6  H    0.229158
     7  C   -0.308395
     8  H    0.222503
     9  H    0.172421
    10  C   -0.163046
    11  H    0.198875
    12  H    0.135037
    13  N   -0.590109
    14  C    0.288726
    15  C   -0.188982
    16  H    0.162847
    17  C   -0.087631
    18  Cl   0.006508
    19  C   -0.114746
    20  H    0.181020
    21  C   -0.173215
    22  H    0.176761
    23  C   -0.122321
    24  S    0.173121
    25  C   -0.127467
    26  C    0.293685
    27  C   -0.173032
    28  H    0.134860
    29  C   -0.145759
    30  H    0.158319
    31  C   -0.112177
    32  H    0.162161
    33  C   -0.171937
    34  H    0.169780
    35  H    0.436017
 Sum of Mulliken charges =   1.00000

 Dipole moment (field-independent basis, Debye):
    X=              2.7016    Y=             14.6101    Z=              5.1254  Tot=             15.7170
 Quadrupole moment (field-independent basis, Debye-Ang):
   XX=           -108.1230   YY=            -55.2693   ZZ=           -107.1829
   XY=              0.9595   XZ=             -8.2395   YZ=             17.8810

 Normal termination of Gaussian 16 at Sun Jul 18 14:58:51 2021.
 Gaussian 16:  ES64L-G16RevB.01 20-Dec-2017

 --------------------------------------------------------
 #p mp2/aug-cc-pVDZ scf=tight maxdisk=180GB geom=allcheck
 --------------------------------------------------------

 Structure from the checkpoint file:  "SET_328_BBB29_conf1.geo_135_285_285.chk"
 --------------------------------------------
 SET_328_BBB29_conf1.geo_135_285_285 geometry
 --------------------------------------------
 Charge =  1 Multiplicity = 1

                         Standard orientation:
 ---------------------------------------------------------------------
 Center     Atomic      Atomic             Coordinates (Angstroms)
 Number     Number       Type             X           Y           Z
 ---------------------------------------------------------------------
      1          7           0       -0.057266    3.642507    1.597689
      2          1           0       -0.218544    4.535301    1.108830
      3          1           0       -0.074822    3.838646    2.606958
      4          6           0        1.255283    3.021401    1.197110
      5          1           0        1.314157    2.068362    1.720358
      6          1           0        2.033050    3.683104    1.576660
      7          6           0        1.382619    2.850114   -0.311199
      8          1           0        2.403897    2.511410   -0.502374
      9          1           0        1.279117    3.819102   -0.809106
     10          6           0        0.378019    1.878047   -0.946651
     11          1           0        0.525814    1.861547   -2.032495
     12          1           0       -0.633176    2.247859   -0.786092
     13          7           0        0.450043    0.534595   -0.365682
     14          6           0       -0.743850   -0.167355   -0.087539
     15          6           0       -1.962576    0.156777   -0.702415
     16          1           0       -2.019930    0.936500   -1.447838
     17          6           0       -3.116025   -0.541023   -0.355298
     18         17           0       -4.632459   -0.086225   -1.126878
     19          6           0       -3.104437   -1.589791    0.556712
     20          1           0       -4.013520   -2.121527    0.806271
     21          6           0       -1.883861   -1.941482    1.133642
     22          1           0       -1.839089   -2.762463    1.839184
     23          6           0       -0.722048   -1.233374    0.834460
     24         16           0        0.799772   -1.608513    1.676625
     25          6           0        1.920094   -1.287767    0.326542
     26          6           0        1.639708   -0.218201   -0.542709
     27          6           0        2.555727    0.066152   -1.565398
     28          1           0        2.358209    0.872085   -2.261347
     29          6           0        3.727428   -0.680975   -1.696804
     30          1           0        4.425945   -0.432841   -2.488533
     31          6           0        3.993334   -1.742795   -0.833189
     32          1           0        4.900455   -2.326918   -0.938922
     33          6           0        3.074802   -2.054890    0.171210
     34          1           0        3.256945   -2.883776    0.847431
     35          1           0       -0.857810    3.026881    1.397064
 ---------------------------------------------------------------------

 SCF Done:  E(RHF) =  -1543.12750992     A.U. after   17 cycles
