 Gaussian 16, Revision B.01,

 -----------------------------------------------------------
 #p b3lyp/6-31G(d) opt freq scrf=(iefpcm,read,solvent=water)
 -----------------------------------------------------------

 --------------------------------------------
 SET_328_BBB20_conf1.geo_060_180_300 geometry
 --------------------------------------------
 Symbolic Z-matrix:
 Charge =  1 Multiplicity = 1

 SCF Done:  E(RB3LYP) =  -769.766709079     A.U. after   13 cycles
 SCF Done:  E(RB3LYP) =  -769.804741393     A.U. after   11 cycles
 SCF Done:  E(RB3LYP) =  -769.827245090     A.U. after   11 cycles
 SCF Done:  E(RB3LYP) =  -769.829889875     A.U. after   10 cycles
 SCF Done:  E(RB3LYP) =  -769.830390848     A.U. after   10 cycles
 SCF Done:  E(RB3LYP) =  -769.830739902     A.U. after   10 cycles
 SCF Done:  E(RB3LYP) =  -769.830111052     A.U. after   12 cycles
 SCF Done:  E(RB3LYP) =  -769.831604366     A.U. after   10 cycles
 SCF Done:  E(RB3LYP) =  -769.813865710     A.U. after   12 cycles
 SCF Done:  E(RB3LYP) =  -769.831535194     A.U. after   10 cycles
 SCF Done:  E(RB3LYP) =  -769.832080736     A.U. after    8 cycles
 SCF Done:  E(RB3LYP) =  -769.832055076     A.U. after    9 cycles
 SCF Done:  E(RB3LYP) =  -769.832055117     A.U. after    6 cycles
 SCF Done:  E(RB3LYP) =  -769.832078618     A.U. after    9 cycles
 SCF Done:  E(RB3LYP) =  -769.832080566     A.U. after    8 cycles
 SCF Done:  E(RB3LYP) =  -769.832055585     A.U. after    9 cycles
 Optimization completed.
    -- Stationary point found.
 Normal termination of Gaussian 16 at Sun Jul 18 14:19:35 2021.

 --------------------------------------------------------------------
 #P Geom=AllCheck Guess=TCheck SCRF=Check GenChk RB3LYP/6-31G(d) Freq
 --------------------------------------------------------------------

 Structure from the checkpoint file:  "SET_328_BBB20_conf1.geo_060_180_300.chk"
 --------------------------------------------
 SET_328_BBB20_conf1.geo_060_180_300 geometry
 --------------------------------------------
 Charge =  1 Multiplicity = 1

 SCF Done:  E(RB3LYP) =  -769.832055585     A.U. after    1 cycles

  Exact polarizability: 255.320  21.782 292.980 -45.423  28.453 209.942
 Approx polarizability: 274.869  15.518 314.349 -53.691  34.452 241.875

                      1                      2                      3
                      A                      A                      A
 Frequencies --     37.6155                48.3286                61.1904
 Red. masses --      4.1135                 4.0910                 3.9855
 Frc consts  --      0.0034                 0.0056                 0.0088
 IR Inten    --      3.8924                15.2801                19.7774

                      4                      5                      6
                      A                      A                      A
 Frequencies --     82.9597                94.8322               126.0295
 Red. masses --      2.5878                 3.5511                 3.0350
 Frc consts  --      0.0105                 0.0188                 0.0284
 IR Inten    --      5.2532                 0.9423                14.3191

                      7                      8                      9
                      A                      A                      A
 Frequencies --    144.8296               176.7225               220.0583
 Red. masses --      3.4760                 2.7616                 2.7313
 Frc consts  --      0.0430                 0.0508                 0.0779
 IR Inten    --      1.3994                 5.0883                 2.5443

                     10                     11                     12
                      A                      A                      A
 Frequencies --    263.9396               270.1975               303.3327
 Red. masses --      3.1988                 2.3529                 3.0053
 Frc consts  --      0.1313                 0.1012                 0.1629
 IR Inten    --      0.1800                10.5717                 4.3955

                     13                     14                     15
                      A                      A                      A
 Frequencies --    309.5051               341.3033               359.3046
 Red. masses --      3.1741                 3.6340                 1.8622
 Frc consts  --      0.1791                 0.2494                 0.1416
 IR Inten    --      0.9647                 3.8512                 2.5383

                     16                     17                     18
                      A                      A                      A
 Frequencies --    363.2733               418.3636               444.5742
 Red. masses --      1.6069                 4.0480                 3.1774
 Frc consts  --      0.1249                 0.4174                 0.3700
 IR Inten    --      2.1802                18.5651                 2.2877

                     19                     20                     21
                      A                      A                      A
 Frequencies --    452.1460               474.7983               484.3254
 Red. masses --      2.8816                 2.9968                 3.8059
 Frc consts  --      0.3471                 0.3980                 0.5260
 IR Inten    --      3.7897                 0.2690                 7.9683

                     22                     23                     24
                      A                      A                      A
 Frequencies --    527.0816               549.7973               575.2888
 Red. masses --      3.3200                 3.8571                 4.8659
 Frc consts  --      0.5434                 0.6869                 0.9488
 IR Inten    --      0.4273                 1.0752                 1.2736

                     25                     26                     27
                      A                      A                      A
 Frequencies --    598.6122               621.4128               636.4105
 Red. masses --      3.3060                 4.4033                 4.6740
 Frc consts  --      0.6980                 1.0018                 1.1154
 IR Inten    --      1.8151                11.4260                13.8235

                     28                     29                     30
                      A                      A                      A
 Frequencies --    706.4064               727.1677               757.6158
 Red. masses --      4.5987                 3.4885                 2.5082
 Frc consts  --      1.3521                 1.0868                 0.8482
 IR Inten    --      1.0668                 3.4970                 9.8840

                     31                     32                     33
                      A                      A                      A
 Frequencies --    768.2481               772.5752               785.6148
 Red. masses --      1.5424                 1.5174                 2.0323
 Frc consts  --      0.5363                 0.5336                 0.7390
 IR Inten    --     34.1785                51.5737                48.5676

                     34                     35                     36
                      A                      A                      A
 Frequencies --    795.6207               811.7015               847.6920
 Red. masses --      1.6336                 3.2710                 1.6794
 Frc consts  --      0.6093                 1.2698                 0.7110
 IR Inten    --      3.7790                 3.5408                16.7157

                     37                     38                     39
                      A                      A                      A
 Frequencies --    872.7976               876.9297               890.4343
 Red. masses --      1.8357                 1.5316                 1.4922
 Frc consts  --      0.8239                 0.6939                 0.6971
 IR Inten    --     13.3198                15.9697                 4.2573

                     40                     41                     42
                      A                      A                      A
 Frequencies --    911.8357               931.9200               951.1061
 Red. masses --      2.3175                 2.6812                 1.4603
 Frc consts  --      1.1353                 1.3720                 0.7783
 IR Inten    --     14.3406                18.8778                 6.4628

                     43                     44                     45
                      A                      A                      A
 Frequencies --    953.3266               984.5377               987.4788
 Red. masses --      1.3667                 1.2607                 1.2794
 Frc consts  --      0.7318                 0.7200                 0.7350
 IR Inten    --      5.0101                 0.1230                 0.4764

                     46                     47                     48
                      A                      A                      A
 Frequencies --    989.1265               992.8159              1032.5223
 Red. masses --      2.0383                 1.3798                 1.6745
 Frc consts  --      1.1750                 0.8013                 1.0518
 IR Inten    --      0.9592                15.4390                32.7804

                     49                     50                     51
                      A                      A                      A
 Frequencies --   1050.1739              1060.3251              1071.9023
 Red. masses --      2.4474                 2.7280                 2.3624
 Frc consts  --      1.5903                 1.8070                 1.5993
 IR Inten    --      2.4639                 3.9465                 3.6850

                     52                     53                     54
                      A                      A                      A
 Frequencies --   1083.7788              1091.4307              1134.8567
 Red. masses --      2.7834                 2.2928                 1.9718
 Frc consts  --      1.9262                 1.6092                 1.4962
 IR Inten    --     12.5326                16.1734                41.0666

                     55                     56                     57
                      A                      A                      A
 Frequencies --   1144.6150              1156.4308              1179.1722
 Red. masses --      1.8353                 1.8670                 1.5653
 Frc consts  --      1.4167                 1.4710                 1.2824
 IR Inten    --     21.0312                17.4415                28.6992

                     58                     59                     60
                      A                      A                      A
 Frequencies --   1188.5006              1191.6720              1202.3724
 Red. masses --      1.1660                 1.2159                 1.1713
 Frc consts  --      0.9704                 1.0173                 0.9977
 IR Inten    --      2.3463                 4.7211                 6.4857

                     61                     62                     63
                      A                      A                      A
 Frequencies --   1211.5181              1236.3844              1249.1559
 Red. masses --      1.7361                 2.5127                 1.8143
 Frc consts  --      1.5014                 2.2631                 1.6680
 IR Inten    --      7.8852                 6.8005               130.7878

                     64                     65                     66
                      A                      A                      A
 Frequencies --   1261.4280              1263.3604              1291.3442
 Red. masses --      1.6465                 2.0487                 1.5848
 Frc consts  --      1.5436                 1.9266                 1.5570
 IR Inten    --    102.9799                87.2521                59.5267

                     67                     68                     69
                      A                      A                      A
 Frequencies --   1324.5672              1328.7658              1334.0426
 Red. masses --      1.6887                 1.5001                 1.9795
 Frc consts  --      1.7456                 1.5606                 2.0756
 IR Inten    --      3.8901                29.8276                95.6980

                     70                     71                     72
                      A                      A                      A
 Frequencies --   1345.0464              1360.4400              1373.4097
 Red. masses --      3.6594                 2.3443                 1.3785
 Frc consts  --      3.9006                 2.5563                 1.5320
 IR Inten    --      2.7962                 5.1175                24.2316

                     73                     74                     75
                      A                      A                      A
 Frequencies --   1381.0805              1388.5514              1398.8094
 Red. masses --      1.5180                 1.3286                 1.4768
 Frc consts  --      1.7059                 1.5093                 1.7025
 IR Inten    --      8.5089                35.9284                14.9130

                     76                     77                     78
                      A                      A                      A
 Frequencies --   1427.3776              1461.1442              1485.5017
 Red. masses --      1.3723                 1.3976                 1.4335
 Frc consts  --      1.6474                 1.7580                 1.8638
 IR Inten    --     26.9893                11.4023                21.5544

                     79                     80                     81
                      A                      A                      A
 Frequencies --   1491.1213              1496.7782              1500.9205
 Red. masses --      1.4937                 1.2471                 1.1229
 Frc consts  --      1.9568                 1.6461                 1.4903
 IR Inten    --     31.4424                 2.4760                26.5438

                     82                     83                     84
                      A                      A                      A
 Frequencies --   1503.6583              1517.1571              1531.7393
 Red. masses --      1.9437                 1.0780                 2.0593
 Frc consts  --      2.5893                 1.4619                 2.8466
 IR Inten    --     41.5208                12.4999               294.0076

                     85                     86                     87
                      A                      A                      A
 Frequencies --   1541.8088              1545.9852              1561.4858
 Red. masses --      1.2168                 2.3670                 1.1398
 Frc consts  --      1.7043                 3.3331                 1.6374
 IR Inten    --    103.6074                44.9722                22.8003

                     88                     89                     90
                      A                      A                      A
 Frequencies --   1628.9780              1641.2047              1650.8337
 Red. masses --      5.9075                 6.4395                 1.0618
 Frc consts  --      9.2361                10.2194                 1.7049
 IR Inten    --     25.9393                11.7417                70.4158

                     91                     92                     93
                      A                      A                      A
 Frequencies --   1653.0607              1658.5949              1661.1202
 Red. masses --      5.2149                 4.0200                 1.1208
 Frc consts  --      8.3960                 6.5156                 1.8222
 IR Inten    --     45.0541                17.4596                78.0679

                     94                     95                     96
                      A                      A                      A
 Frequencies --   3006.5839              3038.2042              3061.5602
 Red. masses --      1.0724                 1.0625                 1.0720
 Frc consts  --      5.7114                 5.7787                 5.9200
 IR Inten    --    103.7689                54.1171                17.8643

                     97                     98                     99
                      A                      A                      A
 Frequencies --   3074.8418              3080.0913              3111.1899
 Red. masses --      1.0876                 1.0637                 1.1041
 Frc consts  --      6.0584                 5.9459                 6.2964
 IR Inten    --     92.6082                28.8351                49.3909

                    100                    101                    102
                      A                      A                      A
 Frequencies --   3118.7389              3125.9285              3137.7009
 Red. masses --      1.0796                 1.0746                 1.0952
 Frc consts  --      6.1868                 6.1864                 6.3529
 IR Inten    --      5.9427                14.3255                65.3410

                    103                    104                    105
                      A                      A                      A
 Frequencies --   3180.0285              3181.0592              3198.5056
 Red. masses --      1.1102                 1.0883                 1.0882
 Frc consts  --      6.6147                 6.4887                 6.5595
 IR Inten    --     14.1140                27.8057                21.7961

                    106                    107                    108
                      A                      A                      A
 Frequencies --   3200.1409              3209.4445              3220.1407
 Red. masses --      1.0858                 1.0892                 1.0932
 Frc consts  --      6.5516                 6.6105                 6.6785
 IR Inten    --      4.9964                23.4485                56.1520

                    109                    110                    111
                      A                      A                      A
 Frequencies --   3223.6586              3230.3005              3233.8567
 Red. masses --      1.0940                 1.0956                 1.0925
 Frc consts  --      6.6981                 6.7359                 6.7312
 IR Inten    --     50.3600                29.2969                21.8746

                    112                    113                    114
                      A                      A                      A
 Frequencies --   3356.6047              3415.4596              3447.2450
 Red. masses --      1.0352                 1.0938                 1.0920
 Frc consts  --      6.8719                 7.5174                 7.6454
 IR Inten    --    117.1903               237.5359               219.5604

 - Thermochemistry -
 -------------------
 Temperature   298.150 Kelvin.  Pressure   1.00000 Atm.
 Atom     1 has atomic number  7 and mass  14.00307

 Molecular mass:   253.17047 amu.
 Principal axes and moments of inertia in atomic units:
                           1         2         3
     Eigenvalues --  4597.015175147.486058113.03901
           X            0.98451  -0.17527  -0.00425
           Y            0.17529   0.98451   0.00454
           Z            0.00339  -0.00521   0.99998
 This molecule is an asymmetric top.
 Rotational symmetry number  1.
 Warning -- assumption of classical behavior for rotation
           may cause significant error
 Rotational temperatures (Kelvin)      0.01884     0.01683     0.01068
 Rotational constants (GHZ):           0.39259     0.35061     0.22245
 Zero-point vibrational energy     929777.1 (Joules/Mol)
                                  222.22207 (Kcal/Mol)
 Warning -- explicit consideration of  25 degrees of freedom as
           vibrations may cause significant error
 Vibrational temperatures:     54.12    69.53    88.04   119.36   136.44
          (Kelvin)            181.33   208.38   254.26   316.61   379.75
                              388.75   436.43   445.31   491.06   516.96
                              522.67   601.93   639.64   650.54   683.13
                              696.84   758.35   791.04   827.71   861.27
                              894.07   915.65  1016.36  1046.23  1090.04
                             1105.34  1111.56  1130.32  1144.72  1167.86
                             1219.64  1255.76  1261.71  1281.14  1311.93
                             1340.83  1368.43  1371.62  1416.53  1420.76
                             1423.13  1428.44  1485.57  1510.97  1525.57
                             1542.23  1559.32  1570.33  1632.81  1646.85
                             1663.85  1696.57  1709.99  1714.55  1729.95
                             1743.10  1778.88  1797.26  1814.91  1817.69
                             1857.96  1905.76  1911.80  1919.39  1935.22
                             1957.37  1976.03  1987.07  1997.82  2012.57
                             2053.68  2102.26  2137.31  2145.39  2153.53
                             2159.49  2163.43  2182.85  2203.83  2218.32
                             2224.33  2246.63  2343.74  2361.33  2375.18
                             2378.39  2386.35  2389.98  4325.80  4371.30
                             4404.90  4424.01  4431.56  4476.31  4487.17
                             4497.51  4514.45  4575.35  4576.83  4601.94
                             4604.29  4617.67  4633.06  4638.13  4647.68
                             4652.80  4829.41  4914.08  4959.82

 Zero-point correction=                           0.354133 (Hartree/Particle)
 Thermal correction to Energy=                    0.370434
 Thermal correction to Enthalpy=                  0.371379
 Thermal correction to Gibbs Free Energy=         0.309982
 Sum of electronic and zero-point Energies=           -769.477922
 Sum of electronic and thermal Energies=              -769.461621
 Sum of electronic and thermal Enthalpies=            -769.460677
 Sum of electronic and thermal Free Energies=         -769.522074

                     E (Thermal)             CV                S
                      KCal/Mol        Cal/Mol-Kelvin    Cal/Mol-Kelvin
 Total                  232.451             65.905            129.221
 Electronic               0.000              0.000              0.000
 Translational            0.889              2.981             42.487
 Rotational               0.889              2.981             33.617
 Vibrational            230.674             59.943             53.117
 Vibration     1          0.594              1.982              5.381
 Vibration     2          0.595              1.978              4.885
 Vibration     3          0.597              1.973              4.418
 Vibration     4          0.600              1.961              3.820
 Vibration     5          0.603              1.953              3.558
 Vibration     6          0.611              1.927              3.006
 Vibration     7          0.616              1.908              2.739
 Vibration     8          0.628              1.871              2.363
 Vibration     9          0.647              1.811              1.959
 Vibration    10          0.670              1.739              1.636
 Vibration    11          0.674              1.728              1.595
 Vibration    12          0.695              1.667              1.398
 Vibration    13          0.699              1.656              1.365
 Vibration    14          0.721              1.593              1.206
 Vibration    15          0.734              1.556              1.125
 Vibration    16          0.737              1.548              1.108
 Vibration    17          0.781              1.430              0.898
 Vibration    18          0.804              1.373              0.812
 Vibration    19          0.811              1.356              0.789
 Vibration    20          0.832              1.306              0.724
 Vibration    21          0.840              1.285              0.698
 Vibration    22          0.882              1.190              0.594
 Vibration    23          0.905              1.140              0.545
 Vibration    24          0.932              1.085              0.494
 Vibration    25          0.957              1.035              0.452

 Optimization completed.
    -- Stationary point found.
 Normal termination of Gaussian 16 at Sun Jul 18 14:37:10 2021.

 ----------------------------------------------------------------------
 #p b3lyp/6-31G(d) scrf=(iefpcm,read,solvent=water) geom=allcheck guess
 =read
 ----------------------------------------------------------------------

 Structure from the checkpoint file:  "SET_328_BBB20_conf1.geo_060_180_300.chk"
 --------------------------------------------
 SET_328_BBB20_conf1.geo_060_180_300 geometry
 --------------------------------------------
 Charge =  1 Multiplicity = 1

 SCF Done:  E(RB3LYP) =  -769.832055585     A.U. after    1 cycles
 Normal termination of Gaussian 16 at Sun Jul 18 14:37:24 2021.

 -----------------------------
 #p B3LYP/6-31G* geom=allcheck
 -----------------------------

 Structure from the checkpoint file:  "SET_328_BBB20_conf1.geo_060_180_300.chk"
 --------------------------------------------
 SET_328_BBB20_conf1.geo_060_180_300 geometry
 --------------------------------------------
 Charge =  1 Multiplicity = 1

 SCF Done:  E(RB3LYP) =  -769.714622083     A.U. after   14 cycles

 The electronic state is 1-A.
 Alpha  occ. eigenvalues --  -14.66402 -14.45319 -10.42932 -10.35599 -10.34945
 Alpha  occ. eigenvalues --  -10.31466 -10.31124 -10.27829 -10.27728 -10.27688
 Alpha  occ. eigenvalues --  -10.27383 -10.27163 -10.27055 -10.26937 -10.26918
 Alpha  occ. eigenvalues --  -10.26897 -10.26756 -10.26336 -10.26134  -1.20327
 Alpha  occ. eigenvalues --   -1.05430  -0.96169  -0.93911  -0.92684  -0.88204
 Alpha  occ. eigenvalues --   -0.86176  -0.83801  -0.83654  -0.80802  -0.79691
 Alpha  occ. eigenvalues --   -0.78693  -0.77377  -0.75536  -0.72978  -0.69411
 Alpha  occ. eigenvalues --   -0.68432  -0.68000  -0.66626  -0.65542  -0.62573
 Alpha  occ. eigenvalues --   -0.61046  -0.59973  -0.58440  -0.57432  -0.56034
 Alpha  occ. eigenvalues --   -0.55039  -0.54350  -0.53548  -0.52521  -0.52177
 Alpha  occ. eigenvalues --   -0.51788  -0.50367  -0.49935  -0.48941  -0.47878
 Alpha  occ. eigenvalues --   -0.46837  -0.46021  -0.44680  -0.43902  -0.42967
 Alpha  occ. eigenvalues --   -0.42239  -0.41922  -0.41107  -0.37899  -0.33198
 Alpha  occ. eigenvalues --   -0.32488  -0.31880  -0.29182
 Alpha virt. eigenvalues --   -0.16701  -0.10492  -0.10108  -0.09120  -0.08530
 Alpha virt. eigenvalues --   -0.07926  -0.07463  -0.06345  -0.03822  -0.02641
 Alpha virt. eigenvalues --   -0.01082   0.00201   0.02245   0.02394   0.02557

 Mulliken charges:
               1
     1  N   -0.725591
     2  H    0.433503
     3  H    0.430198
     4  C   -0.221622
     5  H    0.230038
     6  H    0.233471
     7  C   -0.301839
     8  H    0.223712
     9  H    0.178041
    10  C   -0.135192
    11  H    0.127219
    12  H    0.153170
    13  N   -0.580858
    14  C    0.202646
    15  C   -0.166877
    16  H    0.120819
    17  C   -0.146538
    18  H    0.146420
    19  C   -0.116697
    20  H    0.151474
    21  C   -0.209545
    22  H    0.145448
    23  C    0.162864
    24  C   -0.347093
    25  H    0.155448
    26  H    0.140476
    27  C   -0.347530
    28  H    0.173239
    29  H    0.163399
    30  C    0.162610
    31  C   -0.196964
    32  H    0.141987
    33  C   -0.119474
    34  H    0.147991
    35  C   -0.145186
    36  H    0.140057
    37  C   -0.179429
    38  H    0.107779
    39  C    0.235087
    40  H    0.433342
 Sum of Mulliken charges =   1.00000

 Dipole moment (field-independent basis, Debye):
    X=             15.7447    Y=             -9.5722    Z=              3.2465  Tot=             18.7100
 Quadrupole moment (field-independent basis, Debye-Ang):
   XX=            -33.8532   YY=            -68.0244   ZZ=           -102.6970
   XY=            -41.6415   XZ=              7.6405   YZ=             -6.0254

 Normal termination of Gaussian 16 at Sun Jul 18 14:38:32 2021.
 Gaussian 16:  ES64L-G16RevB.01 20-Dec-2017

 --------------------------------------------------------
 #p mp2/aug-cc-pVDZ scf=tight maxdisk=180GB geom=allcheck
 --------------------------------------------------------

 Structure from the checkpoint file:  "SET_328_BBB20_conf1.geo_060_180_300.chk"
 --------------------------------------------
 SET_328_BBB20_conf1.geo_060_180_300 geometry
 --------------------------------------------
 Charge =  1 Multiplicity = 1

                         Standard orientation:
 ---------------------------------------------------------------------
 Center     Atomic      Atomic             Coordinates (Angstroms)
 Number     Number       Type             X           Y           Z
 ---------------------------------------------------------------------
      1          7           0        3.856101   -2.683801    0.801563
      2          1           0        3.156007   -3.266180    0.308431
      3          1           0        3.615024   -2.687564    1.804651
      4          6           0        3.927889   -1.280280    0.257793
      5          1           0        4.158230   -1.373981   -0.804605
      6          1           0        4.771674   -0.808122    0.759944
      7          6           0        2.640769   -0.504445    0.506359
      8          1           0        2.838348    0.533634    0.227966
      9          1           0        2.406070   -0.505312    1.575501
     10          6           0        1.441551   -1.037323   -0.285238
     11          1           0        1.236666   -2.066129    0.016668
     12          1           0        1.688443   -1.065181   -1.357544
     13          7           0        0.226951   -0.270636   -0.003497
     14          6           0        0.278692    1.133695   -0.272967
     15          6           0        0.962364    1.643841   -1.384014
     16          1           0        1.454000    0.963338   -2.069905
     17          6           0        1.009926    3.020508   -1.608884
     18          1           0        1.541618    3.405227   -2.472652
     19          6           0        0.367383    3.894411   -0.731276
     20          1           0        0.399805    4.965229   -0.903060
     21          6           0       -0.310832    3.382572    0.376297
     22          1           0       -0.802603    4.054684    1.072373
     23          6           0       -0.352929    2.008489    0.625929
     24          6           0       -1.069381    1.428024    1.810707
     25          1           0       -1.339959    2.227319    2.507321
     26          1           0       -0.403499    0.738317    2.340217
     27          6           0       -2.347011    0.688762    1.400333
     28          1           0       -3.023288    1.415125    0.931774
     29          1           0       -2.863329    0.349028    2.306070
     30          6           0       -2.209065   -0.505159    0.468484
     31          6           0       -3.383099   -1.240962    0.251714
     32          1           0       -4.286607   -0.910786    0.758727
     33          6           0       -3.430147   -2.370845   -0.559789
     34          1           0       -4.359468   -2.914053   -0.689450
     35          6           0       -2.262654   -2.786808   -1.197171
     36          1           0       -2.264329   -3.657084   -1.846628
     37          6           0       -1.084254   -2.068837   -1.013279
     38          1           0       -0.193583   -2.383838   -1.542958
     39          6           0       -1.025627   -0.933855   -0.180181
     40          1           0        4.767966   -3.163328    0.701796
 ---------------------------------------------------------------------

 SCF Done:  E(RHF) =  -764.745910037     A.U. after   16 cycles
