 Gaussian 16, Revision B.01,

 -----------------------------------------------------------
 #p b3lyp/6-31G(d) opt freq scrf=(iefpcm,read,solvent=water)
 -----------------------------------------------------------

 --------------------------------------------
 SET_328_BBB30_conf1.geo_285_180_195 geometry
 --------------------------------------------
 Symbolic Z-matrix:
 Charge =  1 Multiplicity = 1

 SCF Done:  E(RB3LYP) =  -445.298726265     A.U. after   12 cycles
 SCF Done:  E(RB3LYP) =  -445.322897135     A.U. after   11 cycles
 SCF Done:  E(RB3LYP) =  -445.329192118     A.U. after   11 cycles
 SCF Done:  E(RB3LYP) =  -445.329823943     A.U. after   10 cycles
 SCF Done:  E(RB3LYP) =  -445.330096674     A.U. after    9 cycles
 SCF Done:  E(RB3LYP) =  -445.330186650     A.U. after    9 cycles
 SCF Done:  E(RB3LYP) =  -445.330271180     A.U. after    9 cycles
 SCF Done:  E(RB3LYP) =  -445.330349907     A.U. after    9 cycles
 SCF Done:  E(RB3LYP) =  -445.330249400     A.U. after    9 cycles
 SCF Done:  E(RB3LYP) =  -445.330089611     A.U. after   10 cycles
 SCF Done:  E(RB3LYP) =  -445.330357008     A.U. after    8 cycles
 SCF Done:  E(RB3LYP) =  -445.330372902     A.U. after    7 cycles
 SCF Done:  E(RB3LYP) =  -445.330372773     A.U. after    7 cycles
 SCF Done:  E(RB3LYP) =  -445.330379845     A.U. after    7 cycles
 SCF Done:  E(RB3LYP) =  -445.330378212     A.U. after    7 cycles
 SCF Done:  E(RB3LYP) =  -445.330380970     A.U. after    7 cycles
 Optimization completed.
    -- Stationary point found.
 Normal termination of Gaussian 16 at Sun Jul 18 14:29:34 2021.

 --------------------------------------------------------------------
 #P Geom=AllCheck Guess=TCheck SCRF=Check GenChk RB3LYP/6-31G(d) Freq
 --------------------------------------------------------------------

 Structure from the checkpoint file:  "SET_328_BBB30_conf1.geo_285_180_195.chk"
 --------------------------------------------
 SET_328_BBB30_conf1.geo_285_180_195 geometry
 --------------------------------------------
 Charge =  1 Multiplicity = 1

 SCF Done:  E(RB3LYP) =  -445.330380970     A.U. after    1 cycles

  Exact polarizability: 174.402   5.501 151.482 -22.407  12.892  95.894
 Approx polarizability: 182.276   6.534 173.935 -26.847  16.663 106.513

                      1                      2                      3
                      A                      A                      A
 Frequencies --     50.6892                85.9926                96.6785
 Red. masses --      3.1197                 3.4335                 3.4756
 Frc consts  --      0.0047                 0.0150                 0.0191
 IR Inten    --      0.5249                 1.0338                 1.0085

                      4                      5                      6
                      A                      A                      A
 Frequencies --    140.6761               221.2319               240.5561
 Red. masses --      1.7926                 1.0536                 3.6439
 Frc consts  --      0.0209                 0.0304                 0.1242
 IR Inten    --      9.1779                 0.1815                 2.9733

                      7                      8                      9
                      A                      A                      A
 Frequencies --    255.3934               286.0211               343.6111
 Red. masses --      1.7527                 2.9855                 1.7985
 Frc consts  --      0.0674                 0.1439                 0.1251
 IR Inten    --      6.0840                10.3621                 0.5703

                     10                     11                     12
                      A                      A                      A
 Frequencies --    370.9019               418.6169               434.2832
 Red. masses --      2.1227                 2.9527                 2.4710
 Frc consts  --      0.1721                 0.3049                 0.2746
 IR Inten    --      0.9515                 0.0424                 3.0202

                     13                     14                     15
                      A                      A                      A
 Frequencies --    450.0330               534.6926               598.8079
 Red. masses --      2.3049                 2.9240                 4.8718
 Frc consts  --      0.2750                 0.4925                 1.0292
 IR Inten    --      9.0100                 6.1491                 3.1277

                     16                     17                     18
                      A                      A                      A
 Frequencies --    634.3301               716.3330               763.5496
 Red. masses --      6.3068                 2.0008                 1.7221
 Frc consts  --      1.4952                 0.6049                 0.5916
 IR Inten    --      0.1651                33.6489                44.8797

                     19                     20                     21
                      A                      A                      A
 Frequencies --    810.0399               835.4109               863.8241
 Red. masses --      3.2149                 1.9242                 1.5318
 Frc consts  --      1.2429                 0.7912                 0.6734
 IR Inten    --      7.0068                22.3370                 9.9087

                     22                     23                     24
                      A                      A                      A
 Frequencies --    866.6495               900.8816               929.1021
 Red. masses --      1.2511                 1.8077                 1.6129
 Frc consts  --      0.5536                 0.8644                 0.8203
 IR Inten    --      0.0533                 4.8459                 7.1601

                     25                     26                     27
                      A                      A                      A
 Frequencies --    940.8366               980.0505              1007.6409
 Red. masses --      1.5312                 1.3549                 1.2584
 Frc consts  --      0.7986                 0.7667                 0.7528
 IR Inten    --      1.9995                 0.0151                 0.1722

                     28                     29                     30
                      A                      A                      A
 Frequencies --   1017.0439              1025.2752              1054.0569
 Red. masses --      6.2037                 2.4993                 2.0763
 Frc consts  --      3.7808                 1.5480                 1.3591
 IR Inten    --      0.5811                 4.3833                35.0928

                     31                     32                     33
                      A                      A                      A
 Frequencies --   1058.7008              1089.1435              1100.5636
 Red. masses --      2.1065                 1.7516                 1.5532
 Frc consts  --      1.3911                 1.2242                 1.1084
 IR Inten    --     12.1893                13.8214                 6.6474

                     34                     35                     36
                      A                      A                      A
 Frequencies --   1136.5096              1177.6246              1189.3919
 Red. masses --      1.5099                 1.5220                 1.0953
 Frc consts  --      1.1491                 1.2436                 0.9130
 IR Inten    --     16.9392                 5.7662                 0.0767

                     37                     38                     39
                      A                      A                      A
 Frequencies --   1205.4483              1219.0790              1236.6183
 Red. masses --      1.1320                 1.6374                 2.8670
 Frc consts  --      0.9692                 1.4337                 2.5831
 IR Inten    --      0.2643                29.4461                 0.1956

                     40                     41                     42
                      A                      A                      A
 Frequencies --   1278.8008              1354.6080              1360.3714
 Red. masses --      1.5144                 1.2876                 4.3633
 Frc consts  --      1.4591                 1.3921                 4.7575
 IR Inten    --      1.6503                 2.6340                 0.5320

                     43                     44                     45
                      A                      A                      A
 Frequencies --   1364.3069              1374.0936              1406.7698
 Red. masses --      1.3073                 1.2820                 1.3710
 Frc consts  --      1.4336                 1.4262                 1.5986
 IR Inten    --      1.7380                 5.6893                 3.0080

                     46                     47                     48
                      A                      A                      A
 Frequencies --   1437.5822              1443.4267              1468.5627
 Red. masses --      1.1729                 1.2378                 1.1694
 Frc consts  --      1.4282                 1.5195                 1.4859
 IR Inten    --     21.8352                58.1202                 8.1583

                     49                     50                     51
                      A                      A                      A
 Frequencies --   1498.4380              1505.1796              1510.6113
 Red. masses --      1.9957                 1.0923                 1.0797
 Frc consts  --      2.6402                 1.4580                 1.4516
 IR Inten    --     10.8846                18.5086                 9.7216

                     52                     53                     54
                      A                      A                      A
 Frequencies --   1514.2799              1520.3294              1537.2157
 Red. masses --      1.0562                 1.0692                 1.0478
 Frc consts  --      1.4270                 1.4560                 1.4588
 IR Inten    --     15.1894                 7.9344                 8.3844

                     55                     56                     57
                      A                      A                      A
 Frequencies --   1540.4659              1543.9043              1624.0451
 Red. masses --      1.1820                 2.2323                 1.0736
 Frc consts  --      1.6527                 3.1350                 1.6684
 IR Inten    --     74.0439                16.2870               117.7002

                     58                     59                     60
                      A                      A                      A
 Frequencies --   1643.8183              1662.3468              3072.5170
 Red. masses --      5.3903                 5.7125                 1.0610
 Frc consts  --      8.5817                 9.3007                 5.9016
 IR Inten    --      1.9205                 4.4477                41.3463

                     61                     62                     63
                      A                      A                      A
 Frequencies --   3083.2283              3113.2152              3124.4649
 Red. masses --      1.0379                 1.0913                 1.0322
 Frc consts  --      5.8132                 6.2315                 5.9369
 IR Inten    --     12.9394                 0.7023                11.7627

                     64                     65                     66
                      A                      A                      A
 Frequencies --   3128.5849              3156.3127              3164.7290
 Red. masses --      1.0952                 1.1010                 1.1023
 Frc consts  --      6.3158                 6.4622                 6.5048
 IR Inten    --     39.8805                39.0935                21.2786

                     67                     68                     69
                      A                      A                      A
 Frequencies --   3195.9195              3199.9424              3208.8878
 Red. masses --      1.0865                 1.0870                 1.0905
 Frc consts  --      6.5383                 6.5581                 6.6160
 IR Inten    --     12.0874                 5.4004                17.5588

                     70                     71                     72
                      A                      A                      A
 Frequencies --   3214.5929              3215.4241              3227.5037
 Red. masses --      1.1091                 1.0942                 1.0978
 Frc consts  --      6.7525                 6.6655                 6.7373
 IR Inten    --      7.6719                71.8865                29.4956

                     73                     74                     75
                      A                      A                      A
 Frequencies --   3233.1561              3369.7261              3423.5145
 Red. masses --      1.1076                 1.0601                 1.0907
 Frc consts  --      6.8214                 7.0922                 7.5319
 IR Inten    --      8.6966               130.9575               176.0057

 - Thermochemistry -
 -------------------
 Temperature   298.150 Kelvin.  Pressure   1.00000 Atm.
 Atom     1 has atomic number  6 and mass  12.00000

 Molecular mass:   150.12827 amu.
 Principal axes and moments of inertia in atomic units:
                           1         2         3
     Eigenvalues --   640.472713551.228173764.35755
           X            1.00000   0.00164   0.00077
           Y           -0.00164   1.00000  -0.00191
           Z           -0.00077   0.00191   1.00000
 This molecule is an asymmetric top.
 Rotational symmetry number  1.
 Warning -- assumption of classical behavior for rotation
           may cause significant error
 Rotational temperatures (Kelvin)      0.13523     0.02439     0.02301
 Rotational constants (GHZ):           2.81783     0.50820     0.47943
 Zero-point vibrational energy     652007.6 (Joules/Mol)
                                  155.83357 (Kcal/Mol)
 Warning -- explicit consideration of  15 degrees of freedom as
           vibrations may cause significant error
 Vibrational temperatures:     72.93   123.72   139.10   202.40   318.30
          (Kelvin)            346.11   367.45   411.52   494.38   533.65
                              602.30   624.84   647.50   769.30   861.55
                              912.66  1030.64  1098.58  1165.47  1201.97
                             1242.85  1246.92  1296.17  1336.77  1353.65
                             1410.07  1449.77  1463.30  1475.14  1516.55
                             1523.23  1567.03  1583.47  1635.18  1694.34
                             1711.27  1734.37  1753.98  1779.22  1839.91
                             1948.98  1957.27  1962.93  1977.01  2024.03
                             2068.36  2076.77  2112.93  2155.92  2165.62
                             2173.43  2178.71  2187.41  2211.71  2216.39
                             2221.33  2336.64  2365.09  2391.75  4420.67
                             4436.08  4479.22  4495.41  4501.34  4541.23
                             4553.34  4598.22  4604.00  4616.87  4625.08
                             4626.28  4643.66  4651.79  4848.28  4925.67

 Zero-point correction=                           0.248337 (Hartree/Particle)
 Thermal correction to Energy=                    0.259238
 Thermal correction to Enthalpy=                  0.260182
 Thermal correction to Gibbs Free Energy=         0.211592
 Sum of electronic and zero-point Energies=           -445.082044
 Sum of electronic and thermal Energies=              -445.071143
 Sum of electronic and thermal Enthalpies=            -445.070199
 Sum of electronic and thermal Free Energies=         -445.118789

                     E (Thermal)             CV                S
                      KCal/Mol        Cal/Mol-Kelvin    Cal/Mol-Kelvin
 Total                  162.674             42.168            102.266
 Electronic               0.000              0.000              0.000
 Translational            0.889              2.981             40.929
 Rotational               0.889              2.981             30.527
 Vibrational            160.897             36.206             30.810
 Vibration     1          0.595              1.977              4.790
 Vibration     2          0.601              1.959              3.749
 Vibration     3          0.603              1.952              3.520
 Vibration     4          0.615              1.913              2.795
 Vibration     5          0.648              1.809              1.949
 Vibration     6          0.658              1.778              1.799
 Vibration     7          0.666              1.754              1.693
 Vibration     8          0.684              1.700              1.497
 Vibration     9          0.722              1.588              1.195
 Vibration    10          0.743              1.532              1.076
 Vibration    11          0.781              1.430              0.897
 Vibration    12          0.795              1.396              0.845
 Vibration    13          0.809              1.361              0.796
 Vibration    14          0.890              1.173              0.577
 Vibration    15          0.957              1.034              0.452

 Optimization completed.
    -- Stationary point found.
 Normal termination of Gaussian 16 at Sun Jul 18 14:34:05 2021.

 ----------------------------------------------------------------------
 #p b3lyp/6-31G(d) scrf=(iefpcm,read,solvent=water) geom=allcheck guess
 =read
 ----------------------------------------------------------------------

 Structure from the checkpoint file:  "SET_328_BBB30_conf1.geo_285_180_195.chk"
 --------------------------------------------
 SET_328_BBB30_conf1.geo_285_180_195 geometry
 --------------------------------------------
 Charge =  1 Multiplicity = 1

 SCF Done:  E(RB3LYP) =  -445.330380970     A.U. after    1 cycles
 Normal termination of Gaussian 16 at Sun Jul 18 14:34:11 2021.

 -----------------------------
 #p B3LYP/6-31G* geom=allcheck
 -----------------------------

 Structure from the checkpoint file:  "SET_328_BBB30_conf1.geo_285_180_195.chk"
 --------------------------------------------
 SET_328_BBB30_conf1.geo_285_180_195 geometry
 --------------------------------------------
 Charge =  1 Multiplicity = 1

 SCF Done:  E(RB3LYP) =  -445.225930217     A.U. after   13 cycles

 The electronic state is 1-A.
 Alpha  occ. eigenvalues --  -14.64066 -10.41669 -10.41494 -10.34882 -10.34068
 Alpha  occ. eigenvalues --  -10.31709 -10.30167 -10.30024 -10.29491 -10.29395
 Alpha  occ. eigenvalues --  -10.29227  -1.18903  -0.98241  -0.95150  -0.89889
 Alpha  occ. eigenvalues --   -0.88385  -0.85151  -0.82651  -0.79246  -0.76545
 Alpha  occ. eigenvalues --   -0.71520  -0.70397  -0.67975  -0.66847  -0.62578
 Alpha  occ. eigenvalues --   -0.61693  -0.59548  -0.58909  -0.57700  -0.56547
 Alpha  occ. eigenvalues --   -0.55151  -0.53985  -0.52614  -0.52278  -0.52066
 Alpha  occ. eigenvalues --   -0.51012  -0.46582  -0.45370  -0.44812  -0.35681
 Alpha  occ. eigenvalues --   -0.35582
 Alpha virt. eigenvalues --   -0.14215  -0.11617  -0.10921  -0.09369  -0.05977
 Alpha virt. eigenvalues --   -0.05587  -0.04140  -0.02453  -0.01981  -0.00691
 Alpha virt. eigenvalues --   -0.00253   0.00600   0.01603   0.01794   0.03932

 Mulliken charges:
               1
     1  C   -0.356526
     2  H    0.235542
     3  H    0.239908
     4  H    0.231020
     5  N   -0.601347
     6  H    0.410541
     7  C   -0.019877
     8  C   -0.477695
     9  H    0.184812
    10  H    0.231350
    11  H    0.173069
    12  H    0.206696
    13  C   -0.387549
    14  H    0.168524
    15  H    0.172744
    16  C    0.167211
    17  C   -0.182777
    18  H    0.125304
    19  C   -0.124129
    20  H    0.161319
    21  C   -0.122147
    22  H    0.165776
    23  C   -0.124197
    24  H    0.162930
    25  C   -0.185981
    26  H    0.137404
    27  H    0.408074
 Sum of Mulliken charges =   1.00000

 Dipole moment (field-independent basis, Debye):
    X=            -10.7193    Y=             -0.6274    Z=              0.9200  Tot=             10.7770
 Quadrupole moment (field-independent basis, Debye-Ang):
   XX=            -12.5607   YY=            -57.0420   ZZ=            -62.3889
   XY=              3.5285   XZ=             -6.1891   YZ=              0.7822

 Normal termination of Gaussian 16 at Sun Jul 18 14:34:32 2021.
 Gaussian 16:  ES64L-G16RevB.01 20-Dec-2017

 --------------------------------------------------------
 #p mp2/aug-cc-pVDZ scf=tight maxdisk=180GB geom=allcheck
 --------------------------------------------------------

 Structure from the checkpoint file:  "SET_328_BBB30_conf1.geo_285_180_195.chk"
 --------------------------------------------
 SET_328_BBB30_conf1.geo_285_180_195 geometry
 --------------------------------------------
 Charge =  1 Multiplicity = 1

                         Standard orientation:
 ---------------------------------------------------------------------
 Center     Atomic      Atomic             Coordinates (Angstroms)
 Number     Number       Type             X           Y           Z
 ---------------------------------------------------------------------
      1          6           0       -4.068363   -0.439053   -0.453037
      2          1           0       -3.830431   -1.290886   -1.087902
      3          1           0       -4.195397    0.458176   -1.052605
      4          1           0       -4.971563   -0.636733    0.120878
      5          7           0       -2.942632   -0.233378    0.508682
      6          1           0       -2.908720   -1.046273    1.142283
      7          6           0       -1.570960   -0.041451   -0.115088
      8          6           0       -1.564885    1.211286   -0.983391
      9          1           0       -2.266325    1.136184   -1.816482
     10          1           0       -0.566162    1.350994   -1.402785
     11          1           0       -1.812263    2.099973   -0.394116
     12          1           0       -1.419073   -0.932349   -0.728385
     13          6           0       -0.528072   -0.009329    1.021573
     14          1           0       -0.703435   -0.862274    1.686529
     15          1           0       -0.674015    0.899721    1.614254
     16          6           0        0.897064   -0.059486    0.510871
     17          6           0        1.443816   -1.259846    0.034023
     18          1           0        0.843719   -2.164863    0.043924
     19          6           0        2.753977   -1.305985   -0.444031
     20          1           0        3.162316   -2.243814   -0.806846
     21          6           0        3.539923   -0.150885   -0.449490
     22          1           0        4.559446   -0.186932   -0.818613
     23          6           0        3.007863    1.047678    0.027824
     24          1           0        3.612410    1.949040    0.032596
     25          6           0        1.695932    1.090376    0.503918
     26          1           0        1.286177    2.023054    0.879121
     27          1           0       -3.156029    0.580796    1.108334
 ---------------------------------------------------------------------

 SCF Done:  E(RHF) =  -442.292224618     A.U. after   15 cycles
