 Gaussian 16, Revision B.01,

 -----------------------------------------------------------
 #p b3lyp/6-31G(d) opt freq scrf=(iefpcm,read,solvent=water)
 -----------------------------------------------------------

 ---------------------------------------------
 SET_328_BBB321_conf1.geo_165_150_225 geometry
 ---------------------------------------------
 Symbolic Z-matrix:
 Charge =  1 Multiplicity = 1

 SCF Done:  E(RB3LYP) =  -1212.58751555     A.U. after   13 cycles
 SCF Done:  E(RB3LYP) =  -1212.69795676     A.U. after   11 cycles
 SCF Done:  E(RB3LYP) =  -1212.78202641     A.U. after   13 cycles
 SCF Done:  E(RB3LYP) =  -1212.80779607     A.U. after   12 cycles
 SCF Done:  E(RB3LYP) =  -1212.81650037     A.U. after   12 cycles
 SCF Done:  E(RB3LYP) =  -1212.81907923     A.U. after   12 cycles
 SCF Done:  E(RB3LYP) =  -1212.82109799     A.U. after   11 cycles
 SCF Done:  E(RB3LYP) =  -1212.82173854     A.U. after   13 cycles
 SCF Done:  E(RB3LYP) =  -1212.82200988     A.U. after   11 cycles
 SCF Done:  E(RB3LYP) =  -1212.82219040     A.U. after   10 cycles
 SCF Done:  E(RB3LYP) =  -1212.82225440     A.U. after    8 cycles
 SCF Done:  E(RB3LYP) =  -1212.82226099     A.U. after    8 cycles
 SCF Done:  E(RB3LYP) =  -1212.82227112     A.U. after    8 cycles
 SCF Done:  E(RB3LYP) =  -1212.82227346     A.U. after    8 cycles
 SCF Done:  E(RB3LYP) =  -1212.82227520     A.U. after    7 cycles
 SCF Done:  E(RB3LYP) =  -1212.82227563     A.U. after    7 cycles
 Optimization completed.
    -- Stationary point found.
 Normal termination of Gaussian 16 at Sun Jul 18 15:46:17 2021.

 --------------------------------------------------------------------
 #P Geom=AllCheck Guess=TCheck SCRF=Check GenChk RB3LYP/6-31G(d) Freq
 --------------------------------------------------------------------

 Structure from the checkpoint file:  "SET_328_BBB321_conf1.geo_165_150_225.chk"
 ---------------------------------------------
 SET_328_BBB321_conf1.geo_165_150_225 geometry
 ---------------------------------------------
 Charge =  1 Multiplicity = 1

 SCF Done:  E(RB3LYP) =  -1212.82227563     A.U. after    1 cycles

  Exact polarizability: 376.593   9.038 293.547   1.680  -4.724  93.882
 Approx polarizability: 384.657  18.559 353.219   1.911  -6.553 112.127

                      1                      2                      3
                      A                      A                      A
 Frequencies --     19.1887                39.0881                54.5136
 Red. masses --      4.8336                 5.5873                 5.2952
 Frc consts  --      0.0010                 0.0050                 0.0093
 IR Inten    --      6.8118                 7.6470                 8.2697

                      4                      5                      6
                      A                      A                      A
 Frequencies --     64.2849                71.4307                82.2639
 Red. masses --      1.6412                 2.9390                 5.7742
 Frc consts  --      0.0040                 0.0088                 0.0230
 IR Inten    --      3.1171                 0.3259                10.0480

                      7                      8                      9
                      A                      A                      A
 Frequencies --     87.1984               109.0400               127.6556
 Red. masses --      2.5191                 6.5509                 4.8175
 Frc consts  --      0.0113                 0.0459                 0.0463
 IR Inten    --      2.9427                 0.3078                 4.5041

                     10                     11                     12
                      A                      A                      A
 Frequencies --    175.7952               199.8806               242.5263
 Red. masses --      1.1729                 6.2637                 5.3159
 Frc consts  --      0.0214                 0.1474                 0.1842
 IR Inten    --    305.8851                21.1624                 7.9262

                     13                     14                     15
                      A                      A                      A
 Frequencies --    254.9821               259.9046               275.7482
 Red. masses --      4.0750                 5.0236                 4.1880
 Frc consts  --      0.1561                 0.1999                 0.1876
 IR Inten    --      0.1131                 7.3707                 5.3388

                     16                     17                     18
                      A                      A                      A
 Frequencies --    326.4413               336.0666               353.0391
 Red. masses --      2.5321                 1.9197                 5.1695
 Frc consts  --      0.1590                 0.1277                 0.3796
 IR Inten    --    132.8517               241.1372                 1.8043

                     19                     20                     21
                      A                      A                      A
 Frequencies --    355.4240               385.1659               387.8912
 Red. masses --      4.9826                 1.5738                 2.0949
 Frc consts  --      0.3708                 0.1376                 0.1857
 IR Inten    --      1.3806               164.3916                58.1316

                     22                     23                     24
                      A                      A                      A
 Frequencies --    454.5006               491.6137               505.5202
 Red. masses --      3.3137                 4.1962                 1.4741
 Frc consts  --      0.4033                 0.5975                 0.2219
 IR Inten    --      2.0751                 4.3088                98.7979

                     25                     26                     27
                      A                      A                      A
 Frequencies --    543.0449               549.5278               561.2274
 Red. masses --      3.6765                 2.7015                 2.5297
 Frc consts  --      0.6388                 0.4807                 0.4695
 IR Inten    --     44.8549                 0.8686                78.0708

                     28                     29                     30
                      A                      A                      A
 Frequencies --    578.4823               605.1012               615.9624
 Red. masses --      2.0942                 3.4963                 8.5206
 Frc consts  --      0.4129                 0.7543                 1.9047
 IR Inten    --     28.3524                 9.4021                 1.1389

                     31                     32                     33
                      A                      A                      A
 Frequencies --    634.5591               645.9923               666.0459
 Red. masses --      1.4974                 1.1673                 6.2309
 Frc consts  --      0.3553                 0.2870                 1.6286
 IR Inten    --     47.7545                 4.3455                 6.0151

                     34                     35                     36
                      A                      A                      A
 Frequencies --    696.0303               699.7145               707.4144
 Red. masses --      4.0000                 2.1348                 3.1138
 Frc consts  --      1.1417                 0.6158                 0.9181
 IR Inten    --      0.1503                 4.1051                 3.1869

                     37                     38                     39
                      A                      A                      A
 Frequencies --    712.7418               744.0834               820.2669
 Red. masses --      5.9193                 1.8001                 1.5401
 Frc consts  --      1.7717                 0.5872                 0.6105
 IR Inten    --      8.1565                90.5765                25.8981

                     40                     41                     42
                      A                      A                      A
 Frequencies --    825.6391               863.5260               878.9696
 Red. masses --      5.5340                 5.6864                 2.6636
 Frc consts  --      2.2227                 2.4983                 1.2125
 IR Inten    --     37.4964                14.6167                38.7180

                     43                     44                     45
                      A                      A                      A
 Frequencies --    887.4837               922.5498               951.9883
 Red. masses --      2.3050                 1.3856                 5.3989
 Frc consts  --      1.0697                 0.6948                 2.8828
 IR Inten    --     22.4829                 0.2928                 3.7823

                     46                     47                     48
                      A                      A                      A
 Frequencies --    996.6491              1001.1473              1008.2755
 Red. masses --      1.2723                 3.5126                 4.3505
 Frc consts  --      0.7446                 2.0743                 2.6059
 IR Inten    --      2.0298                14.1688                24.5493

                     49                     50                     51
                      A                      A                      A
 Frequencies --   1014.6248              1040.5167              1059.4694
 Red. masses --      5.0932                 1.9626                 1.7070
 Frc consts  --      3.0892                 1.2519                 1.1289
 IR Inten    --      1.5796                36.9312                15.1254

                     52                     53                     54
                      A                      A                      A
 Frequencies --   1088.7501              1100.8155              1117.4891
 Red. masses --      1.4284                 1.7674                 1.5413
 Frc consts  --      0.9976                 1.2619                 1.1340
 IR Inten    --      4.2079                14.4259                38.8375

                     55                     56                     57
                      A                      A                      A
 Frequencies --   1135.7690              1192.5679              1228.7854
 Red. masses --      1.6579                 1.1103                 1.7318
 Frc consts  --      1.2601                 0.9304                 1.5406
 IR Inten    --      8.1285                 2.3201                19.7118

                     58                     59                     60
                      A                      A                      A
 Frequencies --   1252.6988              1272.5942              1299.3575
 Red. masses --      2.8058                 3.4695                 2.2031
 Frc consts  --      2.5942                 3.3105                 2.1915
 IR Inten    --    255.1615                38.4312               146.5392

                     61                     62                     63
                      A                      A                      A
 Frequencies --   1332.0004              1353.4720              1370.3051
 Red. masses --      2.4352                 2.3415                 4.9225
 Frc consts  --      2.5456                 2.5272                 5.4460
 IR Inten    --      8.1316               217.9192               172.7505

                     64                     65                     66
                      A                      A                      A
 Frequencies --   1417.4029              1461.4533              1487.5544
 Red. masses --      1.3185                 2.8453                 1.1076
 Frc consts  --      1.5607                 3.5805                 1.4441
 IR Inten    --     67.3977                35.0852                30.4330

                     67                     68                     69
                      A                      A                      A
 Frequencies --   1506.1906              1507.6150              1517.8367
 Red. masses --      1.6984                 1.1096                 2.8261
 Frc consts  --      2.2702                 1.4859                 3.8361
 IR Inten    --     58.7440                30.4140               318.6881

                     70                     71                     72
                      A                      A                      A
 Frequencies --   1542.9121              1567.4407              1591.1111
 Red. masses --      2.0492                 3.8718                 3.0231
 Frc consts  --      2.8742                 5.6046                 4.5093
 IR Inten    --    444.0133               229.7469               231.2482

                     73                     74                     75
                      A                      A                      A
 Frequencies --   1601.3520              1621.0409              1641.2045
 Red. masses --      2.5472                 1.5028                 1.6404
 Frc consts  --      3.8485                 2.3268                 2.6033
 IR Inten    --    294.3008               382.8842               974.0667

                     76                     77                     78
                      A                      A                      A
 Frequencies --   1648.4116              1664.2431              1715.7039
 Red. masses --      3.9068                 5.5063                 3.4451
 Frc consts  --      6.2547                 8.9856                 5.9750
 IR Inten    --     13.9604               253.6070               880.5969

                     79                     80                     81
                      A                      A                      A
 Frequencies --   1746.8651              3080.8723              3147.7014
 Red. masses --      6.3656                 1.0394                 1.0992
 Frc consts  --     11.4448                 5.8128                 6.4168
 IR Inten    --    399.9324                 5.1864                12.3311

                     82                     83                     84
                      A                      A                      A
 Frequencies --   3189.7550              3209.7827              3220.7881
 Red. masses --      1.1033                 1.0893                 1.0899
 Frc consts  --      6.6137                 6.6125                 6.6611
 IR Inten    --     18.1203                35.1919                17.7520

                     85                     86                     87
                      A                      A                      A
 Frequencies --   3240.1623              3289.6778              3303.7255
 Red. masses --      1.0926                 1.0916                 1.0946
 Frc consts  --      6.7582                 6.9603                 7.0389
 IR Inten    --     10.4853                 5.6478                 6.9815

                     88                     89                     90
                      A                      A                      A
 Frequencies --   3470.9152              3518.3900              3551.3704
 Red. masses --      1.0561                 1.0801                 1.0481
 Frc consts  --      7.4963                 7.8779                 7.7885
 IR Inten    --    474.7707               229.7515               375.6367

                     91                     92                     93
                      A                      A                      A
 Frequencies --   3560.8023              3639.0603              3662.9455
 Red. masses --      1.0782                 1.0991                 1.1086
 Frc consts  --      8.0549                 8.5755                 8.7633
 IR Inten    --    102.0850               399.1630               259.3252

 - Thermochemistry -
 -------------------
 Temperature   298.150 Kelvin.  Pressure   1.00000 Atm.
 Atom     1 has atomic number  6 and mass  12.00000

 Molecular mass:   276.09191 amu.
 Principal axes and moments of inertia in atomic units:
                           1         2         3
     Eigenvalues --  1996.05222********************
           X            0.99989  -0.01509   0.00038
           Y            0.01509   0.99988  -0.00380
           Z           -0.00032   0.00381   0.99999
 This molecule is an asymmetric top.
 Rotational symmetry number  1.
 Warning -- assumption of classical behavior for rotation
           may cause significant error
 Rotational temperatures (Kelvin)      0.04339     0.00623     0.00548
 Rotational constants (GHZ):           0.90416     0.12982     0.11417
 Zero-point vibrational energy     681626.7 (Joules/Mol)
                                  162.91270 (Kcal/Mol)
 Warning -- explicit consideration of  30 degrees of freedom as
           vibrations may cause significant error
 Vibrational temperatures:     27.61    56.24    78.43    92.49   102.77
          (Kelvin)            118.36   125.46   156.88   183.67   252.93
                              287.58   348.94   366.86   373.94   396.74
                              469.68   483.52   507.94   511.38   554.17
                              558.09   653.93   707.32   727.33   781.32
                              790.65   807.48   832.31   870.61   886.23
                              912.99   929.44   958.29  1001.43  1006.73
                             1017.81  1025.48  1070.57  1180.18  1187.91
                             1242.42  1264.64  1276.89  1327.34  1369.70
                             1433.96  1440.43  1450.68  1459.82  1497.07
                             1524.34  1566.47  1583.83  1607.82  1634.12
                             1715.84  1767.95  1802.35  1830.98  1869.49
                             1916.45  1947.34  1971.56  2039.33  2102.71
                             2140.26  2167.07  2169.12  2183.83  2219.91
                             2255.20  2289.25  2303.99  2332.32  2361.33
                             2371.70  2394.47  2468.52  2513.35  4432.69
                             4528.84  4589.35  4618.16  4634.00  4661.87
                             4733.11  4753.32  4993.87  5062.18  5109.63
                             5123.20  5235.80  5270.16

 Zero-point correction=                           0.259618 (Hartree/Particle)
 Thermal correction to Energy=                    0.278322
 Thermal correction to Enthalpy=                  0.279267
 Thermal correction to Gibbs Free Energy=         0.210829
 Sum of electronic and zero-point Energies=          -1212.562658
 Sum of electronic and thermal Energies=             -1212.543953
 Sum of electronic and thermal Enthalpies=           -1212.543009
 Sum of electronic and thermal Free Energies=        -1212.611446

                     E (Thermal)             CV                S
                      KCal/Mol        Cal/Mol-Kelvin    Cal/Mol-Kelvin
 Total                  174.650             70.046            144.039
 Electronic               0.000              0.000              0.000
 Translational            0.889              2.981             42.745
 Rotational               0.889              2.981             34.438
 Vibrational            172.873             64.084             66.855
 Vibration     1          0.593              1.986              6.716
 Vibration     2          0.594              1.981              5.305
 Vibration     3          0.596              1.976              4.647
 Vibration     4          0.597              1.971              4.321
 Vibration     5          0.598              1.968              4.114
 Vibration     6          0.600              1.961              3.836
 Vibration     7          0.601              1.958              3.722
 Vibration     8          0.606              1.942              3.286
 Vibration     9          0.611              1.926              2.981
 Vibration    10          0.628              1.872              2.373
 Vibration    11          0.638              1.840              2.134
 Vibration    12          0.659              1.775              1.784
 Vibration    13          0.665              1.754              1.696
 Vibration    14          0.668              1.746              1.662
 Vibration    15          0.677              1.718              1.560
 Vibration    16          0.710              1.623              1.278
 Vibration    17          0.717              1.603              1.231
 Vibration    18          0.729              1.569              1.153
 Vibration    19          0.731              1.564              1.142
 Vibration    20          0.754              1.502              1.019
 Vibration    21          0.756              1.496              1.008
 Vibration    22          0.813              1.351              0.782
 Vibration    23          0.847              1.269              0.679
 Vibration    24          0.861              1.238              0.644
 Vibration    25          0.898              1.155              0.559
 Vibration    26          0.905              1.141              0.545
 Vibration    27          0.917              1.115              0.521
 Vibration    28          0.935              1.078              0.488
 Vibration    29          0.964              1.021              0.441
 Vibration    30          0.976              0.998              0.423

                           ! Non-Optimized Parameters !
 Normal termination of Gaussian 16 at Sun Jul 18 15:56:41 2021.

 ----------------------------------------------------------------------
 #p b3lyp/6-31G(d) scrf=(iefpcm,read,solvent=water) geom=allcheck guess
 =read
 ----------------------------------------------------------------------

 Structure from the checkpoint file:  "SET_328_BBB321_conf1.geo_165_150_225.chk"
 ---------------------------------------------
 SET_328_BBB321_conf1.geo_165_150_225 geometry
 ---------------------------------------------
 Charge =  1 Multiplicity = 1

 SCF Done:  E(RB3LYP) =  -1212.82227563     A.U. after    1 cycles
 Normal termination of Gaussian 16 at Sun Jul 18 15:56:52 2021.

 -----------------------------
 #p B3LYP/6-31G* geom=allcheck
 -----------------------------

 Structure from the checkpoint file:  "SET_328_BBB321_conf1.geo_165_150_225.chk"
 ---------------------------------------------
 SET_328_BBB321_conf1.geo_165_150_225 geometry
 ---------------------------------------------
 Charge =  1 Multiplicity = 1

 SCF Done:  E(RB3LYP) =  -1212.69347106     A.U. after   17 cycles
 Normal termination of Gaussian 16 at Sun Jul 18 15:57:41 2021.
 Gaussian 16:  ES64L-G16RevB.01 20-Dec-2017

 --------------------------------------------------------
 #p mp2/aug-cc-pVDZ scf=tight maxdisk=180GB geom=allcheck
 --------------------------------------------------------

 Structure from the checkpoint file:  "SET_328_BBB321_conf1.geo_165_150_225.chk"
 ---------------------------------------------
 SET_328_BBB321_conf1.geo_165_150_225 geometry
 ---------------------------------------------
 Charge =  1 Multiplicity = 1

                         Standard orientation:
 ---------------------------------------------------------------------
 Center     Atomic      Atomic             Coordinates (Angstroms)
 Number     Number       Type             X           Y           Z
 ---------------------------------------------------------------------
      1          6           0        6.431798   -1.186995    0.341988
      2          1           0        7.401953   -0.739724    0.555475
      3          1           0        6.510052   -1.777457   -0.576458
      4          1           0        6.156677   -1.865519    1.152274
      5          6           0        5.412141   -0.079265    0.162376
      6          8           0        5.742423    1.097473    0.012436
      7          7           0        4.112118   -0.512461    0.162543
      8          1           0        3.976977   -1.510562    0.296227
      9          6           0        2.930736    0.233037   -0.012604
     10          6           0        2.912128    1.626304   -0.199632
     11          6           0        1.686852    2.275132   -0.351146
     12          6           0        0.483909    1.573669   -0.323120
     13          1           0       -0.460994    2.087836   -0.446302
     14          1           0        1.675699    3.350782   -0.494723
     15          1           0        3.844064    2.169616   -0.220157
     16          6           0        1.721554   -0.472139    0.014026
     17          1           0        1.739984   -1.544730    0.169100
     18          6           0        0.495389    0.182789   -0.142671
     19          6           0       -0.765063   -0.579443   -0.123979
     20          7           0       -1.973468    0.103534   -0.055707
     21          6           0       -0.884488   -1.940466   -0.180596
     22          1           0       -0.107311   -2.684318   -0.261914
     23         16           0       -2.552204   -2.421076   -0.137631
     24          6           0       -2.981333   -0.718738   -0.053439
     25          7           0       -4.312874   -0.350973    0.022243
     26          6           0       -4.803950    0.912292    0.195118
     27          7           0       -6.125110    1.051299    0.246124
     28          1           0       -6.535406    1.968991    0.386966
     29          1           0       -6.738409    0.243926    0.197389
     30          7           0       -3.991455    1.951653    0.304909
     31          1           0       -4.377057    2.881747    0.434194
     32          1           0       -2.984244    1.809979    0.242708
     33          1           0       -5.008617   -1.091559   -0.050902
 ---------------------------------------------------------------------

 SCF Done:  E(RHF) =  -1207.15486528     A.U. after   18 cycles
 E2 =    -0.2816282420D+01 EUMP2 =    -0.12099711477051D+04

 The electronic state is 1-A.
 Alpha  occ. eigenvalues --  -92.13528 -20.60596 -15.81692 -15.80190 -15.78835
 Alpha  occ. eigenvalues --  -15.72113 -15.69004 -11.60834 -11.51502 -11.43961
 Alpha  occ. eigenvalues --  -11.41360 -11.39176 -11.38373 -11.35541 -11.33684
 Alpha  occ. eigenvalues --  -11.33166 -11.33041 -11.31960 -11.31228  -9.13693
 Alpha  occ. eigenvalues --   -6.81856  -6.81750  -6.81556  -1.55289  -1.45645
 Alpha  occ. eigenvalues --   -1.45555  -1.39637  -1.38881  -1.33854  -1.24569
 Alpha  occ. eigenvalues --   -1.20506  -1.16907  -1.11789  -1.10869  -1.06374
 Alpha  occ. eigenvalues --   -1.05315  -0.99654  -0.98835  -0.95260  -0.93792
 Alpha  occ. eigenvalues --   -0.91131  -0.89120  -0.86626  -0.85790  -0.84357
 Alpha  occ. eigenvalues --   -0.82916  -0.82037  -0.81053  -0.76740  -0.75205
 Alpha  occ. eigenvalues --   -0.72359  -0.72271  -0.70902  -0.70000  -0.69473
 Alpha  occ. eigenvalues --   -0.68277  -0.65787  -0.64343  -0.63936  -0.63212
 Alpha  occ. eigenvalues --   -0.62373  -0.61515  -0.61350  -0.59001  -0.58166
 Alpha  occ. eigenvalues --   -0.57998  -0.53252  -0.51914  -0.49523  -0.47544
 Alpha  occ. eigenvalues --   -0.40962  -0.38985
 Alpha virt. eigenvalues --   -0.09185  -0.07117  -0.05447  -0.04941  -0.04430
 Alpha virt. eigenvalues --   -0.03782  -0.03410  -0.02792  -0.02358  -0.01948
 Alpha virt. eigenvalues --   -0.01428  -0.00313  -0.00276   0.00103   0.00589

 Mulliken charges:
               1
     1  C    0.390244
     2  H   -0.062805
     3  H    0.079739
     4  H   -0.008089
     5  C    0.631615
     6  O   -0.829961
     7  N   -0.686189
     8  H   -0.042638
     9  C   -0.323102
    10  C    1.164113
    11  C   -0.137195
    12  C    0.717093
    13  H   -0.631670
    14  H   -0.520258
    15  H   -0.633207
    16  C    1.046464
    17  H   -0.762599
    18  C    1.713541
    19  C   -0.611899
    20  N   -0.682172
    21  C    0.442807
    22  H   -0.576732
    23  S    0.484176
    24  C    0.457140
    25  N   -0.705742
    26  C    1.367706
    27  N   -0.268622
    28  H    0.031893
    29  H    0.003220
    30  N   -0.175232
    31  H    0.010869
    32  H    0.120196
    33  H   -0.002703
 Sum of Mulliken charges =   1.00000

 Dipole moment (field-independent basis, Debye):
    X=            -20.2044    Y=             -0.9830    Z=              1.2630  Tot=             20.2677
 Quadrupole moment (field-independent basis, Debye-Ang):
   XX=             14.8731   YY=            -88.0768   ZZ=           -123.7351
   XY=            -40.2908   XZ=             -2.7063   YZ=              1.4305

 Normal termination of Gaussian 16 at Sun Jul 18 16:30:31 2021.
