 Gaussian 16, Revision B.01,

 -----------------------------------------------------------
 #p b3lyp/6-31G(d) opt freq scrf=(iefpcm,read,solvent=water)
 -----------------------------------------------------------

 ---------------------------------------------
 SET_328_BBB288_conf1.geo_210_090_060 geometry
 ---------------------------------------------
 Symbolic Z-matrix:
 Charge = -1 Multiplicity = 1

 SCF Done:  E(RB3LYP) =  -962.961745353     A.U. after   14 cycles
 SCF Done:  E(RB3LYP) =  -963.005994570     A.U. after   12 cycles
 SCF Done:  E(RB3LYP) =  -963.026512835     A.U. after   14 cycles
 SCF Done:  E(RB3LYP) =  -963.027204541     A.U. after   12 cycles
 SCF Done:  E(RB3LYP) =  -963.028133677     A.U. after   12 cycles
 SCF Done:  E(RB3LYP) =  -963.028965864     A.U. after   11 cycles
 SCF Done:  E(RB3LYP) =  -963.029068064     A.U. after   11 cycles
 SCF Done:  E(RB3LYP) =  -963.029210534     A.U. after   11 cycles
 SCF Done:  E(RB3LYP) =  -963.029604946     A.U. after   11 cycles
 SCF Done:  E(RB3LYP) =  -963.029771351     A.U. after   11 cycles
 SCF Done:  E(RB3LYP) =  -963.029896966     A.U. after    9 cycles
 SCF Done:  E(RB3LYP) =  -963.029904710     A.U. after    9 cycles
 SCF Done:  E(RB3LYP) =  -963.029908327     A.U. after    9 cycles
 SCF Done:  E(RB3LYP) =  -963.029918534     A.U. after    9 cycles
 SCF Done:  E(RB3LYP) =  -963.029919465     A.U. after    8 cycles
 SCF Done:  E(RB3LYP) =  -963.029919128     A.U. after    7 cycles
 Optimization completed.
    -- Stationary point found.
 Normal termination of Gaussian 16 at Sun Jul 18 14:10:17 2021.

 --------------------------------------------------------------------
 #P Geom=AllCheck Guess=TCheck SCRF=Check GenChk RB3LYP/6-31G(d) Freq
 --------------------------------------------------------------------

 Structure from the checkpoint file:  "SET_328_BBB288_conf1.geo_210_090_060.chk"
 ---------------------------------------------
 SET_328_BBB288_conf1.geo_210_090_060 geometry
 ---------------------------------------------
 Charge = -1 Multiplicity = 1

 SCF Done:  E(RB3LYP) =  -963.029919128     A.U. after    1 cycles

  Exact polarizability: 261.345 -31.258 189.721  -3.180 -11.764 154.933
 Approx polarizability: 292.853 -47.604 220.488  -9.827  -3.623 185.691

                      1                      2                      3
                      A                      A                      A
 Frequencies --     22.7039                28.5284                39.9151
 Red. masses --      9.8892                 6.2580                 8.2641
 Frc consts  --      0.0030                 0.0030                 0.0078
 IR Inten    --      6.6233                 1.1025                 1.7605

                      4                      5                      6
                      A                      A                      A
 Frequencies --     44.5378                80.7565                91.0489
 Red. masses --      5.8264                 5.4173                 5.9260
 Frc consts  --      0.0068                 0.0208                 0.0289
 IR Inten    --      5.1501                 8.4443                 0.9902

                      7                      8                      9
                      A                      A                      A
 Frequencies --    139.7421               153.8658               170.1961
 Red. masses --      8.2079                 3.8601                 1.1114
 Frc consts  --      0.0944                 0.0538                 0.0190
 IR Inten    --      3.1912                 2.2579                 0.1728

                     10                     11                     12
                      A                      A                      A
 Frequencies --    175.4906               200.6063               224.8853
 Red. masses --      4.5739                 6.0943                 3.7655
 Frc consts  --      0.0830                 0.1445                 0.1122
 IR Inten    --      2.0395                 3.4228                 8.8376

                     13                     14                     15
                      A                      A                      A
 Frequencies --    241.5317               278.7218               293.9109
 Red. masses --      5.3141                 5.1565                 3.6221
 Frc consts  --      0.1827                 0.2360                 0.1843
 IR Inten    --      8.6418                14.6498                 5.9840

                     16                     17                     18
                      A                      A                      A
 Frequencies --    301.1168               348.6812               382.7676
 Red. masses --      5.6460                 4.2007                 3.7258
 Frc consts  --      0.3016                 0.3009                 0.3216
 IR Inten    --     12.2213                 7.3883                17.7631

                     19                     20                     21
                      A                      A                      A
 Frequencies --    415.8501               431.0720               441.1965
 Red. masses --      1.3208                 2.7733                 6.6862
 Frc consts  --      0.1346                 0.3036                 0.7668
 IR Inten    --    132.9322               103.2523                23.6223

                     22                     23                     24
                      A                      A                      A
 Frequencies --    484.5851               508.5900               563.5780
 Red. masses --      3.2462                 7.0429                 5.6553
 Frc consts  --      0.4491                 1.0733                 1.0583
 IR Inten    --      8.1117                19.1796                15.3845

                     25                     26                     27
                      A                      A                      A
 Frequencies --    580.0594               615.3565               629.5723
 Red. masses --     13.6366                 5.9298                 5.1537
 Frc consts  --      2.7033                 1.3230                 1.2035
 IR Inten    --     25.1914                 5.0841                17.0407

                     28                     29                     30
                      A                      A                      A
 Frequencies --    652.7329               689.0606               757.2002
 Red. masses --      5.4863                 4.0781                 7.0548
 Frc consts  --      1.3772                 1.1408                 2.3832
 IR Inten    --      4.7743                12.5395                17.1075

                     31                     32                     33
                      A                      A                      A
 Frequencies --    764.4655               770.3932               774.8485
 Red. masses --     11.5119                 6.6126                 7.6933
 Frc consts  --      3.9638                 2.3123                 2.7214
 IR Inten    --     54.3524                43.7529                 9.6482

                     34                     35                     36
                      A                      A                      A
 Frequencies --    784.7091               849.4088               887.1672
 Red. masses --      6.9480                 3.7619                 3.6375
 Frc consts  --      2.5207                 1.5992                 1.6868
 IR Inten    --     23.4575                24.3515                21.4428

                     37                     38                     39
                      A                      A                      A
 Frequencies --    898.1308               903.7690               913.9813
 Red. masses --      2.7697                 1.4094                 2.8551
 Frc consts  --      1.3163                 0.6783                 1.4052
 IR Inten    --    100.8262                21.1988                 2.2843

                     40                     41                     42
                      A                      A                      A
 Frequencies --    967.2561               987.2305              1013.3446
 Red. masses --      2.8403                 2.2352                 2.0766
 Frc consts  --      1.5657                 1.2835                 1.2564
 IR Inten    --     71.2044                14.8703               125.3781

                     43                     44                     45
                      A                      A                      A
 Frequencies --   1035.4784              1043.5166              1069.9838
 Red. masses --      1.9590                 2.3742                 2.9916
 Frc consts  --      1.2376                 1.5232                 2.0180
 IR Inten    --    103.6497                11.0230               202.2479

                     46                     47                     48
                      A                      A                      A
 Frequencies --   1071.9359              1116.4526              1126.6512
 Red. masses --      1.7488                 3.2912                 3.5010
 Frc consts  --      1.1840                 2.4171                 2.6183
 IR Inten    --     58.3426                88.4181               265.1831

                     49                     50                     51
                      A                      A                      A
 Frequencies --   1151.8840              1195.9208              1215.7954
 Red. masses --      2.4285                 2.3716                 1.6060
 Frc consts  --      1.8985                 1.9984                 1.3987
 IR Inten    --     32.6385                67.1467               102.6878

                     52                     53                     54
                      A                      A                      A
 Frequencies --   1253.9055              1260.6916              1290.1462
 Red. masses --      1.2327                 1.8105                 2.5314
 Frc consts  --      1.1419                 1.6954                 2.4824
 IR Inten    --     34.1250                40.2196               132.5936

                     55                     56                     57
                      A                      A                      A
 Frequencies --   1320.9459              1334.5382              1338.7176
 Red. masses --      4.5946                 1.8734                 3.3878
 Frc consts  --      4.7235                 1.9658                 3.5772
 IR Inten    --    250.1985                59.5340               236.5450

                     58                     59                     60
                      A                      A                      A
 Frequencies --   1357.4062              1363.6822              1371.4146
 Red. masses --      2.4317                 1.3883                 1.3720
 Frc consts  --      2.6398                 1.5211                 1.5204
 IR Inten    --    411.1120                56.2611                46.8653

                     61                     62                     63
                      A                      A                      A
 Frequencies --   1387.7175              1404.0552              1419.5255
 Red. masses --      1.3857                 1.3490                 1.6957
 Frc consts  --      1.5722                 1.5669                 2.0131
 IR Inten    --     43.5564                 7.2186                42.6338

                     64                     65                     66
                      A                      A                      A
 Frequencies --   1428.8266              1431.9257              1450.9617
 Red. masses --      1.4711                 1.3125                 1.2372
 Frc consts  --      1.7695                 1.5856                 1.5346
 IR Inten    --     32.0413                 1.6345               117.4507

                     67                     68                     69
                      A                      A                      A
 Frequencies --   1480.4753              1488.2646              1506.0646
 Red. masses --      2.0663                 1.0468                 1.1102
 Frc consts  --      2.6684                 1.3660                 1.4836
 IR Inten    --    166.9002                 6.6932                18.4145

                     70                     71                     72
                      A                      A                      A
 Frequencies --   1513.5797              1517.4085              1594.9873
 Red. masses --      1.1600                 1.0851                11.7055
 Frc consts  --      1.5657                 1.4721                17.5451
 IR Inten    --     53.0552                 2.6883              1701.6517

                     73                     74                     75
                      A                      A                      A
 Frequencies --   1687.6709              1721.2048              2249.1152
 Red. masses --     11.6587                 6.8002                13.5658
 Frc consts  --     19.5648                11.8697                40.4315
 IR Inten    --    374.1071               519.4451              1219.0492

                     76                     77                     78
                      A                      A                      A
 Frequencies --   3021.4076              3033.3246              3049.2985
 Red. masses --      1.0707                 1.0827                 1.0366
 Frc consts  --      5.7586                 5.8694                 5.6789
 IR Inten    --     38.3355               126.3349                75.0864

                     79                     80                     81
                      A                      A                      A
 Frequencies --   3093.7487              3097.3258              3108.5477
 Red. masses --      1.0656                 1.1008                 1.0920
 Frc consts  --      6.0090                 6.2222                 6.2172
 IR Inten    --      9.5768                42.8375                63.9084

                     82                     83                     84
                      A                      A                      A
 Frequencies --   3110.1981              3130.7485              3147.9099
 Red. masses --      1.0878                 1.1018                 1.1003
 Frc consts  --      6.1999                 6.3627                 6.4237
 IR Inten    --     51.1554                44.3974                 8.4942

                     85                     86                     87
                      A                      A                      A
 Frequencies --   3164.4842              3222.6930              3655.5454
 Red. masses --      1.0889                 1.0915                 1.0654
 Frc consts  --      6.4247                 6.6791                 8.3885
 IR Inten    --     27.2354                17.2679               245.6161

 - Thermochemistry -
 -------------------
 Temperature   298.150 Kelvin.  Pressure   1.00000 Atm.
 Atom     1 has atomic number  6 and mass  12.00000

 Molecular mass:   266.08893 amu.
 Principal axes and moments of inertia in atomic units:
                           1         2         3
     Eigenvalues --  2424.497389406.734869885.68619
           X            0.99993  -0.00154   0.01141
           Y            0.00215   0.99859  -0.05297
           Z           -0.01131   0.05299   0.99853
 This molecule is an asymmetric top.
 Rotational symmetry number  1.
 Warning -- assumption of classical behavior for rotation
           may cause significant error
 Rotational temperatures (Kelvin)      0.03572     0.00921     0.00876
 Rotational constants (GHZ):           0.74438     0.19186     0.18256
 Zero-point vibrational energy     619298.6 (Joules/Mol)
                                  148.01593 (Kcal/Mol)
 Warning -- explicit consideration of  26 degrees of freedom as
           vibrations may cause significant error
 Vibrational temperatures:     32.67    41.05    57.43    64.08   116.19
          (Kelvin)            131.00   201.06   221.38   244.87   252.49
                              288.63   323.56   347.51   401.02   422.87
                              433.24   501.67   550.72   598.32   620.22
                              634.78   697.21   731.75   810.86   834.58
                              885.36   905.81   939.14   991.40  1089.44
                             1099.90  1108.42  1114.83  1129.02  1222.11
                             1276.44  1292.21  1300.32  1315.02  1391.67
                             1420.40  1457.98  1489.82  1501.39  1539.47
                             1542.28  1606.33  1621.00  1657.30  1720.66
                             1749.26  1804.09  1813.85  1856.23  1900.55
                             1920.10  1926.12  1953.00  1962.03  1973.16
                             1996.62  2020.12  2042.38  2055.76  2060.22
                             2087.61  2130.07  2141.28  2166.89  2177.70
                             2183.21  2294.83  2428.18  2476.43  3235.98
                             4347.13  4364.28  4387.26  4451.21  4456.36
                             4472.51  4474.88  4504.45  4529.14  4552.99
                             4636.74  5259.51

 Zero-point correction=                           0.235878 (Hartree/Particle)
 Thermal correction to Energy=                    0.253200
 Thermal correction to Enthalpy=                  0.254144
 Thermal correction to Gibbs Free Energy=         0.188198
 Sum of electronic and zero-point Energies=           -962.794041
 Sum of electronic and thermal Energies=              -962.776719
 Sum of electronic and thermal Enthalpies=            -962.775775
 Sum of electronic and thermal Free Energies=         -962.841721

                     E (Thermal)             CV                S
                      KCal/Mol        Cal/Mol-Kelvin    Cal/Mol-Kelvin
 Total                  158.885             63.649            138.796
 Electronic               0.000              0.000              0.000
 Translational            0.889              2.981             42.635
 Rotational               0.889              2.981             33.777
 Vibrational            157.108             57.687             62.383
 Vibration     1          0.593              1.985              6.382
 Vibration     2          0.593              1.984              5.929
 Vibration     3          0.594              1.981              5.263
 Vibration     4          0.595              1.980              5.046
 Vibration     5          0.600              1.962              3.872
 Vibration     6          0.602              1.956              3.637
 Vibration     7          0.615              1.914              2.807
 Vibration     8          0.619              1.898              2.624
 Vibration     9          0.625              1.879              2.433
 Vibration    10          0.627              1.873              2.376
 Vibration    11          0.638              1.839              2.128
 Vibration    12          0.650              1.803              1.919
 Vibration    13          0.658              1.777              1.792
 Vibration    14          0.679              1.713              1.542
 Vibration    15          0.689              1.685              1.451
 Vibration    16          0.693              1.672              1.411
 Vibration    17          0.726              1.578              1.172
 Vibration    18          0.752              1.507              1.028
 Vibration    19          0.779              1.436              0.906
 Vibration    20          0.792              1.403              0.855
 Vibration    21          0.801              1.380              0.823
 Vibration    22          0.841              1.284              0.698
 Vibration    23          0.864              1.231              0.637
 Vibration    24          0.919              1.110              0.517
 Vibration    25          0.937              1.074              0.485
 Vibration    26          0.975              0.999              0.424

                           ! Non-Optimized Parameters !
 Normal termination of Gaussian 16 at Sun Jul 18 14:21:09 2021.

 ----------------------------------------------------------------------
 #p b3lyp/6-31G(d) scrf=(iefpcm,read,solvent=water) geom=allcheck guess
 =read
 ----------------------------------------------------------------------

 Structure from the checkpoint file:  "SET_328_BBB288_conf1.geo_210_090_060.chk"
 ---------------------------------------------
 SET_328_BBB288_conf1.geo_210_090_060 geometry
 ---------------------------------------------
 Charge = -1 Multiplicity = 1

 SCF Done:  E(RB3LYP) =  -963.029919128     A.U. after    3 cycles
 Normal termination of Gaussian 16 at Sun Jul 18 14:21:26 2021.

 -----------------------------
 #p B3LYP/6-31G* geom=allcheck
 -----------------------------

 Structure from the checkpoint file:  "SET_328_BBB288_conf1.geo_210_090_060.chk"
 ---------------------------------------------
 SET_328_BBB288_conf1.geo_210_090_060 geometry
 ---------------------------------------------
 Charge = -1 Multiplicity = 1

 SCF Done:  E(RB3LYP) =  -962.916581293     A.U. after   17 cycles
 Normal termination of Gaussian 16 at Sun Jul 18 14:22:15 2021.
 Gaussian 16:  ES64L-G16RevB.01 20-Dec-2017

 --------------------------------------------------------
 #p mp2/aug-cc-pVDZ scf=tight maxdisk=180GB geom=allcheck
 --------------------------------------------------------

 Structure from the checkpoint file:  "SET_328_BBB288_conf1.geo_210_090_060.chk"
 ---------------------------------------------
 SET_328_BBB288_conf1.geo_210_090_060 geometry
 ---------------------------------------------
 Charge = -1 Multiplicity = 1

                         Standard orientation:
 ---------------------------------------------------------------------
 Center     Atomic      Atomic             Coordinates (Angstroms)
 Number     Number       Type             X           Y           Z
 ---------------------------------------------------------------------
      1          6           0       -3.916495    1.706652   -1.440383
      2          1           0       -3.232762    2.384809   -1.958656
      3          1           0       -4.568149    2.305861   -0.794244
      4          1           0       -4.566820    1.238976   -2.187767
      5          6           0       -3.163987    0.676154   -0.652695
      6          6           0       -3.904762   -0.334696    0.117323
      7          7           0       -3.212098   -1.263002    0.850027
      8          6           0       -1.862634   -1.286993    0.887151
      9          8           0       -1.213051   -2.118826    1.553626
     10          8           0       -5.158720   -0.337701    0.102764
     11          6           0       -1.815502    0.629793   -0.604603
     12          1           0       -1.192102    1.347218   -1.127254
     13          7           0       -1.140999   -0.326570    0.121348
     14          6           0        0.306919   -0.297973    0.189080
     15          8           0        0.748295    0.956341    0.740069
     16          6           0        1.868906    1.472378    0.004156
     17          6           0        2.901215    2.058937    0.968238
     18          8           0        3.321885    1.173989    1.990745
     19          1           0        3.717638    0.402655    1.543161
     20          1           0        2.449972    2.917897    1.473300
     21          1           0        3.745579    2.435250    0.372231
     22          1           0        1.528194    2.292046   -0.643618
     23          1           0        0.572744   -1.106802    0.867691
     24          6           0        1.025749   -0.424747   -1.160224
     25          1           0        0.457907    0.080270   -1.946693
     26          1           0        1.174253   -1.464299   -1.459510
     27          6           0        2.331285    0.335233   -0.921261
     28          1           0        2.771502    0.728825   -1.841049
     29          7           0        3.343591   -0.508853   -0.218964
     30          7           0        3.967223   -1.296425   -0.931554
     31          7           0        4.603798   -2.056803   -1.494559
 ---------------------------------------------------------------------

 SCF Done:  E(RHF) =  -957.449887910     A.U. after   17 cycles
 E2 =    -0.3055249584D+01 EUMP2 =    -0.96050513749370D+03

 The electronic state is 1-A.
 Alpha  occ. eigenvalues --  -20.48015 -20.47937 -20.35300 -20.34864 -15.74113
 Alpha  occ. eigenvalues --  -15.62520 -15.56223 -15.47530 -15.36401 -11.23193
 Alpha  occ. eigenvalues --  -11.22392 -11.22303 -11.21737 -11.21223 -11.18006
 Alpha  occ. eigenvalues --  -11.16709 -11.16644 -11.11389 -11.10386  -1.45202
 Alpha  occ. eigenvalues --   -1.30610  -1.27359  -1.23961  -1.22260  -1.18240
 Alpha  occ. eigenvalues --   -1.12775  -1.01640  -1.01266  -0.95509  -0.93108
 Alpha  occ. eigenvalues --   -0.84998  -0.81901  -0.77221  -0.73614  -0.71988
 Alpha  occ. eigenvalues --   -0.69086  -0.66609  -0.64922  -0.63837  -0.62264
 Alpha  occ. eigenvalues --   -0.61379  -0.59832  -0.58357  -0.56173  -0.55019
 Alpha  occ. eigenvalues --   -0.51678  -0.51123  -0.50502  -0.49456  -0.46727
 Alpha  occ. eigenvalues --   -0.46553  -0.46030  -0.44353  -0.43895  -0.43648
 Alpha  occ. eigenvalues --   -0.42818  -0.41898  -0.40424  -0.40151  -0.37939
 Alpha  occ. eigenvalues --   -0.36080  -0.35762  -0.34243  -0.32456  -0.31713
 Alpha  occ. eigenvalues --   -0.28435  -0.25570  -0.23289  -0.19072  -0.18478
 Alpha virt. eigenvalues --    0.08537   0.10244   0.10421   0.11734   0.12270
 Alpha virt. eigenvalues --    0.12982   0.13225   0.13604   0.14798   0.15202
 Alpha virt. eigenvalues --    0.16038   0.16489   0.16972   0.17528   0.18304

 Mulliken charges:
               1
     1  C    0.491976
     2  H   -0.175519
     3  H    0.070437
     4  H    0.067378
     5  C    0.201461
     6  C    0.685249
     7  N   -0.851151
     8  C    0.993765
     9  O   -0.928523
    10  O   -1.069668
    11  C    1.115136
    12  H   -0.698453
    13  N   -0.833593
    14  C    1.092347
    15  O   -1.180779
    16  C    0.628088
    17  C    1.302848
    18  O   -0.711568
    19  H    0.221046
    20  H   -0.110022
    21  H   -0.088358
    22  H   -0.254832
    23  H   -0.473316
    24  C    0.497488
    25  H   -0.218074
    26  H   -0.166668
    27  C    0.436036
    28  H   -0.249035
    29  N   -0.770758
    30  N    0.348689
    31  N   -0.371627
 Sum of Mulliken charges =  -1.00000

 Dipole moment (field-independent basis, Debye):
    X=             15.7487    Y=              7.1031    Z=             -8.7324  Tot=             19.3580
 Quadrupole moment (field-independent basis, Debye-Ang):
   XX=           -200.1609   YY=           -128.6531   ZZ=           -128.3393
   XY=            -14.5958   XZ=              3.3009   YZ=              4.9232

 Normal termination of Gaussian 16 at Sun Jul 18 15:12:43 2021.
