 Gaussian 16, Revision B.01,

 -----------------------------------------------------------
 #p b3lyp/6-31G(d) opt freq scrf=(iefpcm,read,solvent=water)
 -----------------------------------------------------------

 ---------------------------------------------
 SET_328_BBB272_conf1.geo_120_300_180 geometry
 ---------------------------------------------
 Symbolic Z-matrix:
 Charge = -1 Multiplicity = 1

 SCF Done:  E(RB3LYP) =  -648.205275062     A.U. after   13 cycles
 SCF Done:  E(RB3LYP) =  -648.230467296     A.U. after   13 cycles
 SCF Done:  E(RB3LYP) =  -648.219480007     A.U. after   14 cycles
 SCF Done:  E(RB3LYP) =  -648.235851792     A.U. after   12 cycles
 SCF Done:  E(RB3LYP) =  -648.236994611     A.U. after   11 cycles
 SCF Done:  E(RB3LYP) =  -648.238300825     A.U. after   14 cycles
 SCF Done:  E(RB3LYP) =  -648.239033901     A.U. after   11 cycles
 SCF Done:  E(RB3LYP) =  -648.239436141     A.U. after   13 cycles
 SCF Done:  E(RB3LYP) =  -648.239445994     A.U. after   11 cycles
 SCF Done:  E(RB3LYP) =  -648.239364697     A.U. after   11 cycles
 SCF Done:  E(RB3LYP) =  -648.239519209     A.U. after    9 cycles
 SCF Done:  E(RB3LYP) =  -648.239538453     A.U. after    9 cycles
 SCF Done:  E(RB3LYP) =  -648.239530499     A.U. after   10 cycles
 SCF Done:  E(RB3LYP) =  -648.239526922     A.U. after    8 cycles
 SCF Done:  E(RB3LYP) =  -648.239539043     A.U. after    9 cycles
 SCF Done:  E(RB3LYP) =  -648.239527602     A.U. after    9 cycles
 Optimization completed.
    -- Stationary point found.
 Normal termination of Gaussian 16 at Sun Jul 18 14:01:15 2021.

 --------------------------------------------------------------------
 #P Geom=AllCheck Guess=TCheck SCRF=Check GenChk RB3LYP/6-31G(d) Freq
 --------------------------------------------------------------------

 Structure from the checkpoint file:  "SET_328_BBB272_conf1.geo_120_300_180.chk"
 ---------------------------------------------
 SET_328_BBB272_conf1.geo_120_300_180 geometry
 ---------------------------------------------
 Charge = -1 Multiplicity = 1

 SCF Done:  E(RB3LYP) =  -648.239527602     A.U. after    1 cycles

  Exact polarizability: 175.070   4.362 154.407 -11.231   6.069  75.180
 Approx polarizability: 195.502   0.120 178.933 -15.466   7.476  95.771

                      1                      2                      3
                      A                      A                      A
 Frequencies --     43.6051                74.6642                95.3929
 Red. masses --      8.7150                 1.6076                 2.6792
 Frc consts  --      0.0098                 0.0053                 0.0144
 IR Inten    --      0.8121                 5.2478                 7.9406

                      4                      5                      6
                      A                      A                      A
 Frequencies --    104.2944               122.5303               155.3778
 Red. masses --      3.0022                 4.9957                 7.3261
 Frc consts  --      0.0192                 0.0442                 0.1042
 IR Inten    --     10.0168                 5.2430                 2.5208

                      7                      8                      9
                      A                      A                      A
 Frequencies --    243.3784               275.0957               312.2986
 Red. masses --      8.2164                 6.5080                 4.0681
 Frc consts  --      0.2867                 0.2902                 0.2338
 IR Inten    --      4.6796                 2.3471                 4.5251

                     10                     11                     12
                      A                      A                      A
 Frequencies --    368.0420               412.6950               450.1973
 Red. masses --      7.4920                 6.1390                 4.1159
 Frc consts  --      0.5979                 0.6160                 0.4915
 IR Inten    --      3.2688                14.4063                 2.9353

                     13                     14                     15
                      A                      A                      A
 Frequencies --    526.3158               542.9092               555.5093
 Red. masses --      4.3027                 4.5630                 4.8928
 Frc consts  --      0.7022                 0.7924                 0.8896
 IR Inten    --     11.5625                 7.1495                 8.7865

                     16                     17                     18
                      A                      A                      A
 Frequencies --    584.6620               660.3223               677.6830
 Red. masses --      3.7597                 5.9663                 5.9516
 Frc consts  --      0.7572                 1.5327                 1.6104
 IR Inten    --     29.5925                 8.9636                27.1098

                     19                     20                     21
                      A                      A                      A
 Frequencies --    709.2619               769.7766               810.4213
 Red. masses --      3.9529                 1.8733                 4.5726
 Frc consts  --      1.1716                 0.6540                 1.7694
 IR Inten    --     39.5150                50.2417                20.9757

                     22                     23                     24
                      A                      A                      A
 Frequencies --    813.4082               848.8742               897.7952
 Red. masses --      3.6810                 4.6393                 1.6299
 Frc consts  --      1.4349                 1.9696                 0.7740
 IR Inten    --     38.4162                49.4396                 3.4046

                     25                     26                     27
                      A                      A                      A
 Frequencies --    939.3669               971.5067               997.9862
 Red. masses --      4.8729                 1.4246                 1.2753
 Frc consts  --      2.5334                 0.7922                 0.7483
 IR Inten    --     34.9463                 8.6769                 0.7559

                     28                     29                     30
                      A                      A                      A
 Frequencies --   1031.7108              1065.3610              1066.4391
 Red. masses --      1.7848                 1.7148                 2.1869
 Frc consts  --      1.1193                 1.1467                 1.4654
 IR Inten    --     69.8022                33.1327                10.8591

                     31                     32                     33
                      A                      A                      A
 Frequencies --   1109.5936              1165.4175              1183.8620
 Red. masses --      2.9498                 1.7703                 1.1720
 Frc consts  --      2.1398                 1.4166                 0.9678
 IR Inten    --     82.9501                 7.1039                10.3328

                     34                     35                     36
                      A                      A                      A
 Frequencies --   1216.1098              1252.3774              1287.7678
 Red. masses --      3.7567                 3.4012                 1.5843
 Frc consts  --      3.2734                 3.1431                 1.5479
 IR Inten    --    385.8368               454.1774                 4.4198

                     37                     38                     39
                      A                      A                      A
 Frequencies --   1349.5729              1386.7402              1416.5775
 Red. masses --      9.5560                11.5114                 1.3431
 Frc consts  --     10.2546                13.0427                 1.5880
 IR Inten    --      1.2620               673.6480               104.3878

                     40                     41                     42
                      A                      A                      A
 Frequencies --   1485.7042              1488.7565              1492.9805
 Red. masses --      2.1801                 1.0552                 1.0711
 Frc consts  --      2.8352                 1.3779                 1.4067
 IR Inten    --     15.9015                18.8569                 9.3267

                     43                     44                     45
                      A                      A                      A
 Frequencies --   1515.0960              1624.2511              1655.6455
 Red. masses --      2.6175                 6.4023                 6.6447
 Frc consts  --      3.5401                 9.9515                10.7315
 IR Inten    --     25.1159                56.3023                79.8895

                     46                     47                     48
                      A                      A                      A
 Frequencies --   1673.7550              1810.6486              3094.0394
 Red. masses --     11.0330                11.3865                 1.0362
 Frc consts  --     18.2107                21.9942                 5.8443
 IR Inten    --    788.6945               420.9861                 2.4763

                     49                     50                     51
                      A                      A                      A
 Frequencies --   3162.4439              3199.0974              3207.2353
 Red. masses --      1.1012                 1.1045                 1.0864
 Frc consts  --      6.4886                 6.6597                 6.5844
 IR Inten    --      6.4450                16.1237                 4.4511

                     52                     53                     54
                      A                      A                      A
 Frequencies --   3215.1603              3227.0208              3234.7863
 Red. masses --      1.0903                 1.0913                 1.0970
 Frc consts  --      6.6404                 6.6960                 6.7629
 IR Inten    --     19.8322                18.9207                36.7897

 - Thermochemistry -
 -------------------
 Temperature   298.150 Kelvin.  Pressure   1.00000 Atm.
 Atom     1 has atomic number  6 and mass  12.00000

 Molecular mass:   179.03443 amu.
 Principal axes and moments of inertia in atomic units:
                           1         2         3
     Eigenvalues --  1560.692732389.647053588.74986
           X            0.99988   0.00798  -0.01321
           Y           -0.00786   0.99993   0.00863
           Z            0.01328  -0.00852   0.99988
 This molecule is an asymmetric top.
 Rotational symmetry number  1.
 Warning -- assumption of classical behavior for rotation
           may cause significant error
 Rotational temperatures (Kelvin)      0.05550     0.03625     0.02413
 Rotational constants (GHZ):           1.15637     0.75523     0.50289
 Zero-point vibrational energy     380301.9 (Joules/Mol)
                                   90.89435 (Kcal/Mol)
 Warning -- explicit consideration of  16 degrees of freedom as
           vibrations may cause significant error
 Vibrational temperatures:     62.74   107.43   137.25   150.06   176.29
          (Kelvin)            223.55   350.17   395.80   449.33   529.53
                              593.78   647.73   757.25   781.13   799.25
                              841.20   950.06   975.03  1020.47  1107.54
                             1166.02  1170.31  1221.34  1291.73  1351.54
                             1397.78  1435.88  1484.40  1532.82  1534.37
                             1596.46  1676.78  1703.31  1749.71  1801.89
                             1852.81  1941.73  1995.21  2038.14  2137.60
                             2141.99  2148.07  2179.89  2336.94  2382.10
                             2408.16  2605.12  4451.63  4550.05  4602.79
                             4614.50  4625.90  4642.96  4654.14

 Zero-point correction=                           0.144849 (Hartree/Particle)
 Thermal correction to Energy=                    0.156209
 Thermal correction to Enthalpy=                  0.157153
 Thermal correction to Gibbs Free Energy=         0.106489
 Sum of electronic and zero-point Energies=           -648.094678
 Sum of electronic and thermal Energies=              -648.083319
 Sum of electronic and thermal Enthalpies=            -648.082375
 Sum of electronic and thermal Free Energies=         -648.133039

                     E (Thermal)             CV                S
                      KCal/Mol        Cal/Mol-Kelvin    Cal/Mol-Kelvin
 Total                   98.022             41.525            106.631
 Electronic               0.000              0.000              0.000
 Translational            0.889              2.981             41.454
 Rotational               0.889              2.981             30.971
 Vibrational             96.245             35.564             34.206
 Vibration     1          0.595              1.980              5.088
 Vibration     2          0.599              1.966              4.026
 Vibration     3          0.603              1.952              3.546
 Vibration     4          0.605              1.946              3.372
 Vibration     5          0.610              1.930              3.060
 Vibration     6          0.620              1.897              2.605
 Vibration     7          0.659              1.774              1.778
 Vibration     8          0.677              1.719              1.564
 Vibration     9          0.701              1.650              1.350
 Vibration    10          0.741              1.538              1.088
 Vibration    11          0.776              1.443              0.917
 Vibration    12          0.809              1.360              0.795
 Vibration    13          0.881              1.192              0.595
 Vibration    14          0.898              1.155              0.559
 Vibration    15          0.911              1.128              0.533
 Vibration    16          0.942              1.065              0.477

 Optimization completed.
    -- Stationary point found.
 Normal termination of Gaussian 16 at Sun Jul 18 14:05:00 2021.

 ----------------------------------------------------------------------
 #p b3lyp/6-31G(d) scrf=(iefpcm,read,solvent=water) geom=allcheck guess
 =read
 ----------------------------------------------------------------------

 Structure from the checkpoint file:  "SET_328_BBB272_conf1.geo_120_300_180.chk"
 ---------------------------------------------
 SET_328_BBB272_conf1.geo_120_300_180 geometry
 ---------------------------------------------
 Charge = -1 Multiplicity = 1

 SCF Done:  E(RB3LYP) =  -648.239527602     A.U. after    1 cycles
 Normal termination of Gaussian 16 at Sun Jul 18 14:05:05 2021.

 -----------------------------
 #p B3LYP/6-31G* geom=allcheck
 -----------------------------

 Structure from the checkpoint file:  "SET_328_BBB272_conf1.geo_120_300_180.chk"
 ---------------------------------------------
 SET_328_BBB272_conf1.geo_120_300_180 geometry
 ---------------------------------------------
 Charge = -1 Multiplicity = 1

 SCF Done:  E(RB3LYP) =  -648.133172299     A.U. after   16 cycles
 Normal termination of Gaussian 16 at Sun Jul 18 14:05:25 2021.
 Gaussian 16:  ES64L-G16RevB.01 20-Dec-2017

 --------------------------------------------------------
 #p mp2/aug-cc-pVDZ scf=tight maxdisk=180GB geom=allcheck
 --------------------------------------------------------

 Structure from the checkpoint file:  "SET_328_BBB272_conf1.geo_120_300_180.chk"
 ---------------------------------------------
 SET_328_BBB272_conf1.geo_120_300_180 geometry
 ---------------------------------------------
 Charge = -1 Multiplicity = 1

                         Standard orientation:
 ---------------------------------------------------------------------
 Center     Atomic      Atomic             Coordinates (Angstroms)
 Number     Number       Type             X           Y           Z
 ---------------------------------------------------------------------
      1          6           0        3.394464   -0.561828   -0.350398
      2          1           0        3.480897    0.419751   -0.822611
      3          1           0        3.541740   -1.319465   -1.123489
      4          1           0        4.152994   -0.665140    0.423969
      5          6           0        2.026607   -0.690262    0.255025
      6          8           0        1.775546   -0.766910    1.437978
      7          8           0        1.081584   -0.774144   -0.721031
      8          6           0       -0.262116   -0.686850   -0.341539
      9          6           0       -0.860520    0.554312   -0.073137
     10          6           0       -0.118848    1.895975   -0.076889
     11          8           0        1.142251    1.874870   -0.030593
     12          8           0       -0.843837    2.926584   -0.115113
     13          6           0       -2.235486    0.543780    0.204326
     14          1           0       -2.708102    1.499926    0.398972
     15          6           0       -2.978787   -0.634252    0.225953
     16          1           0       -4.039805   -0.603313    0.450812
     17          6           0       -2.353965   -1.851767   -0.051098
     18          1           0       -2.919846   -2.776113   -0.045666
     19          6           0       -0.990200   -1.874917   -0.339396
     20          1           0       -0.479127   -2.803981   -0.568999
 ---------------------------------------------------------------------

 SCF Done:  E(RHF) =  -644.489629296     A.U. after   16 cycles
 E2 =    -0.2006030914D+01 EUMP2 =    -0.64649566020973D+03

 The electronic state is 1-A.
 Alpha  occ. eigenvalues --  -20.48837 -20.42577 -20.32414 -20.32333 -11.26997
 Alpha  occ. eigenvalues --  -11.18597 -11.17568 -11.13456 -11.13114 -11.12679
 Alpha  occ. eigenvalues --  -11.12412 -11.11655 -11.11208  -1.33861  -1.23763
 Alpha  occ. eigenvalues --   -1.19442  -1.09010  -1.03310  -0.92189  -0.90236
 Alpha  occ. eigenvalues --   -0.87691  -0.74092  -0.72125  -0.65755  -0.60257
 Alpha  occ. eigenvalues --   -0.57143  -0.55937  -0.54799  -0.52857  -0.49851
 Alpha  occ. eigenvalues --   -0.48339  -0.46505  -0.45919  -0.44764  -0.42514
 Alpha  occ. eigenvalues --   -0.41600  -0.40522  -0.39609  -0.37769  -0.36145
 Alpha  occ. eigenvalues --   -0.33970  -0.32214  -0.23584  -0.23245  -0.21656
 Alpha  occ. eigenvalues --   -0.21050  -0.20629
 Alpha virt. eigenvalues --    0.10883   0.11537   0.12186   0.13245   0.14163
 Alpha virt. eigenvalues --    0.15499   0.15934   0.18396   0.20040   0.20604
 Alpha virt. eigenvalues --    0.21181   0.21543   0.21839   0.22427   0.23013

 Mulliken charges:
               1
     1  C    0.246531
     2  H    0.075801
     3  H    0.005600
     4  H   -0.045758
     5  C    0.748349
     6  O   -0.809458
     7  O   -1.194130
     8  C    0.738891
     9  C    0.607008
    10  C    0.874654
    11  O   -0.954021
    12  O   -0.989067
    13  C    0.694924
    14  H   -0.618840
    15  C    0.457939
    16  H   -0.473456
    17  C    0.383247
    18  H   -0.461240
    19  C    0.315094
    20  H   -0.602071
 Sum of Mulliken charges =  -1.00000

 Dipole moment (field-independent basis, Debye):
    X=             -0.4369    Y=             -9.1418    Z=             -1.6791  Tot=              9.3050
 Quadrupole moment (field-independent basis, Debye-Ang):
   XX=            -79.4539   YY=           -107.2929   ZZ=            -85.7430
   XY=              0.4813   XZ=             -6.0617   YZ=              3.5692

 Normal termination of Gaussian 16 at Sun Jul 18 14:10:09 2021.
