 Gaussian 16, Revision B.01,

 -----------------------------------------------------------
 #p b3lyp/6-31G(d) opt freq scrf=(iefpcm,read,solvent=water)
 -----------------------------------------------------------

 --------------------------------------------
 SET_328_BBB29_conf1.geo_285_180_180 geometry
 --------------------------------------------
 Symbolic Z-matrix:
 Charge =  1 Multiplicity = 1

 SCF Done:  E(RB3LYP) =  -1548.95032581     A.U. after   13 cycles
 SCF Done:  E(RB3LYP) =  -1548.98103149     A.U. after   11 cycles
 SCF Done:  E(RB3LYP) =  -1548.99026959     A.U. after   11 cycles
 SCF Done:  E(RB3LYP) =  -1548.99234381     A.U. after   11 cycles
 SCF Done:  E(RB3LYP) =  -1548.99308356     A.U. after   11 cycles
 SCF Done:  E(RB3LYP) =  -1548.99326675     A.U. after   11 cycles
 SCF Done:  E(RB3LYP) =  -1548.99378936     A.U. after   11 cycles
 SCF Done:  E(RB3LYP) =  -1548.99515521     A.U. after   11 cycles
 SCF Done:  E(RB3LYP) =  -1548.99517312     A.U. after   11 cycles
 SCF Done:  E(RB3LYP) =  -1548.99556157     A.U. after   10 cycles
 SCF Done:  E(RB3LYP) =  -1548.99567455     A.U. after    9 cycles
 SCF Done:  E(RB3LYP) =  -1548.99567933     A.U. after    8 cycles
 SCF Done:  E(RB3LYP) =  -1548.99568417     A.U. after    8 cycles
 SCF Done:  E(RB3LYP) =  -1548.99568215     A.U. after    7 cycles
 SCF Done:  E(RB3LYP) =  -1548.99568275     A.U. after    7 cycles
 SCF Done:  E(RB3LYP) =  -1548.99568259     A.U. after    6 cycles
 Optimization completed.
    -- Stationary point found.
 Normal termination of Gaussian 16 at Sun Jul 18 14:14:16 2021.

 --------------------------------------------------------------------
 #P Geom=AllCheck Guess=TCheck SCRF=Check GenChk RB3LYP/6-31G(d) Freq
 --------------------------------------------------------------------

 Structure from the checkpoint file:  "SET_328_BBB29_conf1.geo_285_180_180.chk"
 --------------------------------------------
 SET_328_BBB29_conf1.geo_285_180_180 geometry
 --------------------------------------------
 Charge =  1 Multiplicity = 1

 SCF Done:  E(RB3LYP) =  -1548.99568259     A.U. after    1 cycles

  Exact polarizability: 398.589  16.222 304.847 -10.241   8.845 131.148
 Approx polarizability: 421.218  11.986 347.329 -11.327  12.540 155.043

                      1                      2                      3
                      A                      A                      A
 Frequencies --     31.0045                45.4844                60.8431
 Red. masses --      5.6180                 5.0695                 4.6228
 Frc consts  --      0.0032                 0.0062                 0.0101
 IR Inten    --     11.8087                20.0482                 9.1768

                      4                      5                      6
                      A                      A                      A
 Frequencies --     80.6333                85.9810               130.0764
 Red. masses --      1.8483                 5.1780                 4.6850
 Frc consts  --      0.0071                 0.0226                 0.0467
 IR Inten    --      3.0654                 3.3227                 1.0352

                      7                      8                      9
                      A                      A                      A
 Frequencies --    165.4443               172.9591               209.5182
 Red. masses --      7.6752                 3.7210                 4.2953
 Frc consts  --      0.1238                 0.0656                 0.1111
 IR Inten    --      1.5059                11.2517                 3.0390

                     10                     11                     12
                      A                      A                      A
 Frequencies --    216.2061               242.7553               287.2303
 Red. masses --      4.4797                 3.9730                 6.3897
 Frc consts  --      0.1234                 0.1379                 0.3106
 IR Inten    --      4.1511                 2.9188                 3.3509

                     13                     14                     15
                      A                      A                      A
 Frequencies --    292.7318               299.0472               336.2156
 Red. masses --      8.0780                 1.0916                 5.9971
 Frc consts  --      0.4078                 0.0575                 0.3994
 IR Inten    --      1.4963                 0.0289                 4.6728

                     16                     17                     18
                      A                      A                      A
 Frequencies --    350.8929               388.3847               415.8432
 Red. masses --      6.1360                 6.3205                 3.2723
 Frc consts  --      0.4451                 0.5617                 0.3334
 IR Inten    --      5.8167                 7.9617                 6.5578

                     19                     20                     21
                      A                      A                      A
 Frequencies --    435.5808               443.4598               463.3004
 Red. masses --      5.0609                 3.5063                 3.2494
 Frc consts  --      0.5657                 0.4063                 0.4109
 IR Inten    --      3.5822                10.6165                 1.9667

                     22                     23                     24
                      A                      A                      A
 Frequencies --    465.5694               496.3828               545.9345
 Red. masses --      4.3720                 4.9902                 5.0718
 Frc consts  --      0.5583                 0.7244                 0.8906
 IR Inten    --      2.9128                 8.5069                 9.0293

                     25                     26                     27
                      A                      A                      A
 Frequencies --    554.1468               591.1835               623.6438
 Red. masses --      5.6510                 5.6360                 5.8264
 Frc consts  --      1.0224                 1.1606                 1.3351
 IR Inten    --      8.7119                 6.5571                 1.1484

                     28                     29                     30
                      A                      A                      A
 Frequencies --    653.8274               689.3812               713.5282
 Red. masses --      6.0882                 6.2639                 5.0736
 Frc consts  --      1.5334                 1.7539                 1.5219
 IR Inten    --     16.4427                 5.1895                 3.1994

                     31                     32                     33
                      A                      A                      A
 Frequencies --    727.8626               738.0818               763.9643
 Red. masses --      5.1909                 4.1602                 1.2852
 Frc consts  --      1.6203                 1.3353                 0.4419
 IR Inten    --      1.8613                 2.8291                81.8572

                     34                     35                     36
                      A                      A                      A
 Frequencies --    770.0158               801.2645               812.4302
 Red. masses --      1.0876                 4.9455                 1.3523
 Frc consts  --      0.3799                 1.8707                 0.5259
 IR Inten    --     25.6575                 7.6729                37.6886

                     37                     38                     39
                      A                      A                      A
 Frequencies --    852.2578               858.8651               869.9453
 Red. masses --      1.3527                 1.3928                 1.3453
 Frc consts  --      0.5789                 0.6053                 0.5999
 IR Inten    --     14.9970                36.1097                 0.5608

                     40                     41                     42
                      A                      A                      A
 Frequencies --    930.1768               943.0590               945.7546
 Red. masses --      2.7300                 1.4176                 1.3065
 Frc consts  --      1.3917                 0.7428                 0.6885
 IR Inten    --    186.9965                 9.6888                 1.6368

                     43                     44                     45
                      A                      A                      A
 Frequencies --    950.1894               982.9388               996.0360
 Red. masses --      2.0639                 1.2565                 1.3017
 Frc consts  --      1.0979                 0.7153                 0.7609
 IR Inten    --     24.8721                 0.1156                 4.1331

                     46                     47                     48
                      A                      A                      A
 Frequencies --   1000.4857              1044.2136              1066.3605
 Red. masses --      3.4167                 2.9218                 5.5631
 Frc consts  --      2.0150                 1.8770                 3.7271
 IR Inten    --      3.6934                19.6594                33.4821

                     49                     50                     51
                      A                      A                      A
 Frequencies --   1069.9025              1085.0162              1125.3637
 Red. masses --      6.5407                 2.4995                 4.2097
 Frc consts  --      4.4112                 1.7337                 3.1411
 IR Inten    --     36.1966                 8.9741                14.7931

                     52                     53                     54
                      A                      A                      A
 Frequencies --   1143.5463              1158.5616              1163.2345
 Red. masses --      2.0884                 1.5451                 1.8246
 Frc consts  --      1.6091                 1.2219                 1.4547
 IR Inten    --     79.5123                65.4711                52.7131

                     55                     56                     57
                      A                      A                      A
 Frequencies --   1170.2485              1187.0117              1204.4081
 Red. masses --      1.4270                 1.7069                 1.2059
 Frc consts  --      1.1514                 1.4170                 1.0306
 IR Inten    --     22.0462                60.7946                 6.7240

                     58                     59                     60
                      A                      A                      A
 Frequencies --   1271.0635              1283.1940              1297.3869
 Red. masses --      2.0020                 2.6376                 1.4082
 Frc consts  --      1.9056                 2.5588                 1.3965
 IR Inten    --    217.4843               143.3981                10.4384

                     61                     62                     63
                      A                      A                      A
 Frequencies --   1326.7753              1332.8616              1335.9516
 Red. masses --      1.6145                 1.3463                 6.5190
 Frc consts  --      1.6745                 1.4091                 6.8550
 IR Inten    --      7.6558                 2.3141                70.2319

                     64                     65                     66
                      A                      A                      A
 Frequencies --   1346.1708              1353.1246              1367.6856
 Red. masses --      1.2898                 9.2628                 1.1407
 Frc consts  --      1.3771                 9.9924                 1.2572
 IR Inten    --     63.3122                 3.9499                 1.1688

                     67                     68                     69
                      A                      A                      A
 Frequencies --   1397.4859              1428.8544              1440.3180
 Red. masses --      1.6190                 1.3333                 1.4920
 Frc consts  --      1.8629                 1.6038                 1.8237
 IR Inten    --     76.3058                38.3976               120.3940

                     70                     71                     72
                      A                      A                      A
 Frequencies --   1449.8071              1486.7495              1510.6245
 Red. masses --      2.5323                 2.2654                 2.2780
 Frc consts  --      3.1361                 2.9504                 3.0627
 IR Inten    --    139.5288                45.5196               488.6350

                     73                     74                     75
                      A                      A                      A
 Frequencies --   1517.9764              1528.2662              1535.7352
 Red. masses --      1.1340                 1.2582                 1.2615
 Frc consts  --      1.5396                 1.7314                 1.7529
 IR Inten    --     15.3859                23.8594               152.3360

                     76                     77                     78
                      A                      A                      A
 Frequencies --   1543.8327              1554.8341              1609.7794
 Red. masses --      1.5307                 1.1328                 6.0675
 Frc consts  --      2.1495                 1.6135                 9.2639
 IR Inten    --     39.9106                12.7742                58.7117

                     79                     80                     81
                      A                      A                      A
 Frequencies --   1625.6223              1632.0417              1634.9345
 Red. masses --      6.1732                 5.9425                 1.0414
 Frc consts  --      9.6117                 9.3258                 1.6400
 IR Inten    --    127.1385                 8.9014                64.1290

                     82                     83                     84
                      A                      A                      A
 Frequencies --   1651.7683              1655.3030              3093.0834
 Red. masses --      6.2815                 1.0374                 1.0601
 Frc consts  --     10.0974                 1.6748                 5.9758
 IR Inten    --     68.4661                87.4707                 8.5347

                     85                     86                     87
                      A                      A                      A
 Frequencies --   3102.9885              3127.1805              3130.8524
 Red. masses --      1.0601                 1.0604                 1.1033
 Frc consts  --      6.0138                 6.1099                 6.3718
 IR Inten    --     46.7857                25.6758                 0.3693

                     88                     89                     90
                      A                      A                      A
 Frequencies --   3148.0800              3184.4483              3211.4749
 Red. masses --      1.1066                 1.1093                 1.0872
 Frc consts  --      6.4616                 6.6275                 6.6066
 IR Inten    --     37.7581                22.5562                 3.0936

                     91                     92                     93
                      A                      A                      A
 Frequencies --   3219.9057              3222.4674              3234.6184
 Red. masses --      1.0899                 1.0898                 1.0963
 Frc consts  --      6.6577                 6.6678                 6.7583
 IR Inten    --     18.1465                 9.0762                44.6271

                     94                     95                     96
                      A                      A                      A
 Frequencies --   3251.5083              3266.5227              3295.1148
 Red. masses --      1.0942                 1.0900                 1.0892
 Frc consts  --      6.8157                 6.8526                 6.9679
 IR Inten    --      4.4029                16.5638                 1.6888

                     97                     98                     99
                      A                      A                      A
 Frequencies --   3389.2315              3452.0178              3474.1707
 Red. masses --      1.0349                 1.0927                 1.0937
 Frc consts  --      7.0041                 7.6719                 7.7777
 IR Inten    --    137.8793               223.3722               228.6289

 - Thermochemistry -
 -------------------
 Temperature   298.150 Kelvin.  Pressure   1.00000 Atm.
 Atom     1 has atomic number  7 and mass  14.00307

 Molecular mass:   291.07227 amu.
 Principal axes and moments of inertia in atomic units:
                           1         2         3
     Eigenvalues --  5127.571907145.89548**********
           X            0.99975  -0.02206  -0.00444
           Y            0.02208   0.99975   0.00245
           Z            0.00439  -0.00255   0.99999
 This molecule is an asymmetric top.
 Rotational symmetry number  1.
 Warning -- assumption of classical behavior for rotation
           may cause significant error
 Rotational temperatures (Kelvin)      0.01689     0.01212     0.00732
 Rotational constants (GHZ):           0.35197     0.25256     0.15250
 Zero-point vibrational energy     758254.2 (Joules/Mol)
                                  181.22709 (Kcal/Mol)
 Warning -- explicit consideration of  26 degrees of freedom as
           vibrations may cause significant error
 Vibrational temperatures:     44.61    65.44    87.54   116.01   123.71
          (Kelvin)            187.15   238.04   248.85   301.45   311.07
                              349.27   413.26   421.18   430.26   483.74
                              504.86   558.80   598.31   626.70   638.04
                              666.59   669.85   714.18   785.48   797.29
                              850.58   897.28   940.71   991.87  1026.61
                             1047.23  1061.94  1099.17  1107.88  1152.84
                             1168.91  1226.21  1235.72  1251.66  1338.32
                             1356.85  1360.73  1367.11  1414.23  1433.07
                             1439.48  1502.39  1534.25  1539.35  1561.10
                             1619.15  1645.31  1666.91  1673.64  1683.73
                             1707.85  1732.87  1828.78  1846.23  1866.65
                             1908.93  1917.69  1922.14  1936.84  1946.84
                             1967.79  2010.67  2055.80  2072.30  2085.95
                             2139.10  2173.45  2184.03  2198.83  2209.58
                             2221.23  2237.06  2316.11  2338.91  2348.14
                             2352.31  2376.53  2381.61  4450.26  4464.51
                             4499.32  4504.60  4529.38  4581.71  4620.60
                             4632.73  4636.41  4653.89  4678.20  4699.80
                             4740.94  4876.35  4966.68  4998.56

 Zero-point correction=                           0.288804 (Hartree/Particle)
 Thermal correction to Energy=                    0.305577
 Thermal correction to Enthalpy=                  0.306521
 Thermal correction to Gibbs Free Energy=         0.243355
 Sum of electronic and zero-point Energies=          -1548.706879
 Sum of electronic and thermal Energies=             -1548.690106
 Sum of electronic and thermal Enthalpies=           -1548.689162
 Sum of electronic and thermal Free Energies=        -1548.752328

                     E (Thermal)             CV                S
                      KCal/Mol        Cal/Mol-Kelvin    Cal/Mol-Kelvin
 Total                  191.752             65.719            132.944
 Electronic               0.000              0.000              0.000
 Translational            0.889              2.981             42.903
 Rotational               0.889              2.981             34.427
 Vibrational            189.975             59.757             55.615
 Vibration     1          0.594              1.984              5.764
 Vibration     2          0.595              1.979              5.005
 Vibration     3          0.597              1.973              4.430
 Vibration     4          0.600              1.962              3.875
 Vibration     5          0.601              1.959              3.749
 Vibration     6          0.612              1.923              2.945
 Vibration     7          0.624              1.885              2.487
 Vibration     8          0.626              1.876              2.403
 Vibration     9          0.642              1.826              2.048
 Vibration    10          0.645              1.816              1.991
 Vibration    11          0.659              1.775              1.783
 Vibration    12          0.684              1.697              1.490
 Vibration    13          0.688              1.687              1.458
 Vibration    14          0.692              1.675              1.422
 Vibration    15          0.717              1.603              1.230
 Vibration    16          0.728              1.573              1.162
 Vibration    17          0.757              1.495              1.006
 Vibration    18          0.779              1.436              0.906
 Vibration    19          0.796              1.393              0.841
 Vibration    20          0.803              1.375              0.816
 Vibration    21          0.821              1.331              0.757
 Vibration    22          0.823              1.326              0.750
 Vibration    23          0.852              1.258              0.667
 Vibration    24          0.901              1.149              0.553
 Vibration    25          0.910              1.131              0.536
 Vibration    26          0.949              1.051              0.465

                           ! Non-Optimized Parameters !
 Normal termination of Gaussian 16 at Sun Jul 18 14:29:36 2021.

 ----------------------------------------------------------------------
 #p b3lyp/6-31G(d) scrf=(iefpcm,read,solvent=water) geom=allcheck guess
 =read
 ----------------------------------------------------------------------

 Structure from the checkpoint file:  "SET_328_BBB29_conf1.geo_285_180_180.chk"
 --------------------------------------------
 SET_328_BBB29_conf1.geo_285_180_180 geometry
 --------------------------------------------
 Charge =  1 Multiplicity = 1

 SCF Done:  E(RB3LYP) =  -1548.99568259     A.U. after    2 cycles
 Normal termination of Gaussian 16 at Sun Jul 18 14:29:55 2021.

 -----------------------------
 #p B3LYP/6-31G* geom=allcheck
 -----------------------------

 Structure from the checkpoint file:  "SET_328_BBB29_conf1.geo_285_180_180.chk"
 --------------------------------------------
 SET_328_BBB29_conf1.geo_285_180_180 geometry
 --------------------------------------------
 Charge =  1 Multiplicity = 1

 SCF Done:  E(RB3LYP) =  -1548.86970571     A.U. after   15 cycles

 The electronic state is 1-A.
 Alpha  occ. eigenvalues -- -101.63122 -88.97572 -14.67350 -14.48403 -10.43964
 Alpha  occ. eigenvalues --  -10.36621 -10.36371 -10.34353 -10.34018 -10.33713
 Alpha  occ. eigenvalues --  -10.31492 -10.31197 -10.29787 -10.29073 -10.28932
 Alpha  occ. eigenvalues --  -10.28424 -10.28255 -10.28189 -10.27547  -9.54743
 Alpha  occ. eigenvalues --   -8.03640  -7.31142  -7.30164  -7.30142  -6.00152
 Alpha  occ. eigenvalues --   -5.99783  -5.99118  -1.21479  -1.07980  -0.98008
 Alpha  occ. eigenvalues --   -0.97342  -0.94958  -0.93257  -0.88575  -0.86986
 Alpha  occ. eigenvalues --   -0.86034  -0.83219  -0.82814  -0.80579  -0.79884
 Alpha  occ. eigenvalues --   -0.77133  -0.75706  -0.72759  -0.71281  -0.70200
 Alpha  occ. eigenvalues --   -0.68809  -0.65611  -0.64995  -0.63002  -0.61718
 Alpha  occ. eigenvalues --   -0.58781  -0.57949  -0.57500  -0.56622  -0.56466
 Alpha  occ. eigenvalues --   -0.54886  -0.53604  -0.53124  -0.52690  -0.51165
 Alpha  occ. eigenvalues --   -0.50682  -0.50242  -0.48216  -0.47324  -0.46939
 Alpha  occ. eigenvalues --   -0.45365  -0.44177  -0.43303  -0.41851  -0.40658
 Alpha  occ. eigenvalues --   -0.39684  -0.37882  -0.35180  -0.33911  -0.31866
 Alpha  occ. eigenvalues --   -0.27556
 Alpha virt. eigenvalues --   -0.17377  -0.11091  -0.11002  -0.10861  -0.10419
 Alpha virt. eigenvalues --   -0.09685  -0.08549  -0.07459  -0.05985  -0.04926
 Alpha virt. eigenvalues --   -0.04185  -0.03414  -0.01078  -0.00246   0.00860

 Mulliken charges:
               1
     1  N   -0.722466
     2  H    0.432602
     3  H    0.435716
     4  C   -0.218516
     5  H    0.236080
     6  H    0.233247
     7  C   -0.307028
     8  H    0.183277
     9  H    0.187876
    10  C   -0.167955
    11  H    0.189205
    12  H    0.188928
    13  N   -0.601588
    14  C    0.338855
    15  C   -0.173004
    16  H    0.110915
    17  C   -0.083244
    18  Cl  -0.015429
    19  C   -0.114250
    20  H    0.177044
    21  C   -0.176897
    22  H    0.174780
    23  C   -0.121988
    24  S    0.219709
    25  C   -0.127912
    26  C    0.329576
    27  C   -0.171132
    28  H    0.092102
    29  C   -0.142941
    30  H    0.142621
    31  C   -0.112956
    32  H    0.157082
    33  C   -0.174528
    34  H    0.167920
    35  H    0.434300
 Sum of Mulliken charges =   1.00000

 Dipole moment (field-independent basis, Debye):
    X=             -2.4662    Y=             20.8458    Z=             -2.0393  Tot=             21.0900
 Quadrupole moment (field-independent basis, Debye-Ang):
   XX=           -107.9420   YY=             -4.3051   ZZ=           -122.6659
   XY=            -21.0046   XZ=             -0.4185   YZ=             -6.7864

 Normal termination of Gaussian 16 at Sun Jul 18 14:30:54 2021.
 Gaussian 16:  ES64L-G16RevB.01 20-Dec-2017

 --------------------------------------------------------
 #p mp2/aug-cc-pVDZ scf=tight maxdisk=180GB geom=allcheck
 --------------------------------------------------------

 Structure from the checkpoint file:  "SET_328_BBB29_conf1.geo_285_180_180.chk"
 --------------------------------------------
 SET_328_BBB29_conf1.geo_285_180_180 geometry
 --------------------------------------------
 Charge =  1 Multiplicity = 1

                         Standard orientation:
 ---------------------------------------------------------------------
 Center     Atomic      Atomic             Coordinates (Angstroms)
 Number     Number       Type             X           Y           Z
 ---------------------------------------------------------------------
      1          7           0       -1.123958    4.935170   -0.558018
      2          1           0       -0.307507    5.162715   -1.143209
      3          1           0       -1.469559    5.820995   -0.151822
      4          6           0       -0.776031    3.946223    0.514034
      5          1           0       -1.672870    3.816227    1.120032
      6          1           0       -0.005548    4.412000    1.129647
      7          6           0       -0.306160    2.631709   -0.094314
      8          1           0        0.554822    2.811913   -0.741725
      9          1           0       -1.096950    2.218051   -0.725221
     10          6           0        0.066922    1.633730    1.021125
     11          1           0       -0.785019    1.492513    1.689823
     12          1           0        0.877211    2.042931    1.628920
     13          7           0        0.486970    0.303485    0.570778
     14          6           0       -0.511733   -0.641137    0.260795
     15          6           0       -1.856660   -0.256923    0.130146
     16          1           0       -2.154901    0.772427    0.247452
     17          6           0       -2.834490   -1.206025   -0.153902
     18         17           0       -4.505326   -0.664806   -0.285704
     19          6           0       -2.533224   -2.546232   -0.350130
     20          1           0       -3.305607   -3.267652   -0.582725
     21          6           0       -1.197344   -2.930559   -0.230163
     22          1           0       -0.925338   -3.971585   -0.365242
     23          6           0       -0.204802   -2.009234    0.096544
     24         16           0        1.428399   -2.610721    0.451658
     25          6           0        2.371408   -1.172093   -0.004128
     26          6           0        1.831690    0.119154    0.165396
     27          6           0        2.685923    1.211721   -0.063000
     28          1           0        2.321281    2.221576    0.059726
     29          6           0        4.015361    1.024385   -0.446221
     30          1           0        4.643509    1.894181   -0.602824
     31          6           0        4.523440   -0.256936   -0.641373
     32          1           0        5.550653   -0.408366   -0.952113
     33          6           0        3.687691   -1.352361   -0.426071
     34          1           0        4.060894   -2.361929   -0.561015
     35          1           0       -1.861951    4.574115   -1.181020
 ---------------------------------------------------------------------

 SCF Done:  E(RHF) =  -1543.11398183     A.U. after   17 cycles
