 Gaussian 16, Revision B.01,

 -----------------------------------------------------------
 #p b3lyp/6-31G(d) opt freq scrf=(iefpcm,read,solvent=water)
 -----------------------------------------------------------

 --------------------------------------------
 SET_328_BBB20_conf1.geo_090_075_060 geometry
 --------------------------------------------
 Symbolic Z-matrix:
 Charge =  1 Multiplicity = 1

 SCF Done:  E(RB3LYP) =  -769.778080101     A.U. after   13 cycles
 SCF Done:  E(RB3LYP) =  -769.812245874     A.U. after   11 cycles
 SCF Done:  E(RB3LYP) =  -769.826326352     A.U. after   11 cycles
 SCF Done:  E(RB3LYP) =  -769.827082640     A.U. after   11 cycles
 SCF Done:  E(RB3LYP) =  -769.828444341     A.U. after   10 cycles
 SCF Done:  E(RB3LYP) =  -769.823339615     A.U. after   13 cycles
 SCF Done:  E(RB3LYP) =  -769.829172981     A.U. after   10 cycles
 SCF Done:  E(RB3LYP) =  -769.828948690     A.U. after   11 cycles
 SCF Done:  E(RB3LYP) =  -769.829532274     A.U. after   10 cycles
 SCF Done:  E(RB3LYP) =  -769.828762409     A.U. after   10 cycles
 SCF Done:  E(RB3LYP) =  -769.829704701     A.U. after    8 cycles
 SCF Done:  E(RB3LYP) =  -769.829696013     A.U. after    8 cycles
 SCF Done:  E(RB3LYP) =  -769.829706386     A.U. after    7 cycles
 SCF Done:  E(RB3LYP) =  -769.829702211     A.U. after    7 cycles
 SCF Done:  E(RB3LYP) =  -769.829699964     A.U. after    7 cycles
 SCF Done:  E(RB3LYP) =  -769.829699117     A.U. after    7 cycles
 Optimization completed.
    -- Stationary point found.
 Normal termination of Gaussian 16 at Sun Jul 18 13:59:24 2021.

 --------------------------------------------------------------------
 #P Geom=AllCheck Guess=TCheck SCRF=Check GenChk RB3LYP/6-31G(d) Freq
 --------------------------------------------------------------------

 Structure from the checkpoint file:  "SET_328_BBB20_conf1.geo_090_075_060.chk"
 --------------------------------------------
 SET_328_BBB20_conf1.geo_090_075_060 geometry
 --------------------------------------------
 Charge =  1 Multiplicity = 1

 SCF Done:  E(RB3LYP) =  -769.829699117     A.U. after    1 cycles

  Exact polarizability: 310.896 -23.692 215.093  19.753  48.180 238.302
 Approx polarizability: 327.082 -21.772 237.010  23.793  59.117 274.544

                      1                      2                      3
                      A                      A                      A
 Frequencies --     40.0865                43.6357                78.1888
 Red. masses --      4.3280                 3.8304                 3.7848
 Frc consts  --      0.0041                 0.0043                 0.0136
 IR Inten    --      5.7502                 5.8759                17.4169

                      4                      5                      6
                      A                      A                      A
 Frequencies --     98.4377               112.8534               142.2605
 Red. masses --      3.7255                 3.0085                 2.8907
 Frc consts  --      0.0213                 0.0226                 0.0345
 IR Inten    --      4.5402                 7.1880                11.2109

                      7                      8                      9
                      A                      A                      A
 Frequencies --    159.9965               165.4046               194.8292
 Red. masses --      2.9323                 2.8725                 3.1301
 Frc consts  --      0.0442                 0.0463                 0.0700
 IR Inten    --      5.5347                 8.9952                16.9654

                     10                     11                     12
                      A                      A                      A
 Frequencies --    257.9618               294.0405               309.8946
 Red. masses --      3.4099                 2.4347                 2.6355
 Frc consts  --      0.1337                 0.1240                 0.1491
 IR Inten    --      2.2765                 2.2554                 2.2512

                     13                     14                     15
                      A                      A                      A
 Frequencies --    324.7281               337.5016               346.9070
 Red. masses --      3.2181                 3.0600                 1.5930
 Frc consts  --      0.1999                 0.2054                 0.1129
 IR Inten    --      3.4496                 2.3714                 1.6591

                     16                     17                     18
                      A                      A                      A
 Frequencies --    375.0656               413.4346               450.4230
 Red. masses --      2.3849                 2.3490                 2.8225
 Frc consts  --      0.1977                 0.2366                 0.3374
 IR Inten    --      2.3568                 6.4431                 4.8895

                     19                     20                     21
                      A                      A                      A
 Frequencies --    465.4313               478.5146               495.1580
 Red. masses --      3.4327                 3.0568                 3.2317
 Frc consts  --      0.4381                 0.4124                 0.4668
 IR Inten    --      4.2198                 0.9826                12.7136

                     22                     23                     24
                      A                      A                      A
 Frequencies --    511.6941               553.8203               572.5530
 Red. masses --      3.0457                 3.7204                 4.6194
 Frc consts  --      0.4698                 0.6723                 0.8922
 IR Inten    --      3.4085                 2.8270                 0.4061

                     25                     26                     27
                      A                      A                      A
 Frequencies --    592.1931               607.9595               623.7108
 Red. masses --      3.4545                 2.9995                 5.9342
 Frc consts  --      0.7138                 0.6532                 1.3601
 IR Inten    --      3.9094                23.1896                 5.0084

                     28                     29                     30
                      A                      A                      A
 Frequencies --    690.2558               730.1178               746.0399
 Red. masses --      4.9585                 3.1968                 2.2505
 Frc consts  --      1.3919                 1.0040                 0.7380
 IR Inten    --      4.2422                 5.9499                 9.0692

                     31                     32                     33
                      A                      A                      A
 Frequencies --    763.3804               769.6384               781.7229
 Red. masses --      1.9207                 1.5908                 1.7394
 Frc consts  --      0.6595                 0.5552                 0.6262
 IR Inten    --     66.3080                21.8729                52.9054

                     34                     35                     36
                      A                      A                      A
 Frequencies --    791.3214               806.5350               826.7380
 Red. masses --      2.1634                 3.2391                 2.3441
 Frc consts  --      0.7982                 1.2414                 0.9440
 IR Inten    --      8.8987                 3.7586                19.5076

                     37                     38                     39
                      A                      A                      A
 Frequencies --    867.2928               880.2971               888.2645
 Red. masses --      1.7854                 1.8935                 1.3950
 Frc consts  --      0.7913                 0.8645                 0.6485
 IR Inten    --      1.4298                11.1823                 4.0371

                     40                     41                     42
                      A                      A                      A
 Frequencies --    926.1289               931.7300               950.3978
 Red. masses --      1.6269                 2.1507                 1.6138
 Frc consts  --      0.8221                 1.1000                 0.8588
 IR Inten    --     12.5786                41.6759                10.9798

                     43                     44                     45
                      A                      A                      A
 Frequencies --    954.4734               959.9346               983.3729
 Red. masses --      1.5676                 1.6436                 1.3579
 Frc consts  --      0.8414                 0.8923                 0.7737
 IR Inten    --      5.7641                 1.5457                 0.2786

                     46                     47                     48
                      A                      A                      A
 Frequencies --    985.5614               989.5358              1015.7744
 Red. masses --      1.9136                 1.2603                 1.7401
 Frc consts  --      1.0952                 0.7271                 1.0578
 IR Inten    --      0.9905                 0.1420                11.0388

                     49                     50                     51
                      A                      A                      A
 Frequencies --   1048.6491              1055.0555              1072.1286
 Red. masses --      2.0833                 2.4973                 2.6208
 Frc consts  --      1.3498                 1.6379                 1.7749
 IR Inten    --      1.1451                 5.9098                 6.3609

                     52                     53                     54
                      A                      A                      A
 Frequencies --   1081.0983              1085.7181              1131.4307
 Red. masses --      2.5619                 2.1504                 1.6667
 Frc consts  --      1.7642                 1.4935                 1.2571
 IR Inten    --     28.2231                13.4126                 5.6705

                     55                     56                     57
                      A                      A                      A
 Frequencies --   1136.9835              1153.8841              1156.5679
 Red. masses --      2.0034                 1.7100                 1.8374
 Frc consts  --      1.5259                 1.3415                 1.4481
 IR Inten    --     58.1630                31.8374                58.9291

                     58                     59                     60
                      A                      A                      A
 Frequencies --   1188.6688              1190.6393              1197.7503
 Red. masses --      1.1852                 1.1201                 1.1902
 Frc consts  --      0.9866                 0.9356                 1.0060
 IR Inten    --      0.7689                 1.6072                 7.0265

                     61                     62                     63
                      A                      A                      A
 Frequencies --   1204.4444              1231.5201              1244.5770
 Red. masses --      1.6977                 2.4152                 1.7815
 Frc consts  --      1.4510                 2.1581                 1.6259
 IR Inten    --      7.4241                11.0498                75.3575

                     64                     65                     66
                      A                      A                      A
 Frequencies --   1252.5735              1262.9125              1293.1877
 Red. masses --      2.0650                 1.5790                 1.4361
 Frc consts  --      1.9088                 1.4838                 1.4150
 IR Inten    --     93.5702                94.3751                34.3487

                     67                     68                     69
                      A                      A                      A
 Frequencies --   1317.2490              1325.1671              1337.8733
 Red. masses --      1.4681                 1.6947                 6.8542
 Frc consts  --      1.5009                 1.7534                 7.2283
 IR Inten    --     17.8741                16.3671                58.2354

                     70                     71                     72
                      A                      A                      A
 Frequencies --   1358.2939              1362.9949              1376.9539
 Red. masses --      2.5251                 1.8475                 1.5369
 Frc consts  --      2.7448                 2.0222                 1.7169
 IR Inten    --     18.0217                54.9740                10.7777

                     73                     74                     75
                      A                      A                      A
 Frequencies --   1387.9265              1399.8800              1409.3420
 Red. masses --      1.3904                 1.4426                 1.3915
 Frc consts  --      1.5781                 1.6656                 1.6284
 IR Inten    --    103.3760                16.9724                16.9658

                     76                     77                     78
                      A                      A                      A
 Frequencies --   1416.8504              1449.2646              1484.5356
 Red. masses --      1.2560                 1.3659                 1.1288
 Frc consts  --      1.4856                 1.6903                 1.4658
 IR Inten    --     29.1791                13.5757                34.9602

                     79                     80                     81
                      A                      A                      A
 Frequencies --   1487.0493              1495.2922              1499.2142
 Red. masses --      2.0134                 1.1816                 1.7843
 Frc consts  --      2.6232                 1.5565                 2.3630
 IR Inten    --     31.2683                22.4439                23.0148

                     82                     83                     84
                      A                      A                      A
 Frequencies --   1507.6460              1519.2846              1531.2201
 Red. masses --      1.3059                 1.1402                 1.2290
 Frc consts  --      1.7488                 1.5507                 1.6978
 IR Inten    --     42.2368                94.7878                28.5523

                     85                     86                     87
                      A                      A                      A
 Frequencies --   1531.4453              1535.5156              1541.3450
 Red. masses --      1.7080                 1.1524                 2.5517
 Frc consts  --      2.3601                 1.6009                 3.5717
 IR Inten    --    190.1129               189.2215                28.0031

                     88                     89                     90
                      A                      A                      A
 Frequencies --   1621.5909              1636.2013              1637.4633
 Red. masses --      5.7261                 6.1234                 1.0517
 Frc consts  --      8.8714                 9.6586                 1.6614
 IR Inten    --     29.8352                13.4907                66.2430

                     91                     92                     93
                      A                      A                      A
 Frequencies --   1651.1376              1658.3476              1672.6455
 Red. masses --      5.6132                 5.7320                 1.0396
 Frc consts  --      9.0162                 9.2877                 1.7137
 IR Inten    --     46.7084                12.1044                73.0094

                     94                     95                     96
                      A                      A                      A
 Frequencies --   3037.6897              3064.4675              3066.1373
 Red. masses --      1.0656                 1.0648                 1.0682
 Frc consts  --      5.7935                 5.8917                 5.9166
 IR Inten    --     50.7689                29.5358                32.0273

                     97                     98                     99
                      A                      A                      A
 Frequencies --   3080.7368              3112.0836              3116.7278
 Red. masses --      1.0902                 1.0906                 1.1010
 Frc consts  --      6.0965                 6.2234                 6.3012
 IR Inten    --     95.1400                 7.0126                63.5439

                    100                    101                    102
                      A                      A                      A
 Frequencies --   3119.5959              3144.4890              3167.9113
 Red. masses --      1.0723                 1.0604                 1.0994
 Frc consts  --      6.1485                 6.1779                 6.5007
 IR Inten    --     54.7801                20.1772                45.2850

                    103                    104                    105
                      A                      A                      A
 Frequencies --   3179.0415              3195.0171              3197.2045
 Red. masses --      1.0880                 1.0869                 1.0879
 Frc consts  --      6.4785                 6.5370                 6.5522
 IR Inten    --     26.1124                15.7906                15.5327

                    106                    107                    108
                      A                      A                      A
 Frequencies --   3198.1738              3204.4596              3213.2581
 Red. masses --      1.1093                 1.0876                 1.0925
 Frc consts  --      6.6848                 6.5803                 6.6461
 IR Inten    --     13.8955                 6.2506                52.1700

                    109                    110                    111
                      A                      A                      A
 Frequencies --   3216.8519              3226.0965              3229.9734
 Red. masses --      1.0944                 1.0974                 1.0923
 Frc consts  --      6.6725                 6.7290                 6.7139
 IR Inten    --     51.7616                42.4696                30.0878

                    112                    113                    114
                      A                      A                      A
 Frequencies --   3397.1837              3460.4300              3481.2654
 Red. masses --      1.0342                 1.0947                 1.0919
 Frc consts  --      7.0321                 7.7236                 7.7969
 IR Inten    --    103.3310               271.3432               243.7920

 - Thermochemistry -
 -------------------
 Temperature   298.150 Kelvin.  Pressure   1.00000 Atm.
 Atom     1 has atomic number  7 and mass  14.00307

 Molecular mass:   253.17047 amu.
 Principal axes and moments of inertia in atomic units:
                           1         2         3
     Eigenvalues --  3487.214145659.737826949.15730
           X            0.99968   0.02534  -0.00051
           Y           -0.02532   0.99955   0.01593
           Z            0.00091  -0.01591   0.99987
 This molecule is an asymmetric top.
 Rotational symmetry number  1.
 Warning -- assumption of classical behavior for rotation
           may cause significant error
 Rotational temperatures (Kelvin)      0.02484     0.01530     0.01246
 Rotational constants (GHZ):           0.51753     0.31887     0.25971
 Zero-point vibrational energy     930297.0 (Joules/Mol)
                                  222.34632 (Kcal/Mol)
 Warning -- explicit consideration of  26 degrees of freedom as
           vibrations may cause significant error
 Vibrational temperatures:     57.68    62.78   112.50   141.63   162.37
          (Kelvin)            204.68   230.20   237.98   280.32   371.15
                              423.06   445.87   467.21   485.59   499.12
                              539.64   594.84   648.06   669.65   688.48
                              712.42   736.21   796.82   823.78   852.03
                              874.72   897.38   993.12  1050.48  1073.39
                             1098.33  1107.34  1124.72  1138.54  1160.42
                             1189.49  1247.84  1266.55  1278.01  1332.49
                             1340.55  1367.41  1373.27  1381.13  1414.85
                             1418.00  1423.72  1461.47  1508.77  1517.99
                             1542.55  1555.46  1562.11  1627.88  1635.87
                             1660.18  1664.04  1710.23  1713.06  1723.30
                             1732.93  1771.88  1790.67  1802.17  1817.05
                             1860.61  1895.23  1906.62  1924.90  1954.28
                             1961.05  1981.13  1996.92  2014.12  2027.73
                             2038.53  2085.17  2135.92  2139.53  2151.39
                             2157.03  2169.17  2185.91  2203.08  2203.41
                             2209.26  2217.65  2333.11  2354.13  2355.94
                             2375.62  2385.99  2406.56  4370.56  4409.09
                             4411.49  4432.49  4477.59  4484.28  4488.40
                             4524.22  4557.92  4573.93  4596.92  4600.06
                             4601.46  4610.50  4623.16  4628.33  4641.63
                             4647.21  4887.79  4978.79  5008.76

 Zero-point correction=                           0.354331 (Hartree/Particle)
 Thermal correction to Energy=                    0.370535
 Thermal correction to Enthalpy=                  0.371479
 Thermal correction to Gibbs Free Energy=         0.310834
 Sum of electronic and zero-point Energies=           -769.475368
 Sum of electronic and thermal Energies=              -769.459164
 Sum of electronic and thermal Enthalpies=            -769.458220
 Sum of electronic and thermal Free Energies=         -769.518865

                     E (Thermal)             CV                S
                      KCal/Mol        Cal/Mol-Kelvin    Cal/Mol-Kelvin
 Total                  232.514             66.081            127.638
 Electronic               0.000              0.000              0.000
 Translational            0.889              2.981             42.487
 Rotational               0.889              2.981             33.283
 Vibrational            230.737             60.119             51.868
 Vibration     1          0.594              1.981              5.255
 Vibration     2          0.595              1.980              5.087
 Vibration     3          0.599              1.964              3.936
 Vibration     4          0.604              1.950              3.485
 Vibration     5          0.607              1.939              3.219
 Vibration     6          0.616              1.911              2.773
 Vibration     7          0.622              1.891              2.550
 Vibration     8          0.624              1.885              2.487
 Vibration     9          0.635              1.847              2.181
 Vibration    10          0.667              1.749              1.676
 Vibration    11          0.689              1.685              1.451
 Vibration    12          0.699              1.655              1.363
 Vibration    13          0.709              1.626              1.286
 Vibration    14          0.718              1.601              1.224
 Vibration    15          0.725              1.582              1.180
 Vibration    16          0.746              1.523              1.059
 Vibration    17          0.777              1.441              0.915
 Vibration    18          0.809              1.360              0.794
 Vibration    19          0.823              1.327              0.750
 Vibration    20          0.835              1.298              0.714
 Vibration    21          0.851              1.261              0.670
 Vibration    22          0.867              1.224              0.630
 Vibration    23          0.909              1.131              0.536
 Vibration    24          0.929              1.091              0.499
 Vibration    25          0.950              1.048              0.463
 Vibration    26          0.967              1.015              0.436

 Optimization completed.
    -- Stationary point found.
 Normal termination of Gaussian 16 at Sun Jul 18 14:17:49 2021.

 ----------------------------------------------------------------------
 #p b3lyp/6-31G(d) scrf=(iefpcm,read,solvent=water) geom=allcheck guess
 =read
 ----------------------------------------------------------------------

 Structure from the checkpoint file:  "SET_328_BBB20_conf1.geo_090_075_060.chk"
 --------------------------------------------
 SET_328_BBB20_conf1.geo_090_075_060 geometry
 --------------------------------------------
 Charge =  1 Multiplicity = 1

 SCF Done:  E(RB3LYP) =  -769.829699117     A.U. after    1 cycles
 Normal termination of Gaussian 16 at Sun Jul 18 14:18:03 2021.

 -----------------------------
 #p B3LYP/6-31G* geom=allcheck
 -----------------------------

 Structure from the checkpoint file:  "SET_328_BBB20_conf1.geo_090_075_060.chk"
 --------------------------------------------
 SET_328_BBB20_conf1.geo_090_075_060 geometry
 --------------------------------------------
 Charge =  1 Multiplicity = 1

 SCF Done:  E(RB3LYP) =  -769.721373958     A.U. after   15 cycles
 Normal termination of Gaussian 16 at Sun Jul 18 14:19:16 2021.
 Gaussian 16:  ES64L-G16RevB.01 20-Dec-2017

 --------------------------------------------------------
 #p mp2/aug-cc-pVDZ scf=tight maxdisk=180GB geom=allcheck
 --------------------------------------------------------

 Structure from the checkpoint file:  "SET_328_BBB20_conf1.geo_090_075_060.chk"
 --------------------------------------------
 SET_328_BBB20_conf1.geo_090_075_060 geometry
 --------------------------------------------
 Charge =  1 Multiplicity = 1

                         Standard orientation:
 ---------------------------------------------------------------------
 Center     Atomic      Atomic             Coordinates (Angstroms)
 Number     Number       Type             X           Y           Z
 ---------------------------------------------------------------------
      1          7           0       -2.840749   -2.527969    0.710511
      2          1           0       -2.994736   -1.796726   -0.003029
      3          1           0       -3.557400   -2.394722    1.438672
      4          6           0       -1.455426   -2.456523    1.299102
      5          1           0       -1.444917   -3.158617    2.131402
      6          1           0       -1.340376   -1.446358    1.692054
      7          6           0       -0.373320   -2.802701    0.282930
      8          1           0       -0.535206   -3.821289   -0.089565
      9          1           0        0.575559   -2.815132    0.827450
     10          6           0       -0.254035   -1.851513   -0.923756
     11          1           0       -1.172955   -1.873441   -1.507871
     12          1           0        0.524029   -2.242476   -1.581953
     13          7           0        0.081778   -0.473075   -0.550930
     14          6           0        1.471423   -0.164415   -0.437929
     15          6           0        2.337847   -0.427021   -1.509398
     16          1           0        1.937123   -0.831427   -2.433416
     17          6           0        3.701037   -0.159521   -1.403493
     18          1           0        4.355709   -0.364847   -2.243840
     19          6           0        4.214706    0.386591   -0.225507
     20          1           0        5.274542    0.601610   -0.136872
     21          6           0        3.354179    0.653596    0.838738
     22          1           0        3.743009    1.073213    1.762175
     23          6           0        1.985394    0.372233    0.754982
     24          6           0        1.049671    0.670874    1.893118
     25          1           0        1.631360    0.953918    2.774224
     26          1           0        0.475799   -0.224287    2.158918
     27          6           0        0.090690    1.818273    1.554809
     28          1           0        0.695376    2.698063    1.299245
     29          1           0       -0.462246    2.095287    2.459355
     30          6           0       -0.928094    1.586386    0.449157
     31          6           0       -1.976456    2.519496    0.397379
     32          1           0       -1.979571    3.312971    1.141153
     33          6           0       -3.006150    2.457372   -0.535622
     34          1           0       -3.802154    3.194679   -0.526587
     35          6           0       -2.989887    1.427045   -1.476991
     36          1           0       -3.765377    1.352662   -2.233412
     37          6           0       -1.954624    0.498210   -1.463913
     38          1           0       -1.934350   -0.264254   -2.233111
     39          6           0       -0.916013    0.538432   -0.506638
     40          1           0       -3.016078   -3.442409    0.266133
 ---------------------------------------------------------------------

 SCF Done:  E(RHF) =  -764.751122895     A.U. after   16 cycles
 E2 =    -0.2716346247D+01 EUMP2 =    -0.76746746914196D+03

 The electronic state is 1-A.
 Alpha  occ. eigenvalues --  -15.88255 -15.68631 -11.46338 -11.40333 -11.39692
 Alpha  occ. eigenvalues --  -11.39047 -11.37179 -11.35029 -11.34614 -11.34461
 Alpha  occ. eigenvalues --  -11.34072 -11.33647 -11.33588 -11.33536 -11.33504
 Alpha  occ. eigenvalues --  -11.33150 -11.32762 -11.32723 -11.32509  -1.49084
 Alpha  occ. eigenvalues --   -1.37563  -1.25540  -1.24358  -1.20951  -1.17932
 Alpha  occ. eigenvalues --   -1.12819  -1.12382  -1.10890  -1.08326  -1.04560
 Alpha  occ. eigenvalues --   -0.98757  -0.98290  -0.94756  -0.93963  -0.92357
 Alpha  occ. eigenvalues --   -0.91689  -0.89056  -0.87918  -0.83118  -0.80932
 Alpha  occ. eigenvalues --   -0.79497  -0.77909  -0.75556  -0.75260  -0.74340
 Alpha  occ. eigenvalues --   -0.73737  -0.72922  -0.70852  -0.69872  -0.69130
 Alpha  occ. eigenvalues --   -0.67859  -0.67559  -0.66289  -0.64589  -0.64041
 Alpha  occ. eigenvalues --   -0.63601  -0.62743  -0.61328  -0.60419  -0.58764
 Alpha  occ. eigenvalues --   -0.57732  -0.57230  -0.56984  -0.51844  -0.43581
 Alpha  occ. eigenvalues --   -0.42453  -0.41701  -0.39524
 Alpha virt. eigenvalues --   -0.10073  -0.06981  -0.06409  -0.04850  -0.03554
 Alpha virt. eigenvalues --   -0.03461  -0.03259  -0.02975  -0.02778  -0.01718
 Alpha virt. eigenvalues --   -0.01337  -0.01132  -0.01013  -0.00718  -0.00396

 Mulliken charges:
               1
     1  N   -0.546367
     2  H    0.242502
     3  H    0.193257
     4  C    1.106450
     5  H   -0.130692
     6  H   -0.190564
     7  C    0.502721
     8  H   -0.182935
     9  H   -0.084847
    10  C    0.285091
    11  H   -0.376554
    12  H   -0.192960
    13  N    0.507567
    14  C   -1.003986
    15  C    0.936805
    16  H   -0.712619
    17  C    0.280243
    18  H   -0.461826
    19  C    0.724829
    20  H   -0.452987
    21  C    0.659289
    22  H   -0.618729
    23  C    0.412275
    24  C    0.869291
    25  H   -0.134290
    26  H   -0.257555
    27  C   -0.019739
    28  H    0.057008
    29  H   -0.048456
    30  C   -0.603303
    31  C    0.784382
    32  H   -0.725320
    33  C    0.277730
    34  H   -0.471476
    35  C    0.306838
    36  H   -0.537907
    37  C    1.093097
    38  H   -0.888564
    39  C    0.149371
    40  H    0.252928
 Sum of Mulliken charges =   1.00000

 Dipole moment (field-independent basis, Debye):
    X=             -9.4254    Y=             -9.7857    Z=              3.1364  Tot=             13.9440
 Quadrupole moment (field-independent basis, Debye-Ang):
   XX=            -66.7266   YY=            -76.8718   ZZ=           -100.1562
   XY=             26.3841   XZ=             -6.3251   YZ=             -1.2719

 Normal termination of Gaussian 16 at Sun Jul 18 15:32:29 2021.
