 Gaussian 16, Revision B.01,

 -----------------------------------------------------------
 #p b3lyp/6-31G(d) opt freq scrf=(iefpcm,read,solvent=water)
 -----------------------------------------------------------

 ---------------------------------------------
 SET_328_BBB292_conf1.geo_090_300_120 geometry
 ---------------------------------------------
 Symbolic Z-matrix:
 Charge =  1 Multiplicity = 1

 SCF Done:  E(RB3LYP) =  -705.667417396     A.U. after   13 cycles
 SCF Done:  E(RB3LYP) =  -705.696002430     A.U. after   12 cycles
 SCF Done:  E(RB3LYP) =  -705.705616228     A.U. after   11 cycles
 SCF Done:  E(RB3LYP) =  -705.707364359     A.U. after   11 cycles
 SCF Done:  E(RB3LYP) =  -705.706664196     A.U. after   13 cycles
 SCF Done:  E(RB3LYP) =  -705.708419471     A.U. after   11 cycles
 SCF Done:  E(RB3LYP) =  -705.707765154     A.U. after   12 cycles
 SCF Done:  E(RB3LYP) =  -705.708917471     A.U. after   10 cycles
 SCF Done:  E(RB3LYP) =  -705.708986068     A.U. after   11 cycles
 SCF Done:  E(RB3LYP) =  -705.708587633     A.U. after   11 cycles
 SCF Done:  E(RB3LYP) =  -705.709391414     A.U. after   10 cycles
 SCF Done:  E(RB3LYP) =  -705.709403159     A.U. after    9 cycles
 SCF Done:  E(RB3LYP) =  -705.709408446     A.U. after    8 cycles
 SCF Done:  E(RB3LYP) =  -705.709407806     A.U. after    9 cycles
 SCF Done:  E(RB3LYP) =  -705.709409238     A.U. after    8 cycles
 SCF Done:  E(RB3LYP) =  -705.709408525     A.U. after    7 cycles
 Optimization completed.
    -- Stationary point found.
 Normal termination of Gaussian 16 at Sun Jul 18 14:01:00 2021.

 --------------------------------------------------------------------
 #P Geom=AllCheck Guess=TCheck SCRF=Check GenChk RB3LYP/6-31G(d) Freq
 --------------------------------------------------------------------

 Structure from the checkpoint file:  "SET_328_BBB292_conf1.geo_090_300_120.chk"
 ---------------------------------------------
 SET_328_BBB292_conf1.geo_090_300_120 geometry
 ---------------------------------------------
 Charge =  1 Multiplicity = 1

 SCF Done:  E(RB3LYP) =  -705.709408525     A.U. after    1 cycles

  Exact polarizability: 170.030  -7.259 165.947 -29.372 -10.070  99.547
 Approx polarizability: 191.794  -8.097 194.649 -39.250 -13.932 118.638

                      1                      2                      3
                      A                      A                      A
 Frequencies --     40.7035                63.3621                73.6891
 Red. masses --      6.1661                 6.7499                 7.4759
 Frc consts  --      0.0060                 0.0160                 0.0239
 IR Inten    --     25.2214                23.2729                 3.7866

                      4                      5                      6
                      A                      A                      A
 Frequencies --    106.6894               173.7050               188.1035
 Red. masses --      4.8777                 5.5791                 5.1119
 Frc consts  --      0.0327                 0.0992                 0.1066
 IR Inten    --     24.1249                 2.3858                58.0968

                      7                      8                      9
                      A                      A                      A
 Frequencies --    228.8637               263.7096               305.9769
 Red. masses --      5.1893                 1.0836                 3.5042
 Frc consts  --      0.1601                 0.0444                 0.1933
 IR Inten    --      3.0456               286.8851                14.8251

                     10                     11                     12
                      A                      A                      A
 Frequencies --    313.1404               341.6899               373.0016
 Red. masses --      4.1150                 4.2507                 2.6085
 Frc consts  --      0.2377                 0.2924                 0.2138
 IR Inten    --     11.9022                10.4305                38.3108

                     13                     14                     15
                      A                      A                      A
 Frequencies --    388.2907               404.7839               414.5085
 Red. masses --      1.4435                 1.6582                 1.1408
 Frc consts  --      0.1282                 0.1601                 0.1155
 IR Inten    --    106.8443                14.7221                44.7570

                     16                     17                     18
                      A                      A                      A
 Frequencies --    455.8977               461.6791               486.0025
 Red. masses --      2.5843                 2.1346                 3.1203
 Frc consts  --      0.3165                 0.2681                 0.4342
 IR Inten    --     10.4852                36.9548                26.8789

                     19                     20                     21
                      A                      A                      A
 Frequencies --    504.5838               547.8325               594.8023
 Red. masses --      4.3865                 4.0235                 5.9171
 Frc consts  --      0.6580                 0.7115                 1.2334
 IR Inten    --     23.1662                18.7403                26.3257

                     22                     23                     24
                      A                      A                      A
 Frequencies --    605.4362               645.4472               705.3697
 Red. masses --      3.5975                 4.6456                 5.6949
 Frc consts  --      0.7769                 1.1403                 1.6694
 IR Inten    --     11.4299                 5.8470                 0.1615

                     25                     26                     27
                      A                      A                      A
 Frequencies --    730.2394               770.3703               802.7260
 Red. masses --      5.1695                 4.6482                 5.4196
 Frc consts  --      1.6242                 1.6253                 2.0576
 IR Inten    --      5.4040                26.8083                36.5137

                     28                     29                     30
                      A                      A                      A
 Frequencies --    827.4153               846.7555               883.3705
 Red. masses --      1.8226                 2.1386                 1.5890
 Frc consts  --      0.7352                 0.9034                 0.7306
 IR Inten    --     19.0960                29.6931                48.6039

                     31                     32                     33
                      A                      A                      A
 Frequencies --    894.0355               940.7086               963.1821
 Red. masses --      2.2574                 1.2810                 2.1192
 Frc consts  --      1.0631                 0.6679                 1.1584
 IR Inten    --     16.0839                 0.6562                 8.6291

                     34                     35                     36
                      A                      A                      A
 Frequencies --    975.7925              1054.4156              1104.0049
 Red. masses --      3.1046                 2.1317                 1.7217
 Frc consts  --      1.7417                 1.3964                 1.2363
 IR Inten    --     13.6780                45.8272                43.5824

                     37                     38                     39
                      A                      A                      A
 Frequencies --   1135.0921              1142.1372              1180.8325
 Red. masses --      1.4749                 1.7148                 1.6788
 Frc consts  --      1.1196                 1.3180                 1.3792
 IR Inten    --     78.7082               161.7003               111.4085

                     40                     41                     42
                      A                      A                      A
 Frequencies --   1194.7931              1228.7773              1234.4203
 Red. masses --      1.4032                 1.5264                 1.4151
 Frc consts  --      1.1802                 1.3579                 1.2704
 IR Inten    --     27.1184               158.9381                84.7808

                     43                     44                     45
                      A                      A                      A
 Frequencies --   1263.7274              1295.5978              1310.0133
 Red. masses --      1.2235                 2.5287                 1.7921
 Frc consts  --      1.1512                 2.5009                 1.8121
 IR Inten    --    137.4780               205.8953               268.6898

                     46                     47                     48
                      A                      A                      A
 Frequencies --   1327.3001              1345.8830              1392.7809
 Red. masses --      2.7027                 2.2200                 1.3895
 Frc consts  --      2.8053                 2.3693                 1.5880
 IR Inten    --    225.4670               171.1936               190.9086

                     49                     50                     51
                      A                      A                      A
 Frequencies --   1398.2637              1414.2696              1429.7796
 Red. masses --      1.6308                 1.5025                 2.5758
 Frc consts  --      1.8786                 1.7706                 3.1024
 IR Inten    --     17.7968                89.0600                31.8913

                     52                     53                     54
                      A                      A                      A
 Frequencies --   1488.7064              1503.3929              1536.4129
 Red. masses --      3.4495                 1.0973                 1.1651
 Frc consts  --      4.5043                 1.4612                 1.6204
 IR Inten    --    145.5832                30.5194               227.3574

                     55                     56                     57
                      A                      A                      A
 Frequencies --   1583.0282              1644.6436              1662.1954
 Red. masses --      2.7789                 1.0617                 4.8495
 Frc consts  --      4.1030                 1.6920                 7.8943
 IR Inten    --    146.3431                92.5286                25.4679

                     58                     59                     60
                      A                      A                      A
 Frequencies --   1667.2658              1671.3636              1824.9023
 Red. masses --      6.1112                 1.0701                 9.5640
 Frc consts  --     10.0089                 1.7612                18.7659
 IR Inten    --     36.7592               104.6289               406.8111

                     61                     62                     63
                      A                      A                      A
 Frequencies --   3097.8256              3145.4850              3162.8472
 Red. masses --      1.0614                 1.1040                 1.0858
 Frc consts  --      6.0014                 6.4358                 6.3999
 IR Inten    --     29.2908                11.0493                 4.7712

                     64                     65                     66
                      A                      A                      A
 Frequencies --   3202.9409              3212.1101              3232.5613
 Red. masses --      1.0912                 1.0885                 1.0938
 Frc consts  --      6.5958                 6.6172                 6.7340
 IR Inten    --     14.3517                17.1583                17.0352

                     67                     68                     69
                      A                      A                      A
 Frequencies --   3329.3475              3375.3745              3438.5923
 Red. masses --      1.0382                 1.0940                 1.0890
 Frc consts  --      6.7805                 7.3434                 7.5867
 IR Inten    --    142.7630               284.0173               290.9356

                     70                     71                     72
                      A                      A                      A
 Frequencies --   3685.1354              3732.0758              3734.1821
 Red. masses --      1.0654                 1.0666                 1.0666
 Frc consts  --      8.5243                 8.7530                 8.7632
 IR Inten    --    236.4630               250.0801               164.5428

 - Thermochemistry -
 -------------------
 Temperature   298.150 Kelvin.  Pressure   1.00000 Atm.
 Atom     1 has atomic number  7 and mass  14.00307

 Molecular mass:   198.07663 amu.
 Principal axes and moments of inertia in atomic units:
                           1         2         3
     Eigenvalues --  1534.516754247.312174989.15545
           X            0.99969  -0.02495   0.00183
           Y            0.02497   0.99959  -0.01370
           Z           -0.00148   0.01374   0.99990
 This molecule is an asymmetric top.
 Rotational symmetry number  1.
 Warning -- assumption of classical behavior for rotation
           may cause significant error
 Rotational temperatures (Kelvin)      0.05644     0.02039     0.01736
 Rotational constants (GHZ):           1.17610     0.42491     0.36173
 Zero-point vibrational energy     560476.4 (Joules/Mol)
                                  133.95708 (Kcal/Mol)
 Warning -- explicit consideration of  22 degrees of freedom as
           vibrations may cause significant error
 Vibrational temperatures:     58.56    91.16   106.02   153.50   249.92
          (Kelvin)            270.64   329.28   379.42   440.23   450.54
                              491.62   536.67   558.66   582.39   596.39
                              655.94   664.25   699.25   725.98   788.21
                              855.79   871.09   928.65  1014.87  1050.65
                             1108.39  1154.94  1190.47  1218.29  1270.97
                             1286.32  1353.47  1385.80  1403.95  1517.07
                             1588.42  1633.14  1643.28  1698.95  1719.04
                             1767.94  1776.06  1818.22  1864.08  1884.82
                             1909.69  1936.43  2003.90  2011.79  2034.82
                             2057.13  2141.92  2163.05  2210.56  2277.62
                             2366.28  2391.53  2398.82  2404.72  2625.63
                             4457.08  4525.65  4550.63  4608.32  4621.51
                             4650.93  4790.19  4856.41  4947.37  5302.09
                             5369.62  5372.66

 Zero-point correction=                           0.213474 (Hartree/Particle)
 Thermal correction to Energy=                    0.226734
 Thermal correction to Enthalpy=                  0.227678
 Thermal correction to Gibbs Free Energy=         0.173530
 Sum of electronic and zero-point Energies=           -705.495934
 Sum of electronic and thermal Energies=              -705.482675
 Sum of electronic and thermal Enthalpies=            -705.481731
 Sum of electronic and thermal Free Energies=         -705.535878

                     E (Thermal)             CV                S
                      KCal/Mol        Cal/Mol-Kelvin    Cal/Mol-Kelvin
 Total                  142.278             51.180            113.964
 Electronic               0.000              0.000              0.000
 Translational            0.889              2.981             41.755
 Rotational               0.889              2.981             31.853
 Vibrational            140.500             45.218             40.355
 Vibration     1          0.594              1.981              5.225
 Vibration     2          0.597              1.972              4.350
 Vibration     3          0.599              1.966              4.052
 Vibration     4          0.606              1.944              3.328
 Vibration     5          0.627              1.875              2.395
 Vibration     6          0.633              1.856              2.246
 Vibration     7          0.652              1.797              1.888
 Vibration     8          0.670              1.739              1.637
 Vibration     9          0.696              1.662              1.384
 Vibration    10          0.701              1.649              1.346
 Vibration    11          0.721              1.592              1.204
 Vibration    12          0.744              1.528              1.067
 Vibration    13          0.756              1.495              1.007
 Vibration    14          0.770              1.460              0.945
 Vibration    15          0.778              1.439              0.911
 Vibration    16          0.814              1.348              0.778
 Vibration    17          0.819              1.335              0.761
 Vibration    18          0.842              1.281              0.694
 Vibration    19          0.860              1.240              0.647
 Vibration    20          0.903              1.144              0.549
 Vibration    21          0.952              1.043              0.459
 Vibration    22          0.964              1.020              0.440

 Optimization completed.
    -- Stationary point found.
 Normal termination of Gaussian 16 at Sun Jul 18 14:07:20 2021.

 ----------------------------------------------------------------------
 #p b3lyp/6-31G(d) scrf=(iefpcm,read,solvent=water) geom=allcheck guess
 =read
 ----------------------------------------------------------------------

 Structure from the checkpoint file:  "SET_328_BBB292_conf1.geo_090_300_120.chk"
 ---------------------------------------------
 SET_328_BBB292_conf1.geo_090_300_120 geometry
 ---------------------------------------------
 Charge =  1 Multiplicity = 1

 SCF Done:  E(RB3LYP) =  -705.709408525     A.U. after    1 cycles
 Normal termination of Gaussian 16 at Sun Jul 18 14:07:27 2021.

 -----------------------------
 #p B3LYP/6-31G* geom=allcheck
 -----------------------------

 Structure from the checkpoint file:  "SET_328_BBB292_conf1.geo_090_300_120.chk"
 ---------------------------------------------
 SET_328_BBB292_conf1.geo_090_300_120 geometry
 ---------------------------------------------
 Charge =  1 Multiplicity = 1

 SCF Done:  E(RB3LYP) =  -705.558217229     A.U. after   15 cycles

 The electronic state is 1-A.
 Alpha  occ. eigenvalues --  -19.37310 -19.30810 -19.29788 -19.28570 -14.67894
 Alpha  occ. eigenvalues --  -10.49492 -10.45108 -10.37700 -10.37075 -10.36774
 Alpha  occ. eigenvalues --  -10.33557 -10.32303 -10.32213 -10.31083  -1.27749
 Alpha  occ. eigenvalues --   -1.21839  -1.19375  -1.18347  -1.15931  -0.99712
 Alpha  occ. eigenvalues --   -0.96395  -0.89126  -0.87235  -0.83204  -0.80566
 Alpha  occ. eigenvalues --   -0.79997  -0.79133  -0.76531  -0.73621  -0.72012
 Alpha  occ. eigenvalues --   -0.67773  -0.66797  -0.65363  -0.62611  -0.60833
 Alpha  occ. eigenvalues --   -0.59937  -0.58238  -0.57839  -0.56678  -0.55802
 Alpha  occ. eigenvalues --   -0.54701  -0.53571  -0.52658  -0.50675  -0.48797
 Alpha  occ. eigenvalues --   -0.48123  -0.47684  -0.46362  -0.45365  -0.43774
 Alpha  occ. eigenvalues --   -0.36702  -0.33468
 Alpha virt. eigenvalues --   -0.18733  -0.16675  -0.12786  -0.12558  -0.11625
 Alpha virt. eigenvalues --   -0.11395  -0.07622  -0.05510  -0.05048  -0.03678
 Alpha virt. eigenvalues --   -0.02565   0.00334   0.00735   0.01627   0.02097

 Mulliken charges:
               1
     1  N   -0.745983
     2  H    0.438764
     3  H    0.430555
     4  C   -0.145957
     5  C    0.631160
     6  O   -0.517710
     7  H    0.407131
     8  O   -0.397371
     9  H    0.252735
    10  C   -0.384537
    11  H    0.184273
    12  H    0.240153
    13  C    0.121585
    14  C   -0.261019
    15  H    0.163083
    16  C    0.323709
    17  O   -0.655971
    18  H    0.436019
    19  C    0.340458
    20  O   -0.625950
    21  H    0.444615
    22  C   -0.164246
    23  H    0.178168
    24  C   -0.231835
    25  H    0.126907
    26  H    0.411265
 Sum of Mulliken charges =   1.00000

 Dipole moment (field-independent basis, Debye):
    X=              8.3224    Y=             -6.3188    Z=              3.7702  Tot=             11.1088
 Quadrupole moment (field-independent basis, Debye-Ang):
   XX=            -51.3193   YY=            -60.6768   ZZ=            -70.1878
   XY=            -28.5655   XZ=             11.2779   YZ=             -6.5588

 Normal termination of Gaussian 16 at Sun Jul 18 14:07:56 2021.
 Gaussian 16:  ES64L-G16RevB.01 20-Dec-2017

 --------------------------------------------------------
 #p mp2/aug-cc-pVDZ scf=tight maxdisk=180GB geom=allcheck
 --------------------------------------------------------

 Structure from the checkpoint file:  "SET_328_BBB292_conf1.geo_090_300_120.chk"
 ---------------------------------------------
 SET_328_BBB292_conf1.geo_090_300_120 geometry
 ---------------------------------------------
 Charge =  1 Multiplicity = 1

                         Standard orientation:
 ---------------------------------------------------------------------
 Center     Atomic      Atomic             Coordinates (Angstroms)
 Number     Number       Type             X           Y           Z
 ---------------------------------------------------------------------
      1          7           0        2.418740   -1.547539    0.901728
      2          1           0        2.539021   -2.515385    0.542007
      3          1           0        3.166187   -1.393166    1.599028
      4          6           0        2.485687   -0.570984   -0.236052
      5          6           0        2.512812    0.901978    0.191149
      6          8           0        2.195004    1.273515    1.434872
      7          1           0        1.894812    0.552049    2.017903
      8          8           0        2.816895    1.736302   -0.633355
      9          1           0        3.444467   -0.752683   -0.719838
     10          6           0        1.356317   -0.850916   -1.254256
     11          1           0        1.487412   -1.876733   -1.609681
     12          1           0        1.554944   -0.192337   -2.102717
     13          6           0       -0.052954   -0.659505   -0.737715
     14          6           0       -0.620574    0.626169   -0.676722
     15          1           0       -0.052310    1.488785   -1.010578
     16          6           0       -1.917230    0.803896   -0.208495
     17          8           0       -2.563914    2.003703   -0.117335
     18          1           0       -1.992931    2.724390   -0.436876
     19          6           0       -2.678575   -0.307229    0.208049
     20          8           0       -3.951266   -0.132719    0.660876
     21          1           0       -4.159315    0.818672    0.612829
     22          6           0       -2.125057   -1.580556    0.142246
     23          1           0       -2.724486   -2.428329    0.452571
     24          6           0       -0.820227   -1.755260   -0.330120
     25          1           0       -0.408976   -2.756598   -0.397728
     26          1           0        1.505056   -1.527869    1.392013
 ---------------------------------------------------------------------

 SCF Done:  E(RHF) =  -701.566041840     A.U. after   16 cycles
