 Gaussian 16, Revision B.01,

 -----------------------------------------------------------
 #p b3lyp/6-31G(d) opt freq scrf=(iefpcm,read,solvent=water)
 -----------------------------------------------------------

 --------------------------------------------
 SET_328_BBB20_conf1.geo_060_180_060 geometry
 --------------------------------------------
 Symbolic Z-matrix:
 Charge =  1 Multiplicity = 1

 SCF Done:  E(RB3LYP) =  -769.783244910     A.U. after   12 cycles
 SCF Done:  E(RB3LYP) =  -769.814692369     A.U. after   11 cycles
 SCF Done:  E(RB3LYP) =  -769.827463578     A.U. after   11 cycles
 SCF Done:  E(RB3LYP) =  -769.829255501     A.U. after   10 cycles
 SCF Done:  E(RB3LYP) =  -769.829482220     A.U. after   10 cycles
 SCF Done:  E(RB3LYP) =  -769.829833385     A.U. after    9 cycles
 SCF Done:  E(RB3LYP) =  -769.830239754     A.U. after   11 cycles
 SCF Done:  E(RB3LYP) =  -769.831116106     A.U. after   10 cycles
 SCF Done:  E(RB3LYP) =  -769.831566379     A.U. after   10 cycles
 SCF Done:  E(RB3LYP) =  -769.831489203     A.U. after   10 cycles
 SCF Done:  E(RB3LYP) =  -769.831713830     A.U. after    7 cycles
 SCF Done:  E(RB3LYP) =  -769.831725089     A.U. after    9 cycles
 SCF Done:  E(RB3LYP) =  -769.831710196     A.U. after    9 cycles
 SCF Done:  E(RB3LYP) =  -769.831710804     A.U. after    7 cycles
 SCF Done:  E(RB3LYP) =  -769.831726757     A.U. after    9 cycles
 SCF Done:  E(RB3LYP) =  -769.831710738     A.U. after    9 cycles
 Optimization completed.
    -- Stationary point found.
 Normal termination of Gaussian 16 at Sun Jul 18 14:03:54 2021.

 --------------------------------------------------------------------
 #P Geom=AllCheck Guess=TCheck SCRF=Check GenChk RB3LYP/6-31G(d) Freq
 --------------------------------------------------------------------

 Structure from the checkpoint file:  "SET_328_BBB20_conf1.geo_060_180_060.chk"
 --------------------------------------------
 SET_328_BBB20_conf1.geo_060_180_060 geometry
 --------------------------------------------
 Charge =  1 Multiplicity = 1

 SCF Done:  E(RB3LYP) =  -769.831710738     A.U. after    1 cycles

  Exact polarizability: 278.144  20.826 289.201  35.813 -31.256 192.018
 Approx polarizability: 294.926  14.073 316.815  41.967 -37.759 219.915

                      1                      2                      3
                      A                      A                      A
 Frequencies --     31.0045                37.9046                56.3731
 Red. masses --      3.7417                 3.9204                 3.7048
 Frc consts  --      0.0021                 0.0033                 0.0069
 IR Inten    --     21.2066                 3.6960                12.4738

                      4                      5                      6
                      A                      A                      A
 Frequencies --     87.9158               108.9475               137.1440
 Red. masses --      3.5285                 2.9297                 3.6593
 Frc consts  --      0.0161                 0.0205                 0.0406
 IR Inten    --      2.7388                 0.8824                11.3757

                      7                      8                      9
                      A                      A                      A
 Frequencies --    161.6857               169.4702               220.4969
 Red. masses --      2.9108                 2.7192                 2.1190
 Frc consts  --      0.0448                 0.0460                 0.0607
 IR Inten    --     11.5946                 0.9650                 3.0399

                     10                     11                     12
                      A                      A                      A
 Frequencies --    263.1831               267.7266               301.7408
 Red. masses --      3.5409                 3.0572                 2.8563
 Frc consts  --      0.1445                 0.1291                 0.1532
 IR Inten    --      5.8480                 4.7654                 4.9493

                     13                     14                     15
                      A                      A                      A
 Frequencies --    317.1642               334.7641               343.8155
 Red. masses --      2.7262                 2.7021                 1.3743
 Frc consts  --      0.1616                 0.1784                 0.0957
 IR Inten    --      0.0703                 4.4532                 0.1264

                     16                     17                     18
                      A                      A                      A
 Frequencies --    367.1790               419.5095               442.6644
 Red. masses --      3.7488                 3.7084                 2.7278
 Frc consts  --      0.2978                 0.3845                 0.3149
 IR Inten    --      5.3212                15.4351                 4.0925

                     19                     20                     21
                      A                      A                      A
 Frequencies --    447.7654               472.9501               486.4109
 Red. masses --      3.1523                 3.0751                 3.8431
 Frc consts  --      0.3724                 0.4053                 0.5357
 IR Inten    --      3.2512                 0.6999                 5.5685

                     22                     23                     24
                      A                      A                      A
 Frequencies --    526.6456               549.8842               575.0519
 Red. masses --      3.4093                 3.8865                 4.8293
 Frc consts  --      0.5571                 0.6924                 0.9409
 IR Inten    --      0.3585                 1.0955                 1.3707

                     25                     26                     27
                      A                      A                      A
 Frequencies --    597.7036               620.2914               635.2130
 Red. masses --      3.3534                 4.2659                 4.6553
 Frc consts  --      0.7058                 0.9671                 1.1067
 IR Inten    --      1.3900                14.2728                12.9306

                     28                     29                     30
                      A                      A                      A
 Frequencies --    703.6849               727.7458               756.9357
 Red. masses --      4.5252                 3.5050                 2.5723
 Frc consts  --      1.3202                 1.0937                 0.8683
 IR Inten    --      0.1160                 2.8265                 9.2682

                     31                     32                     33
                      A                      A                      A
 Frequencies --    768.2695               773.2913               785.2031
 Red. masses --      1.5832                 1.5100                 1.5821
 Frc consts  --      0.5506                 0.5320                 0.5747
 IR Inten    --     21.8232                46.9779                75.2760

                     34                     35                     36
                      A                      A                      A
 Frequencies --    787.8942               809.9923               852.4406
 Red. masses --      2.0748                 3.3579                 1.7851
 Frc consts  --      0.7589                 1.2980                 0.7642
 IR Inten    --      3.2414                 0.6453                 8.6277

                     37                     38                     39
                      A                      A                      A
 Frequencies --    872.7477               884.4748               894.3486
 Red. masses --      1.3942                 1.7697                 2.1619
 Frc consts  --      0.6257                 0.8157                 1.0188
 IR Inten    --      3.3590                 6.2834                14.3057

                     40                     41                     42
                      A                      A                      A
 Frequencies --    906.1240               929.9996               949.3451
 Red. masses --      1.7263                 2.4621                 1.4077
 Frc consts  --      0.8351                 1.2546                 0.7475
 IR Inten    --     13.5115                30.0939                 9.2263

                     43                     44                     45
                      A                      A                      A
 Frequencies --    953.6507               983.3545               986.6102
 Red. masses --      1.3895                 1.2703                 1.3206
 Frc consts  --      0.7445                 0.7237                 0.7574
 IR Inten    --      5.3683                 2.5471                 9.6100

                     46                     47                     48
                      A                      A                      A
 Frequencies --    988.7787               990.2331              1029.5074
 Red. masses --      1.7750                 1.5071                 1.8370
 Frc consts  --      1.0225                 0.8707                 1.1472
 IR Inten    --      3.2896                10.6321                18.2216

                     49                     50                     51
                      A                      A                      A
 Frequencies --   1051.2097              1062.3883              1077.1868
 Red. masses --      2.5548                 3.2844                 2.1379
 Frc consts  --      1.6634                 2.1841                 1.4616
 IR Inten    --      4.4668                 4.7194                12.1879

                     52                     53                     54
                      A                      A                      A
 Frequencies --   1085.4493              1091.4082              1135.7003
 Red. masses --      2.8092                 2.2336                 2.0927
 Frc consts  --      1.9501                 1.5676                 1.5903
 IR Inten    --      7.4854                21.5090                54.3151

                     55                     56                     57
                      A                      A                      A
 Frequencies --   1148.7018              1159.7009              1171.4034
 Red. masses --      1.7554                 1.7349                 1.7477
 Frc consts  --      1.3647                 1.3747                 1.4130
 IR Inten    --     37.3874                22.2772                55.0733

                     58                     59                     60
                      A                      A                      A
 Frequencies --   1189.0766              1191.6111              1202.0899
 Red. masses --      1.1506                 1.1881                 1.1631
 Frc consts  --      0.9585                 0.9940                 0.9902
 IR Inten    --      1.0019                 1.7738                 3.9471

                     61                     62                     63
                      A                      A                      A
 Frequencies --   1211.4924              1235.3584              1248.9687
 Red. masses --      1.7314                 2.5669                 1.9696
 Frc consts  --      1.4973                 2.3080                 1.8102
 IR Inten    --      3.3712                 8.4030                75.3875

                     64                     65                     66
                      A                      A                      A
 Frequencies --   1260.2749              1266.3978              1290.5294
 Red. masses --      1.9288                 1.5418                 1.5590
 Frc consts  --      1.8049                 1.4569                 1.5298
 IR Inten    --     73.9484               116.2108                59.4021

                     67                     68                     69
                      A                      A                      A
 Frequencies --   1325.1646              1330.3046              1341.5903
 Red. masses --      1.6384                 1.8340                 3.8380
 Frc consts  --      1.6952                 1.9123                 4.0700
 IR Inten    --     11.8789               111.5481                10.3686

                     70                     71                     72
                      A                      A                      A
 Frequencies --   1352.3109              1362.2195              1381.4906
 Red. masses --      1.7768                 2.9875                 1.5205
 Frc consts  --      1.9145                 3.2663                 1.7098
 IR Inten    --      9.8680                 8.2395                10.9086

                     73                     74                     75
                      A                      A                      A
 Frequencies --   1390.0132              1392.2773              1399.7701
 Red. masses --      1.1887                 1.2953                 1.4611
 Frc consts  --      1.3531                 1.4794                 1.6868
 IR Inten    --     20.0819                38.6753                 7.9880

                     76                     77                     78
                      A                      A                      A
 Frequencies --   1440.1669              1470.1028              1486.7834
 Red. masses --      1.3638                 1.3390                 1.6227
 Frc consts  --      1.6666                 1.7050                 2.1134
 IR Inten    --     26.2760                25.3789                29.3466

                     79                     80                     81
                      A                      A                      A
 Frequencies --   1491.2718              1497.3658              1499.3595
 Red. masses --      1.3712                 1.2828                 1.0896
 Frc consts  --      1.7967                 1.6946                 1.4433
 IR Inten    --     35.7900                 2.1984                19.9145

                     82                     83                     84
                      A                      A                      A
 Frequencies --   1503.1746              1522.4483              1530.3339
 Red. masses --      1.9199                 1.0789                 1.9536
 Frc consts  --      2.5559                 1.4734                 2.6956
 IR Inten    --     53.1813                15.4222               200.2359

                     85                     86                     87
                      A                      A                      A
 Frequencies --   1537.0245              1544.2883              1550.1132
 Red. masses --      1.1654                 1.8807                 1.4015
 Frc consts  --      1.6221                 2.6426                 1.9842
 IR Inten    --    204.1579                28.1406                16.8466

                     88                     89                     90
                      A                      A                      A
 Frequencies --   1630.1703              1640.3667              1647.2682
 Red. masses --      5.9091                 6.3409                 1.0454
 Frc consts  --      9.2521                10.0528                 1.6713
 IR Inten    --     24.6049                12.4234                67.8737

                     91                     92                     93
                      A                      A                      A
 Frequencies --   1653.4693              1659.4367              1675.8639
 Red. masses --      5.7044                 5.5726                 1.0450
 Frc consts  --      9.1887                 9.0412                 1.7292
 IR Inten    --     38.4871                19.5856                99.3808

                     94                     95                     96
                      A                      A                      A
 Frequencies --   3002.6648              3040.5472              3062.4673
 Red. masses --      1.0722                 1.0645                 1.0666
 Frc consts  --      5.6958                 5.7982                 5.8940
 IR Inten    --    123.5440                51.6106                23.7099

                     97                     98                     99
                      A                      A                      A
 Frequencies --   3079.3482              3081.8786              3114.1185
 Red. masses --      1.0930                 1.0611                 1.1021
 Frc consts  --      6.1065                 5.9380                 6.2968
 IR Inten    --     86.7530                22.3450                52.7795

                    100                    101                    102
                      A                      A                      A
 Frequencies --   3117.7381              3130.2512              3138.4490
 Red. masses --      1.0947                 1.0694                 1.0885
 Frc consts  --      6.2696                 6.1737                 6.3167
 IR Inten    --      3.1061                 4.7122                65.9635

                    103                    104                    105
                      A                      A                      A
 Frequencies --   3185.9519              3190.1138              3191.1392
 Red. masses --      1.1096                 1.0880                 1.0869
 Frc consts  --      6.6356                 6.5239                 6.5211
 IR Inten    --     13.8088                20.1237                19.2668

                    106                    107                    108
                      A                      A                      A
 Frequencies --   3200.4360              3207.0123              3219.7929
 Red. masses --      1.0890                 1.0877                 1.0926
 Frc consts  --      6.5719                 6.5908                 6.6737
 IR Inten    --     27.4877                11.5312                50.6258

                    109                    110                    111
                      A                      A                      A
 Frequencies --   3221.2810              3230.7703              3239.7881
 Red. masses --      1.0954                 1.0954                 1.0916
 Frc consts  --      6.6971                 6.7368                 6.7509
 IR Inten    --     54.3684                33.7019                21.7430

                    112                    113                    114
                      A                      A                      A
 Frequencies --   3384.5236              3451.0975              3460.0417
 Red. masses --      1.0328                 1.0939                 1.0945
 Frc consts  --      6.9706                 7.6759                 7.7204
 IR Inten    --    105.8090               235.5929               237.2274

 - Thermochemistry -
 -------------------
 Temperature   298.150 Kelvin.  Pressure   1.00000 Atm.
 Atom     1 has atomic number  7 and mass  14.00307

 Molecular mass:   253.17047 amu.
 Principal axes and moments of inertia in atomic units:
                           1         2         3
     Eigenvalues --  4048.585875601.316848166.81173
           X            0.99766  -0.06821   0.00391
           Y            0.06824   0.99763  -0.00874
           Z           -0.00330   0.00899   0.99995
 This molecule is an asymmetric top.
 Rotational symmetry number  1.
 Warning -- assumption of classical behavior for rotation
           may cause significant error
 Rotational temperatures (Kelvin)      0.02139     0.01546     0.01061
 Rotational constants (GHZ):           0.44577     0.32220     0.22098
 Zero-point vibrational energy     930681.2 (Joules/Mol)
                                  222.43814 (Kcal/Mol)
 Warning -- explicit consideration of  26 degrees of freedom as
           vibrations may cause significant error
 Vibrational temperatures:     44.61    54.54    81.11   126.49   156.75
          (Kelvin)            197.32   232.63   243.83   317.25   378.66
                              385.20   434.14   456.33   481.65   494.67
                              528.29   603.58   636.90   644.23   680.47
                              699.84   757.73   791.16   827.37   859.96
                              892.46   913.93  1012.45  1047.06  1089.06
                             1105.37  1112.59  1129.73  1133.60  1165.40
                             1226.47  1255.69  1272.56  1286.77  1303.71
                             1338.06  1365.90  1372.09  1414.83  1419.51
                             1422.63  1424.72  1481.23  1512.46  1528.54
                             1549.83  1561.72  1570.29  1634.02  1652.73
                             1668.55  1685.39  1710.82  1714.46  1729.54
                             1743.07  1777.41  1796.99  1813.25  1822.06
                             1856.78  1906.62  1914.01  1930.25  1945.67
                             1959.93  1987.66  1999.92  2003.18  2013.96
                             2072.08  2115.15  2139.15  2145.61  2154.38
                             2157.24  2162.73  2190.46  2201.81  2211.44
                             2221.89  2230.27  2345.45  2360.12  2370.05
                             2378.97  2387.56  2411.19  4320.16  4374.67
                             4406.21  4430.50  4434.14  4480.52  4485.73
                             4503.73  4515.53  4583.87  4589.86  4591.34
                             4604.71  4614.18  4632.56  4634.70  4648.36
                             4661.33  4869.57  4965.36  4978.23

 Zero-point correction=                           0.354478 (Hartree/Particle)
 Thermal correction to Energy=                    0.370774
 Thermal correction to Enthalpy=                  0.371718
 Thermal correction to Gibbs Free Energy=         0.310129
 Sum of electronic and zero-point Energies=           -769.477233
 Sum of electronic and thermal Energies=              -769.460937
 Sum of electronic and thermal Enthalpies=            -769.459992
 Sum of electronic and thermal Free Energies=         -769.521582

                     E (Thermal)             CV                S
                      KCal/Mol        Cal/Mol-Kelvin    Cal/Mol-Kelvin
 Total                  232.664             65.912            129.626
 Electronic               0.000              0.000              0.000
 Translational            0.889              2.981             42.487
 Rotational               0.889              2.981             33.582
 Vibrational            230.887             59.951             53.557
 Vibration     1          0.594              1.984              5.764
 Vibration     2          0.594              1.982              5.366
 Vibration     3          0.596              1.975              4.580
 Vibration     4          0.601              1.958              3.706
 Vibration     5          0.606              1.942              3.288
 Vibration     6          0.614              1.916              2.843
 Vibration     7          0.622              1.889              2.530
 Vibration     8          0.625              1.880              2.441
 Vibration     9          0.647              1.810              1.955
 Vibration    10          0.670              1.740              1.641
 Vibration    11          0.673              1.732              1.611
 Vibration    12          0.694              1.670              1.407
 Vibration    13          0.704              1.641              1.325
 Vibration    14          0.716              1.606              1.237
 Vibration    15          0.723              1.588              1.194
 Vibration    16          0.740              1.540              1.092
 Vibration    17          0.782              1.428              0.894
 Vibration    18          0.802              1.377              0.818
 Vibration    19          0.807              1.366              0.803
 Vibration    20          0.830              1.310              0.729
 Vibration    21          0.842              1.280              0.693
 Vibration    22          0.882              1.191              0.595
 Vibration    23          0.905              1.140              0.544
 Vibration    24          0.931              1.085              0.495
 Vibration    25          0.956              1.037              0.454
 Vibration    26          0.980              0.989              0.416

 Optimization completed on the basis of negligible forces.
    -- Stationary point found.
 Normal termination of Gaussian 16 at Sun Jul 18 14:21:24 2021.

 ----------------------------------------------------------------------
 #p b3lyp/6-31G(d) scrf=(iefpcm,read,solvent=water) geom=allcheck guess
 =read
 ----------------------------------------------------------------------

 Structure from the checkpoint file:  "SET_328_BBB20_conf1.geo_060_180_060.chk"
 --------------------------------------------
 SET_328_BBB20_conf1.geo_060_180_060 geometry
 --------------------------------------------
 Charge =  1 Multiplicity = 1

 SCF Done:  E(RB3LYP) =  -769.831710738     A.U. after    1 cycles
 Normal termination of Gaussian 16 at Sun Jul 18 14:21:37 2021.

 -----------------------------
 #p B3LYP/6-31G* geom=allcheck
 -----------------------------

 Structure from the checkpoint file:  "SET_328_BBB20_conf1.geo_060_180_060.chk"
 --------------------------------------------
 SET_328_BBB20_conf1.geo_060_180_060 geometry
 --------------------------------------------
 Charge =  1 Multiplicity = 1

 SCF Done:  E(RB3LYP) =  -769.714383508     A.U. after   15 cycles
 Normal termination of Gaussian 16 at Sun Jul 18 14:22:43 2021.
 Gaussian 16:  ES64L-G16RevB.01 20-Dec-2017

 --------------------------------------------------------
 #p mp2/aug-cc-pVDZ scf=tight maxdisk=180GB geom=allcheck
 --------------------------------------------------------

 Structure from the checkpoint file:  "SET_328_BBB20_conf1.geo_060_180_060.chk"
 --------------------------------------------
 SET_328_BBB20_conf1.geo_060_180_060 geometry
 --------------------------------------------
 Charge =  1 Multiplicity = 1

                         Standard orientation:
 ---------------------------------------------------------------------
 Center     Atomic      Atomic             Coordinates (Angstroms)
 Number     Number       Type             X           Y           Z
 ---------------------------------------------------------------------
      1          7           0       -4.175640    2.164912   -0.191564
      2          1           0       -4.587602    1.239266   -0.382982
      3          1           0       -3.610921    2.433277   -1.014139
      4          6           0       -3.370877    2.151292    1.082320
      5          1           0       -4.081963    1.945191    1.882357
      6          1           0       -2.981905    3.162029    1.212342
      7          6           0       -2.267852    1.100572    1.054744
      8          1           0       -2.694641    0.129968    0.786126
      9          1           0       -1.888828    1.003149    2.076921
     10          6           0       -1.094349    1.446887    0.131752
     11          1           0       -0.634860    2.370442    0.487754
     12          1           0       -1.441927    1.643587   -0.893948
     13          7           0       -0.064264    0.404531    0.173515
     14          6           0       -0.472831   -0.911200   -0.216876
     15          6           0       -1.378857   -1.114937   -1.264784
     16          1           0       -1.766266   -0.264645   -1.813972
     17          6           0       -1.781063   -2.404749   -1.610016
     18          1           0       -2.482723   -2.547151   -2.425018
     19          6           0       -1.273764   -3.503791   -0.916510
     20          1           0       -1.581434   -4.509729   -1.182055
     21          6           0       -0.371812   -3.299515    0.129211
     22          1           0        0.019651   -4.149091    0.682966
     23          6           0        0.027619   -2.011926    0.500139
     24          6           0        0.995558   -1.763838    1.622249
     25          1           0        1.150194   -2.687296    2.187074
     26          1           0        0.579890   -1.022224    2.313421
     27          6           0        2.354002   -1.278427    1.107956
     28          1           0        2.773357   -2.064175    0.466856
     29          1           0        3.042625   -1.193734    1.956172
     30          6           0        2.396556    0.036170    0.345093
     31          6           0        3.680461    0.525647    0.065034
     32          1           0        4.526696   -0.060198    0.412149
     33          6           0        3.905518    1.721411   -0.610367
     34          1           0        4.917335    2.065727   -0.795365
     35          6           0        2.807149    2.463751   -1.037865
     36          1           0        2.943752    3.396462   -1.576543
     37          6           0        1.519818    1.998366   -0.787518
     38          1           0        0.677885    2.571478   -1.153994
     39          6           0        1.283663    0.796420   -0.090192
     40          1           0       -4.952623    2.838763   -0.125995
 ---------------------------------------------------------------------

 SCF Done:  E(RHF) =  -764.745588473     A.U. after   16 cycles
 E2 =    -0.2714249204D+01 EUMP2 =    -0.76745983767698D+03

 The electronic state is 1-A.
 Alpha  occ. eigenvalues --  -15.89596 -15.68403 -11.47579 -11.40404 -11.39260
 Alpha  occ. eigenvalues --  -11.37249 -11.37118 -11.33837 -11.33467 -11.33383
 Alpha  occ. eigenvalues --  -11.32974 -11.32798 -11.32724 -11.32125 -11.31881
 Alpha  occ. eigenvalues --  -11.31851 -11.31697 -11.31513 -11.31103  -1.50371
 Alpha  occ. eigenvalues --   -1.37108  -1.24624  -1.23694  -1.21263  -1.16729
 Alpha  occ. eigenvalues --   -1.11618  -1.11268  -1.10726  -1.07384  -1.03703
 Alpha  occ. eigenvalues --   -0.99187  -0.96902  -0.96017  -0.94798  -0.91798
 Alpha  occ. eigenvalues --   -0.90273  -0.87997  -0.86980  -0.84349  -0.79616
 Alpha  occ. eigenvalues --   -0.79172  -0.78252  -0.75891  -0.74415  -0.73634
 Alpha  occ. eigenvalues --   -0.72769  -0.71467  -0.70136  -0.69089  -0.68551
 Alpha  occ. eigenvalues --   -0.68036  -0.66380  -0.65795  -0.63956  -0.63583
 Alpha  occ. eigenvalues --   -0.62626  -0.61259  -0.59619  -0.59162  -0.57883
 Alpha  occ. eigenvalues --   -0.56642  -0.56403  -0.55506  -0.51221  -0.42666
 Alpha  occ. eigenvalues --   -0.41402  -0.40594  -0.38446
 Alpha virt. eigenvalues --   -0.11034  -0.07468  -0.07331  -0.05820  -0.03754
 Alpha virt. eigenvalues --   -0.03671  -0.03250  -0.02852  -0.02644  -0.02035
 Alpha virt. eigenvalues --   -0.01255  -0.01130  -0.00782  -0.00749  -0.00329

 Mulliken charges:
               1
     1  N   -0.508976
     2  H    0.260393
     3  H    0.251884
     4  C    1.244230
     5  H   -0.118562
     6  H   -0.106875
     7  C    0.482513
     8  H   -0.244672
     9  H   -0.145358
    10  C    0.653203
    11  H   -0.537273
    12  H   -0.433785
    13  N   -0.277721
    14  C   -1.595343
    15  C    1.445183
    16  H   -0.750109
    17  C    0.188863
    18  H   -0.541502
    19  C    0.651297
    20  H   -0.461933
    21  C    0.628205
    22  H   -0.610885
    23  C    0.739699
    24  C    0.764082
    25  H   -0.142443
    26  H   -0.072865
    27  C    0.331727
    28  H    0.076478
    29  H   -0.021565
    30  C   -0.162140
    31  C    0.672630
    32  H   -0.745305
    33  C    0.032619
    34  H   -0.460282
    35  C    0.384873
    36  H   -0.513071
    37  C    0.721122
    38  H   -0.892332
    39  C    0.640190
    40  H    0.173806
 Sum of Mulliken charges =   1.00000

 Dipole moment (field-independent basis, Debye):
    X=            -16.2843    Y=              8.2201    Z=              0.4744  Tot=             18.2476
 Quadrupole moment (field-independent basis, Debye-Ang):
   XX=            -28.1920   YY=            -78.0370   ZZ=           -108.7254
   XY=            -39.1818   XZ=              5.0052   YZ=             -3.9752

 Normal termination of Gaussian 16 at Sun Jul 18 15:37:09 2021.
