 Gaussian 16, Revision B.01,

 -----------------------------------------------------------
 #p b3lyp/6-31G(d) opt freq scrf=(iefpcm,read,solvent=water)
 -----------------------------------------------------------

 ---------------------------------------------
 SET_328_BBB272_conf1.geo_195_315_180 geometry
 ---------------------------------------------
 Symbolic Z-matrix:
 Charge = -1 Multiplicity = 1

 SCF Done:  E(RB3LYP) =  -648.202308694     A.U. after   13 cycles
 SCF Done:  E(RB3LYP) =  -648.228120463     A.U. after   12 cycles
 SCF Done:  E(RB3LYP) =  -648.223311294     A.U. after   12 cycles
 SCF Done:  E(RB3LYP) =  -648.233062224     A.U. after   12 cycles
 SCF Done:  E(RB3LYP) =  -648.235186491     A.U. after   11 cycles
 SCF Done:  E(RB3LYP) =  -648.235189126     A.U. after   11 cycles
 SCF Done:  E(RB3LYP) =  -648.235847995     A.U. after   11 cycles
 SCF Done:  E(RB3LYP) =  -648.236388272     A.U. after   13 cycles
 SCF Done:  E(RB3LYP) =  -648.237457939     A.U. after   14 cycles
 SCF Done:  E(RB3LYP) =  -648.238138048     A.U. after   11 cycles
 SCF Done:  E(RB3LYP) =  -648.239534943     A.U. after   10 cycles
 SCF Done:  E(RB3LYP) =  -648.239532526     A.U. after    9 cycles
 SCF Done:  E(RB3LYP) =  -648.239535155     A.U. after    8 cycles
 SCF Done:  E(RB3LYP) =  -648.239535226     A.U. after    7 cycles
 SCF Done:  E(RB3LYP) =  -648.239535227     A.U. after    6 cycles
 SCF Done:  E(RB3LYP) =  -648.239535230     A.U. after    5 cycles
 Optimization completed.
    -- Stationary point found.
 Normal termination of Gaussian 16 at Sun Jul 18 14:14:09 2021.

 --------------------------------------------------------------------
 #P Geom=AllCheck Guess=TCheck SCRF=Check GenChk RB3LYP/6-31G(d) Freq
 --------------------------------------------------------------------

 Structure from the checkpoint file:  "SET_328_BBB272_conf1.geo_195_315_180.chk"
 ---------------------------------------------
 SET_328_BBB272_conf1.geo_195_315_180 geometry
 ---------------------------------------------
 Charge = -1 Multiplicity = 1

 SCF Done:  E(RB3LYP) =  -648.239535230     A.U. after    1 cycles

  Exact polarizability: 175.099   4.422 154.372 -11.249   6.036  75.128
 Approx polarizability: 195.558   0.183 178.871 -15.519   7.460  95.714

                      1                      2                      3
                      A                      A                      A
 Frequencies --     44.6593                81.7788                97.5841
 Red. masses --     11.1006                 2.1044                 2.2382
 Frc consts  --      0.0130                 0.0083                 0.0126
 IR Inten    --      0.7735                 8.2430                 4.7125

                      4                      5                      6
                      A                      A                      A
 Frequencies --    104.9124               123.0351               155.5694
 Red. masses --      2.3467                 4.9160                 7.2620
 Frc consts  --      0.0152                 0.0438                 0.1036
 IR Inten    --     10.0884                 5.3568                 2.5198

                      7                      8                      9
                      A                      A                      A
 Frequencies --    243.7657               275.4298               312.7987
 Red. masses --      8.1835                 6.5065                 4.0744
 Frc consts  --      0.2865                 0.2908                 0.2349
 IR Inten    --      4.5843                 2.4391                 4.4921

                     10                     11                     12
                      A                      A                      A
 Frequencies --    368.3510               412.9183               450.2672
 Red. masses --      7.5144                 6.1545                 4.1133
 Frc consts  --      0.6007                 0.6183                 0.4913
 IR Inten    --      3.2335                14.3308                 2.8914

                     13                     14                     15
                      A                      A                      A
 Frequencies --    526.3823               542.9547               555.9714
 Red. masses --      4.3004                 4.5808                 4.9553
 Frc consts  --      0.7020                 0.7956                 0.9024
 IR Inten    --     11.5499                 7.6439                 7.9477

                     16                     17                     18
                      A                      A                      A
 Frequencies --    585.3162               660.3362               677.8069
 Red. masses --      3.7241                 5.9755                 5.9468
 Frc consts  --      0.7517                 1.5352                 1.6097
 IR Inten    --     29.7327                 9.2740                26.6073

                     19                     20                     21
                      A                      A                      A
 Frequencies --    709.3001               769.7043               810.4512
 Red. masses --      3.9464                 1.8770                 4.4621
 Frc consts  --      1.1698                 0.6552                 1.7268
 IR Inten    --     39.5130                50.0047                19.2813

                     22                     23                     24
                      A                      A                      A
 Frequencies --    813.4035               849.0057               897.9009
 Red. masses --      3.7559                 4.6357                 1.6292
 Frc consts  --      1.4641                 1.9687                 0.7739
 IR Inten    --     40.6479                49.4124                 3.4338

                     25                     26                     27
                      A                      A                      A
 Frequencies --    939.5657               971.6196               998.0885
 Red. masses --      4.8671                 1.4245                 1.2755
 Frc consts  --      2.5315                 0.7923                 0.7486
 IR Inten    --     35.1462                 8.7552                 0.7743

                     28                     29                     30
                      A                      A                      A
 Frequencies --   1032.2101              1066.3553              1066.7210
 Red. masses --      1.7840                 2.0379                 1.8138
 Frc consts  --      1.1199                 1.3653                 1.2160
 IR Inten    --     68.9669                29.4725                14.6137

                     31                     32                     33
                      A                      A                      A
 Frequencies --   1109.5011              1165.4628              1183.9439
 Red. masses --      2.9518                 1.7691                 1.1725
 Frc consts  --      2.1409                 1.4158                 0.9684
 IR Inten    --     82.9952                 7.1477                10.3423

                     34                     35                     36
                      A                      A                      A
 Frequencies --   1215.9713              1252.6236              1287.6993
 Red. masses --      3.7454                 3.4205                 1.5841
 Frc consts  --      3.2629                 3.1622                 1.5476
 IR Inten    --    380.4602               460.3010                 4.5093

                     37                     38                     39
                      A                      A                      A
 Frequencies --   1349.6494              1386.8869              1417.4163
 Red. masses --      9.5604                11.5279                 1.3400
 Frc consts  --     10.2605                13.0642                 1.5862
 IR Inten    --      1.2611               673.4710               103.2575

                     40                     41                     42
                      A                      A                      A
 Frequencies --   1485.6859              1488.8552              1493.7171
 Red. masses --      2.1913                 1.0548                 1.0694
 Frc consts  --      2.8498                 1.3776                 1.4058
 IR Inten    --     15.9268                18.8648                 9.2435

                     43                     44                     45
                      A                      A                      A
 Frequencies --   1515.1582              1624.2741              1655.7359
 Red. masses --      2.6167                 6.4053                 6.6375
 Frc consts  --      3.5394                 9.9565                10.7210
 IR Inten    --     24.9956                55.8906                78.6887

                     46                     47                     48
                      A                      A                      A
 Frequencies --   1673.8922              1810.8585              3094.3808
 Red. masses --     11.0528                11.3920                 1.0361
 Frc consts  --     18.2464                22.0099                 5.8451
 IR Inten    --    788.7137               420.7082                 2.3900

                     49                     50                     51
                      A                      A                      A
 Frequencies --   3162.9247              3198.8873              3207.3137
 Red. masses --      1.1011                 1.1046                 1.0864
 Frc consts  --      6.4901                 6.6595                 6.5845
 IR Inten    --      6.6488                16.0775                 4.3229

                     52                     53                     54
                      A                      A                      A
 Frequencies --   3215.1347              3227.0475              3234.7835
 Red. masses --      1.0903                 1.0913                 1.0970
 Frc consts  --      6.6403                 6.6960                 6.7629
 IR Inten    --     19.9465                18.8512                36.8412

 - Thermochemistry -
 -------------------
 Temperature   298.150 Kelvin.  Pressure   1.00000 Atm.
 Atom     1 has atomic number  6 and mass  12.00000

 Molecular mass:   179.03443 amu.
 Principal axes and moments of inertia in atomic units:
                           1         2         3
     Eigenvalues --  1561.589742389.906513590.04393
           X            0.99988   0.00815  -0.01317
           Y           -0.00803   0.99993   0.00856
           Z            0.01324  -0.00845   0.99988
 This molecule is an asymmetric top.
 Rotational symmetry number  1.
 Warning -- assumption of classical behavior for rotation
           may cause significant error
 Rotational temperatures (Kelvin)      0.05547     0.03624     0.02413
 Rotational constants (GHZ):           1.15571     0.75515     0.50271
 Zero-point vibrational energy     380424.2 (Joules/Mol)
                                   90.92358 (Kcal/Mol)
 Warning -- explicit consideration of  16 degrees of freedom as
           vibrations may cause significant error
 Vibrational temperatures:     64.25   117.66   140.40   150.95   177.02
          (Kelvin)            223.83   350.72   396.28   450.05   529.97
                              594.10   647.83   757.35   781.19   799.92
                              842.14   950.08   975.21  1020.52  1107.43
                             1166.06  1170.31  1221.53  1291.88  1351.83
                             1397.94  1436.03  1485.12  1534.25  1534.77
                             1596.32  1676.84  1703.43  1749.51  1802.25
                             1852.71  1941.84  1995.42  2039.35  2137.57
                             2142.13  2149.13  2179.97  2336.97  2382.23
                             2408.36  2605.42  4452.12  4550.74  4602.49
                             4614.61  4625.86  4643.00  4654.13

 Zero-point correction=                           0.144896 (Hartree/Particle)
 Thermal correction to Energy=                    0.156229
 Thermal correction to Enthalpy=                  0.157173
 Thermal correction to Gibbs Free Energy=         0.106654
 Sum of electronic and zero-point Energies=           -648.094639
 Sum of electronic and thermal Energies=              -648.083306
 Sum of electronic and thermal Enthalpies=            -648.082362
 Sum of electronic and thermal Free Energies=         -648.132882

                     E (Thermal)             CV                S
                      KCal/Mol        Cal/Mol-Kelvin    Cal/Mol-Kelvin
 Total                   98.035             41.509            106.327
 Electronic               0.000              0.000              0.000
 Translational            0.889              2.981             41.454
 Rotational               0.889              2.981             30.972
 Vibrational             96.258             35.547             33.901
 Vibration     1          0.595              1.980              5.041
 Vibration     2          0.600              1.962              3.848
 Vibration     3          0.603              1.951              3.502
 Vibration     4          0.605              1.945              3.361
 Vibration     5          0.610              1.930              3.052
 Vibration     6          0.620              1.896              2.603
 Vibration     7          0.659              1.773              1.775
 Vibration     8          0.677              1.719              1.562
 Vibration     9          0.701              1.649              1.347
 Vibration    10          0.741              1.537              1.087
 Vibration    11          0.777              1.442              0.916
 Vibration    12          0.809              1.360              0.795
 Vibration    13          0.881              1.192              0.595
 Vibration    14          0.898              1.155              0.559
 Vibration    15          0.911              1.127              0.532
 Vibration    16          0.942              1.063              0.476

                           ! Non-Optimized Parameters !
 Normal termination of Gaussian 16 at Sun Jul 18 14:17:24 2021.

 ----------------------------------------------------------------------
 #p b3lyp/6-31G(d) scrf=(iefpcm,read,solvent=water) geom=allcheck guess
 =read
 ----------------------------------------------------------------------

 Structure from the checkpoint file:  "SET_328_BBB272_conf1.geo_195_315_180.chk"
 ---------------------------------------------
 SET_328_BBB272_conf1.geo_195_315_180 geometry
 ---------------------------------------------
 Charge = -1 Multiplicity = 1

 SCF Done:  E(RB3LYP) =  -648.239535230     A.U. after    1 cycles
 Normal termination of Gaussian 16 at Sun Jul 18 14:17:28 2021.

 -----------------------------
 #p B3LYP/6-31G* geom=allcheck
 -----------------------------

 Structure from the checkpoint file:  "SET_328_BBB272_conf1.geo_195_315_180.chk"
 ---------------------------------------------
 SET_328_BBB272_conf1.geo_195_315_180 geometry
 ---------------------------------------------
 Charge = -1 Multiplicity = 1

 SCF Done:  E(RB3LYP) =  -648.133150043     A.U. after   16 cycles
 Normal termination of Gaussian 16 at Sun Jul 18 14:17:47 2021.
 Gaussian 16:  ES64L-G16RevB.01 20-Dec-2017

 --------------------------------------------------------
 #p mp2/aug-cc-pVDZ scf=tight maxdisk=180GB geom=allcheck
 --------------------------------------------------------

 Structure from the checkpoint file:  "SET_328_BBB272_conf1.geo_195_315_180.chk"
 ---------------------------------------------
 SET_328_BBB272_conf1.geo_195_315_180 geometry
 ---------------------------------------------
 Charge = -1 Multiplicity = 1

                         Standard orientation:
 ---------------------------------------------------------------------
 Center     Atomic      Atomic             Coordinates (Angstroms)
 Number     Number       Type             X           Y           Z
 ---------------------------------------------------------------------
      1          6           0        3.396533   -0.561303   -0.349248
      2          1           0        3.495226    0.434929   -0.787677
      3          1           0        3.532011   -1.293792   -1.147995
      4          1           0        4.155075   -0.699231    0.419723
      5          6           0        2.028300   -0.688586    0.255370
      6          8           0        1.776658   -0.761605    1.438419
      7          8           0        1.083566   -0.771764   -0.720883
      8          6           0       -0.260396   -0.686476   -0.341406
      9          6           0       -0.861704    0.553382   -0.073784
     10          6           0       -0.123342    1.896927   -0.077487
     11          8           0        1.137893    1.878972   -0.035411
     12          8           0       -0.851082    2.925750   -0.111530
     13          6           0       -2.236771    0.539742    0.203308
     14          1           0       -2.711438    1.494965    0.397510
     15          6           0       -2.977453   -0.639831    0.225327
     16          1           0       -4.038590   -0.611152    0.449945
     17          6           0       -2.349727   -1.856086   -0.050721
     18          1           0       -2.913469   -2.781743   -0.044953
     19          6           0       -0.985862   -1.876198   -0.338658
     20          1           0       -0.472570   -2.804221   -0.567531
 ---------------------------------------------------------------------

 SCF Done:  E(RHF) =  -644.489594311     A.U. after   16 cycles
 E2 =    -0.2006037260D+01 EUMP2 =    -0.64649563157148D+03

 The electronic state is 1-A.
 Alpha  occ. eigenvalues --  -20.48850 -20.42585 -20.32404 -20.32324 -11.27003
 Alpha  occ. eigenvalues --  -11.18597 -11.17560 -11.13456 -11.13122 -11.12680
 Alpha  occ. eigenvalues --  -11.12411 -11.11651 -11.11207  -1.33869  -1.23772
 Alpha  occ. eigenvalues --   -1.19435  -1.09002  -1.03310  -0.92197  -0.90233
 Alpha  occ. eigenvalues --   -0.87698  -0.74094  -0.72124  -0.65756  -0.60257
 Alpha  occ. eigenvalues --   -0.57152  -0.55945  -0.54794  -0.52862  -0.49851
 Alpha  occ. eigenvalues --   -0.48335  -0.46506  -0.45949  -0.44754  -0.42514
 Alpha  occ. eigenvalues --   -0.41601  -0.40518  -0.39610  -0.37768  -0.36142
 Alpha  occ. eigenvalues --   -0.33970  -0.32223  -0.23576  -0.23231  -0.21658
 Alpha  occ. eigenvalues --   -0.21044  -0.20632
 Alpha virt. eigenvalues --    0.10884   0.11535   0.12182   0.13244   0.14137
 Alpha virt. eigenvalues --    0.15507   0.15948   0.18388   0.20056   0.20598
 Alpha virt. eigenvalues --    0.21184   0.21542   0.21844   0.22410   0.23006

 Mulliken charges:
               1
     1  C    0.243895
     2  H    0.079390
     3  H    0.000875
     4  H   -0.045556
     5  C    0.754193
     6  O   -0.812226
     7  O   -1.190959
     8  C    0.737670
     9  C    0.604457
    10  C    0.877260
    11  O   -0.955244
    12  O   -0.989612
    13  C    0.692601
    14  H   -0.619326
    15  C    0.459504
    16  H   -0.473510
    17  C    0.384496
    18  H   -0.461345
    19  C    0.315044
    20  H   -0.601610
 Sum of Mulliken charges =  -1.00000

 Dipole moment (field-independent basis, Debye):
    X=             -0.4114    Y=             -9.1586    Z=             -1.6757  Tot=              9.3198
 Quadrupole moment (field-independent basis, Debye-Ang):
   XX=            -79.4400   YY=           -107.3087   ZZ=            -85.7482
   XY=              0.5297   XZ=             -6.0315   YZ=              3.5367

 Normal termination of Gaussian 16 at Sun Jul 18 14:22:21 2021.
