 Gaussian 16, Revision B.01,

 -----------------------------------------------------------
 #p b3lyp/6-31G(d) opt freq scrf=(iefpcm,read,solvent=water)
 -----------------------------------------------------------

 --------------------------------------------
 SET_328_BBB30_conf1.geo_075_060_195 geometry
 --------------------------------------------
 Symbolic Z-matrix:
 Charge =  1 Multiplicity = 1

 SCF Done:  E(RB3LYP) =  -445.295827907     A.U. after   11 cycles
 SCF Done:  E(RB3LYP) =  -445.321049507     A.U. after   11 cycles
 SCF Done:  E(RB3LYP) =  -445.329169035     A.U. after   11 cycles
 SCF Done:  E(RB3LYP) =  -445.330331884     A.U. after   10 cycles
 SCF Done:  E(RB3LYP) =  -445.330635175     A.U. after    9 cycles
 SCF Done:  E(RB3LYP) =  -445.330664451     A.U. after    9 cycles
 SCF Done:  E(RB3LYP) =  -445.330670668     A.U. after    8 cycles
 SCF Done:  E(RB3LYP) =  -445.330801427     A.U. after    9 cycles
 SCF Done:  E(RB3LYP) =  -445.330674910     A.U. after    9 cycles
 SCF Done:  E(RB3LYP) =  -445.330842951     A.U. after    9 cycles
 SCF Done:  E(RB3LYP) =  -445.330892089     A.U. after    8 cycles
 SCF Done:  E(RB3LYP) =  -445.330881131     A.U. after    8 cycles
 SCF Done:  E(RB3LYP) =  -445.330886827     A.U. after    8 cycles
 SCF Done:  E(RB3LYP) =  -445.330886394     A.U. after    7 cycles
 SCF Done:  E(RB3LYP) =  -445.330886665     A.U. after    7 cycles
 SCF Done:  E(RB3LYP) =  -445.330886841     A.U. after    7 cycles
 Optimization completed.
    -- Stationary point found.
 Normal termination of Gaussian 16 at Sun Jul 18 14:30:00 2021.

 --------------------------------------------------------------------
 #P Geom=AllCheck Guess=TCheck SCRF=Check GenChk RB3LYP/6-31G(d) Freq
 --------------------------------------------------------------------

 Structure from the checkpoint file:  "SET_328_BBB30_conf1.geo_075_060_195.chk"
 --------------------------------------------
 SET_328_BBB30_conf1.geo_075_060_195 geometry
 --------------------------------------------
 Charge =  1 Multiplicity = 1

 SCF Done:  E(RB3LYP) =  -445.330886841     A.U. after    1 cycles

  Exact polarizability: 164.134 -25.897 114.506  12.445  21.195 142.565
 Approx polarizability: 172.736 -30.518 126.025  14.622  26.930 164.266

 ******    1 imaginary frequencies (negative Signs) ******

                      1                      2                      3
                      A                      A                      A
 Frequencies --    -17.1371                78.1239                81.1560
 Red. masses --      3.0599                 2.6398                 3.7969
 Frc consts  --      0.0005                 0.0095                 0.0147
 IR Inten    --      7.6716                 2.0070                 4.9910

                      4                      5                      6
                      A                      A                      A
 Frequencies --    118.8524               184.1201               211.2484
 Red. masses --      1.9946                 1.0333                 3.6485
 Frc consts  --      0.0166                 0.0206                 0.0959
 IR Inten    --      4.6413                 0.1311                15.6752

                      7                      8                      9
                      A                      A                      A
 Frequencies --    224.3770               297.9585               318.3594
 Red. masses --      1.4130                 2.7641                 2.3063
 Frc consts  --      0.0419                 0.1446                 0.1377
 IR Inten    --      4.5358                 2.1410                 1.6916

                     10                     11                     12
                      A                      A                      A
 Frequencies --    343.6647               419.4339               422.9070
 Red. masses --      2.2176                 2.1330                 2.7658
 Frc consts  --      0.1543                 0.2211                 0.2915
 IR Inten    --      0.7731                 4.3382                 1.0545

                     13                     14                     15
                      A                      A                      A
 Frequencies --    444.7514               523.0198               608.7516
 Red. masses --      3.3076                 2.8702                 4.3488
 Frc consts  --      0.3855                 0.4626                 0.9495
 IR Inten    --      7.9170                 5.1471                 5.4071

                     16                     17                     18
                      A                      A                      A
 Frequencies --    634.5868               716.6966               756.0345
 Red. masses --      6.3107                 2.0828                 1.7527
 Frc consts  --      1.4973                 0.6303                 0.5903
 IR Inten    --      0.1496                31.3854                49.6613

                     19                     20                     21
                      A                      A                      A
 Frequencies --    794.2077               829.3161               862.5060
 Red. masses --      2.3853                 3.4037                 1.2201
 Frc consts  --      0.8864                 1.3793                 0.5348
 IR Inten    --      5.5042                 0.6182                27.5359

                     22                     23                     24
                      A                      A                      A
 Frequencies --    869.3636               919.9345               930.8886
 Red. masses --      1.2489                 1.5073                 1.5803
 Frc consts  --      0.5561                 0.7516                 0.8068
 IR Inten    --      0.0397                 2.6896                 3.5162

                     25                     26                     27
                      A                      A                      A
 Frequencies --    954.5374               983.1430              1008.9489
 Red. masses --      1.7044                 1.3549                 1.2590
 Frc consts  --      0.9150                 0.7716                 0.7551
 IR Inten    --      4.8281                 0.0492                 0.2479

                     28                     29                     30
                      A                      A                      A
 Frequencies --   1017.1303              1033.5355              1052.3493
 Red. masses --      6.1410                 2.6574                 1.8014
 Frc consts  --      3.7432                 1.6725                 1.1754
 IR Inten    --      0.7089                 4.6172                21.3640

                     31                     32                     33
                      A                      A                      A
 Frequencies --   1057.4997              1075.0470              1106.4485
 Red. masses --      2.1985                 1.8073                 1.5455
 Frc consts  --      1.4485                 1.2306                 1.1148
 IR Inten    --      5.6533                14.4447                25.6814

                     34                     35                     36
                      A                      A                      A
 Frequencies --   1153.3131              1166.6503              1189.6327
 Red. masses --      1.8253                 1.3217                 1.0926
 Frc consts  --      1.4305                 1.0599                 0.9111
 IR Inten    --      9.3938                 4.1084                 0.1430

                     37                     38                     39
                      A                      A                      A
 Frequencies --   1210.8468              1225.0606              1233.8640
 Red. masses --      1.1376                 1.5814                 2.7616
 Frc consts  --      0.9827                 1.3983                 2.4771
 IR Inten    --      0.3779                24.0830                 0.2022

                     40                     41                     42
                      A                      A                      A
 Frequencies --   1279.7871              1337.6818              1359.9457
 Red. masses --      1.6411                 1.2855                 3.5390
 Frc consts  --      1.5836                 1.3552                 3.8564
 IR Inten    --      1.7508                 3.0340                 1.0603

                     43                     44                     45
                      A                      A                      A
 Frequencies --   1367.4676              1378.9777              1405.3771
 Red. masses --      1.4249                 1.3003                 1.3337
 Frc consts  --      1.5699                 1.4569                 1.5521
 IR Inten    --      1.2330                10.4764                 3.0165

                     46                     47                     48
                      A                      A                      A
 Frequencies --   1433.5489              1450.7772              1463.8055
 Red. masses --      1.2163                 1.2105                 1.2966
 Frc consts  --      1.4727                 1.5012                 1.6369
 IR Inten    --     16.3745                29.2014                88.8371

                     49                     50                     51
                      A                      A                      A
 Frequencies --   1479.8656              1499.7703              1506.3117
 Red. masses --      1.1948                 2.0467                 1.0689
 Frc consts  --      1.5417                 2.7124                 1.4290
 IR Inten    --     27.9514                 9.5943                 4.8045

                     52                     53                     54
                      A                      A                      A
 Frequencies --   1513.9227              1518.9030              1524.6762
 Red. masses --      1.0557                 1.1016                 1.0491
 Frc consts  --      1.4256                 1.4973                 1.4368
 IR Inten    --     19.8341                 1.1554                31.1498

                     55                     56                     57
                      A                      A                      A
 Frequencies --   1534.6048              1544.8829              1636.2928
 Red. masses --      1.0432                 2.2100                 1.0942
 Frc consts  --      1.4474                 3.1076                 1.7262
 IR Inten    --     15.2590                13.9029               112.0058

                     58                     59                     60
                      A                      A                      A
 Frequencies --   1642.6016              1664.1168              3077.9186
 Red. masses --      4.9162                 5.6356                 1.0470
 Frc consts  --      7.8153                 9.1951                 5.8439
 IR Inten    --      8.1025                 3.4369                 3.4103

                     61                     62                     63
                      A                      A                      A
 Frequencies --   3081.4707              3114.9272              3128.2657
 Red. masses --      1.0522                 1.0917                 1.0976
 Frc consts  --      5.8869                 6.2409                 6.3283
 IR Inten    --     45.1540                 4.4920                28.2355

                     64                     65                     66
                      A                      A                      A
 Frequencies --   3130.9194              3154.4071              3166.3272
 Red. masses --      1.0315                 1.1007                 1.1028
 Frc consts  --      5.9575                 6.4530                 6.5140
 IR Inten    --     10.1707                40.6049                27.2828

                     67                     68                     69
                      A                      A                      A
 Frequencies --   3194.3252              3194.8403              3207.9679
 Red. masses --      1.0871                 1.0882                 1.0893
 Frc consts  --      6.5355                 6.5442                 6.6047
 IR Inten    --     16.5906                13.3425                 9.0421

                     70                     71                     72
                      A                      A                      A
 Frequencies --   3215.8594              3221.9671              3228.0485
 Red. masses --      1.0937                 1.1086                 1.0977
 Frc consts  --      6.6641                 6.7806                 6.7390
 IR Inten    --     62.6301                 7.2746                32.1593

                     73                     74                     75
                      A                      A                      A
 Frequencies --   3237.5376              3369.2879              3412.4594
 Red. masses --      1.1080                 1.0553                 1.0957
 Frc consts  --      6.8427                 7.0584                 7.5175
 IR Inten    --     10.6215               121.8494               210.9189

 - Thermochemistry -
 -------------------
 Temperature   298.150 Kelvin.  Pressure   1.00000 Atm.
 Atom     1 has atomic number  6 and mass  12.00000

 Molecular mass:   150.12827 amu.
 Principal axes and moments of inertia in atomic units:
                           1         2         3
     Eigenvalues --   860.431323083.161373250.50971
           X            1.00000  -0.00242  -0.00027
           Y            0.00242   0.99999   0.00425
           Z            0.00026  -0.00425   0.99999
 This molecule is an asymmetric top.
 Rotational symmetry number  1.
 Warning -- assumption of classical behavior for rotation
           may cause significant error
 Rotational temperatures (Kelvin)      0.10066     0.02809     0.02665
 Rotational constants (GHZ):           2.09748     0.58535     0.55522
    1 imaginary frequencies ignored.
 Zero-point vibrational energy     650398.3 (Joules/Mol)
                                  155.44893 (Kcal/Mol)
 Warning -- explicit consideration of  14 degrees of freedom as
           vibrations may cause significant error
 Vibrational temperatures:    112.40   116.77   171.00   264.91   303.94
          (Kelvin)            322.83   428.70   458.05   494.46   603.47
                              608.47   639.90   752.51   875.86   913.03
                             1031.17  1087.77  1142.69  1193.20  1240.95
                             1250.82  1323.58  1339.34  1373.37  1414.52
                             1451.65  1463.42  1487.03  1514.10  1521.51
                             1546.75  1591.93  1659.36  1678.55  1711.62
                             1742.14  1762.59  1775.26  1841.33  1924.63
                             1956.66  1967.48  1984.04  2022.02  2062.56
                             2087.34  2106.09  2129.20  2157.83  2167.25
                             2178.20  2185.36  2193.67  2207.95  2222.74
                             2354.26  2363.34  2394.29  4428.44  4433.55
                             4481.69  4500.88  4504.69  4538.49  4555.64
                             4595.92  4596.66  4615.55  4626.90  4635.69
                             4644.44  4658.09  4847.65  4909.77

 Zero-point correction=                           0.247724 (Hartree/Particle)
 Thermal correction to Energy=                    0.258084
 Thermal correction to Enthalpy=                  0.259028
 Thermal correction to Gibbs Free Energy=         0.211811
 Sum of electronic and zero-point Energies=           -445.083163
 Sum of electronic and thermal Energies=              -445.072803
 Sum of electronic and thermal Enthalpies=            -445.071859
 Sum of electronic and thermal Free Energies=         -445.119076

                     E (Thermal)             CV                S
                      KCal/Mol        Cal/Mol-Kelvin    Cal/Mol-Kelvin
 Total                  161.950             40.501             99.377
 Electronic               0.000              0.000              0.000
 Translational            0.889              2.981             40.929
 Rotational               0.889              2.981             30.534
 Vibrational            160.173             34.539             27.913
 Vibration     1          0.599              1.964              3.937
 Vibration     2          0.600              1.962              3.863
 Vibration     3          0.609              1.934              3.119
 Vibration     4          0.631              1.861              2.286
 Vibration     5          0.643              1.824              2.033
 Vibration     6          0.649              1.804              1.923
 Vibration     7          0.691              1.678              1.428
 Vibration     8          0.705              1.638              1.319
 Vibration     9          0.722              1.588              1.195
 Vibration    10          0.782              1.428              0.894
 Vibration    11          0.785              1.420              0.882
 Vibration    12          0.804              1.372              0.812
 Vibration    13          0.878              1.199              0.603
 Vibration    14          0.968              1.013              0.435

                           ! Non-Optimized Parameters !
 Normal termination of Gaussian 16 at Sun Jul 18 14:34:25 2021.

 ----------------------------------------------------------------------
 #p b3lyp/6-31G(d) scrf=(iefpcm,read,solvent=water) geom=allcheck guess
 =read
 ----------------------------------------------------------------------

 Structure from the checkpoint file:  "SET_328_BBB30_conf1.geo_075_060_195.chk"
 --------------------------------------------
 SET_328_BBB30_conf1.geo_075_060_195 geometry
 --------------------------------------------
 Charge =  1 Multiplicity = 1

 SCF Done:  E(RB3LYP) =  -445.330886841     A.U. after    1 cycles
 Normal termination of Gaussian 16 at Sun Jul 18 14:34:30 2021.

 -----------------------------
 #p B3LYP/6-31G* geom=allcheck
 -----------------------------

 Structure from the checkpoint file:  "SET_328_BBB30_conf1.geo_075_060_195.chk"
 --------------------------------------------
 SET_328_BBB30_conf1.geo_075_060_195 geometry
 --------------------------------------------
 Charge =  1 Multiplicity = 1

 SCF Done:  E(RB3LYP) =  -445.231211264     A.U. after   13 cycles
 Normal termination of Gaussian 16 at Sun Jul 18 14:34:51 2021.
 Gaussian 16:  ES64L-G16RevB.01 20-Dec-2017

 --------------------------------------------------------
 #p mp2/aug-cc-pVDZ scf=tight maxdisk=180GB geom=allcheck
 --------------------------------------------------------

 Structure from the checkpoint file:  "SET_328_BBB30_conf1.geo_075_060_195.chk"
 --------------------------------------------
 SET_328_BBB30_conf1.geo_075_060_195 geometry
 --------------------------------------------
 Charge =  1 Multiplicity = 1

                         Standard orientation:
 ---------------------------------------------------------------------
 Center     Atomic      Atomic             Coordinates (Angstroms)
 Number     Number       Type             X           Y           Z
 ---------------------------------------------------------------------
      1          6           0        2.758723    1.758983   -0.704855
      2          1           0        2.473578    1.622306   -1.746386
      3          1           0        3.772333    1.404137   -0.538629
      4          1           0        2.677641    2.807367   -0.424813
      5          7           0        1.817185    0.975399    0.148041
      6          1           0        0.873827    1.380927    0.041093
      7          6           0        1.746396   -0.504790   -0.154235
      8          6           0        3.074571   -1.172543    0.163819
      9          1           0        3.895340   -0.758992   -0.424699
     10          1           0        2.997111   -2.235692   -0.072580
     11          1           0        3.318394   -1.076092    1.224899
     12          1           0        1.542503   -0.562432   -1.225561
     13          6           0        0.582885   -1.135072    0.625960
     14          1           0        0.779337   -1.038493    1.698698
     15          1           0        0.615359   -2.204573    0.395483
     16          6           0       -0.785276   -0.573207    0.298966
     17          6           0       -1.401495   -0.847782   -0.931700
     18          1           0       -0.897634   -1.481458   -1.655993
     19          6           0       -2.659087   -0.325716   -1.231561
     20          1           0       -3.122133   -0.552044   -2.186386
     21          6           0       -3.324590    0.480438   -0.303894
     22          1           0       -4.304574    0.883634   -0.536285
     23          6           0       -2.723708    0.759173    0.923966
     24          1           0       -3.233948    1.379937    1.653368
     25          6           0       -1.463327    0.235188    1.220072
     26          1           0       -1.001521    0.448175    2.180202
     27          1           0        2.063547    1.107471    1.142072
 ---------------------------------------------------------------------

 SCF Done:  E(RHF) =  -442.297988506     A.U. after   15 cycles
 E2 =    -0.1585281848D+01 EUMP2 =    -0.44388327035446D+03

 The electronic state is 1-A.
 Alpha  occ. eigenvalues --  -15.86543 -11.46110 -11.45891 -11.39300 -11.38815
 Alpha  occ. eigenvalues --  -11.37756 -11.36493 -11.36279 -11.35901 -11.35865
 Alpha  occ. eigenvalues --  -11.35502  -1.48998  -1.28417  -1.23680  -1.16189
 Alpha  occ. eigenvalues --   -1.13640  -1.13368  -1.07538  -1.00712  -0.94979
 Alpha  occ. eigenvalues --   -0.94183  -0.92585  -0.85061  -0.83547  -0.81854
 Alpha  occ. eigenvalues --   -0.77618  -0.75694  -0.75205  -0.74380  -0.72663
 Alpha  occ. eigenvalues --   -0.71267  -0.70489  -0.69413  -0.68532  -0.67055
 Alpha  occ. eigenvalues --   -0.65799  -0.61361  -0.60914  -0.60759  -0.45644
 Alpha  occ. eigenvalues --   -0.45261
 Alpha virt. eigenvalues --   -0.08561  -0.06740  -0.06030  -0.05446  -0.03859
 Alpha virt. eigenvalues --   -0.03697  -0.03398  -0.03329  -0.03215  -0.01802
 Alpha virt. eigenvalues --   -0.01549  -0.01493  -0.01002  -0.00508  -0.00214

 Mulliken charges:
               1
     1  C    0.797660
     2  H   -0.068814
     3  H   -0.131020
     4  H   -0.127251
     5  N   -0.514676
     6  H    0.218378
     7  C   -0.300298
     8  C    0.816150
     9  H   -0.074362
    10  H    0.022070
    11  H   -0.041025
    12  H   -0.461373
    13  C    0.577898
    14  H   -0.204632
    15  H   -0.094740
    16  C    1.030164
    17  C    0.524335
    18  H   -0.699335
    19  C    0.122705
    20  H   -0.446001
    21  C    0.676027
    22  H   -0.418107
    23  C    0.160844
    24  H   -0.439496
    25  C    0.546688
    26  H   -0.673356
    27  H    0.201568
 Sum of Mulliken charges =   1.00000

 Dipole moment (field-independent basis, Debye):
    X=              7.0909    Y=              3.0187    Z=             -0.0444  Tot=              7.7069
 Quadrupole moment (field-independent basis, Debye-Ang):
   XX=            -34.8525   YY=            -56.6365   ZZ=            -58.9838
   XY=              3.7059   XZ=              1.3487   YZ=              2.4995

 Normal termination of Gaussian 16 at Sun Jul 18 14:41:47 2021.
