 Gaussian 16, Revision B.01,

 -----------------------------------------------------------
 #p b3lyp/6-31G(d) opt freq scrf=(iefpcm,read,solvent=water)
 -----------------------------------------------------------

 ---------------------------------------------
 SET_328_BBB301_conf1.geo_165_120_105 geometry
 ---------------------------------------------
 Symbolic Z-matrix:
 Charge =  1 Multiplicity = 1

 SCF Done:  E(RB3LYP) =  -788.860814871     A.U. after   12 cycles
 SCF Done:  E(RB3LYP) =  -788.898821779     A.U. after   11 cycles
 SCF Done:  E(RB3LYP) =  -788.918409848     A.U. after   10 cycles
 SCF Done:  E(RB3LYP) =  -788.923212184     A.U. after   11 cycles
 SCF Done:  E(RB3LYP) =  -788.924147282     A.U. after   10 cycles
 SCF Done:  E(RB3LYP) =  -788.924571223     A.U. after   11 cycles
 SCF Done:  E(RB3LYP) =  -788.924863533     A.U. after   10 cycles
 SCF Done:  E(RB3LYP) =  -788.925105356     A.U. after   10 cycles
 SCF Done:  E(RB3LYP) =  -788.925607279     A.U. after   10 cycles
 SCF Done:  E(RB3LYP) =  -788.926307729     A.U. after   11 cycles
 SCF Done:  E(RB3LYP) =  -788.929677736     A.U. after    8 cycles
 SCF Done:  E(RB3LYP) =  -788.929669300     A.U. after    7 cycles
 SCF Done:  E(RB3LYP) =  -788.929668308     A.U. after    7 cycles
 SCF Done:  E(RB3LYP) =  -788.929665587     A.U. after    8 cycles
 SCF Done:  E(RB3LYP) =  -788.929670382     A.U. after    8 cycles
 SCF Done:  E(RB3LYP) =  -788.929670419     A.U. after    7 cycles
 Optimization completed.
    -- Stationary point found.
 Normal termination of Gaussian 16 at Sun Jul 18 15:25:56 2021.

 --------------------------------------------------------------------
 #P Geom=AllCheck Guess=TCheck SCRF=Check GenChk RB3LYP/6-31G(d) Freq
 --------------------------------------------------------------------

 Structure from the checkpoint file:  "SET_328_BBB301_conf1.geo_165_120_105.chk"
 ---------------------------------------------
 SET_328_BBB301_conf1.geo_165_120_105 geometry
 ---------------------------------------------
 Charge =  1 Multiplicity = 1

 SCF Done:  E(RB3LYP) =  -788.929670419     A.U. after    1 cycles

  Exact polarizability: 241.727  12.737 194.202 -22.693  29.053 166.258
 Approx polarizability: 252.841  16.353 215.194 -27.060  34.359 183.758

                      1                      2                      3
                      A                      A                      A
 Frequencies --     33.0437                42.7587                63.0563
 Red. masses --      4.5508                 4.5205                 3.1239
 Frc consts  --      0.0029                 0.0049                 0.0073
 IR Inten    --      2.8663                 0.8341                 1.7216

                      4                      5                      6
                      A                      A                      A
 Frequencies --     87.1493                97.4575               125.6373
 Red. masses --      3.3960                 3.8224                 4.2323
 Frc consts  --      0.0152                 0.0214                 0.0394
 IR Inten    --      2.9930                 9.9024                 0.8834

                      7                      8                      9
                      A                      A                      A
 Frequencies --    154.7779               160.0118               202.8377
 Red. masses --      2.9364                 4.5527                 2.8083
 Frc consts  --      0.0414                 0.0687                 0.0681
 IR Inten    --      8.9290                 3.5776                 4.2689

                     10                     11                     12
                      A                      A                      A
 Frequencies --    220.8420               235.4798               252.8842
 Red. masses --      2.5609                 1.4075                 2.1900
 Frc consts  --      0.0736                 0.0460                 0.0825
 IR Inten    --      0.1117                 0.6023                 9.1747

                     13                     14                     15
                      A                      A                      A
 Frequencies --    257.7381               276.0749               279.4092
 Red. masses --      1.3773                 1.2917                 1.7678
 Frc consts  --      0.0539                 0.0580                 0.0813
 IR Inten    --    120.5231                 8.5231                22.5862

                     16                     17                     18
                      A                      A                      A
 Frequencies --    292.5028               304.4867               350.2512
 Red. masses --      1.1003                 3.0283                 1.6039
 Frc consts  --      0.0555                 0.1654                 0.1159
 IR Inten    --      1.5458                88.1251                97.7528

                     19                     20                     21
                      A                      A                      A
 Frequencies --    352.3003               356.6650               379.7744
 Red. masses --      1.5621                 2.3556                 4.6391
 Frc consts  --      0.1142                 0.1766                 0.3942
 IR Inten    --    109.3104                39.8901                 3.7122

                     22                     23                     24
                      A                      A                      A
 Frequencies --    408.3375               441.2150               449.5962
 Red. masses --      3.9126                 1.9645                 1.5146
 Frc consts  --      0.3844                 0.2253                 0.1804
 IR Inten    --      0.4662                41.6075               156.8822

                     25                     26                     27
                      A                      A                      A
 Frequencies --    455.6432               463.0277               479.6957
 Red. masses --      2.1916                 2.3928                 3.6412
 Frc consts  --      0.2681                 0.3023                 0.4937
 IR Inten    --     30.1837                18.3491                10.7229

                     28                     29                     30
                      A                      A                      A
 Frequencies --    492.6556               532.1572               592.8614
 Red. masses --      3.0487                 2.8481                 3.4992
 Frc consts  --      0.4360                 0.4752                 0.7246
 IR Inten    --     15.6412                11.0600                19.6058

                     31                     32                     33
                      A                      A                      A
 Frequencies --    614.8292               668.6171               735.0465
 Red. masses --      6.0516                 4.5754                 4.5773
 Frc consts  --      1.3478                 1.2051                 1.4571
 IR Inten    --     14.9139                25.8524                 0.1324

                     34                     35                     36
                      A                      A                      A
 Frequencies --    750.9869               782.5366               810.4001
 Red. masses --      4.4630                 4.4694                 2.9663
 Frc consts  --      1.4830                 1.6125                 1.1478
 IR Inten    --      6.2440                17.6857                 9.8209

                     37                     38                     39
                      A                      A                      A
 Frequencies --    833.7670               838.0162               882.0837
 Red. masses --      1.4284                 1.5465                 2.8246
 Frc consts  --      0.5850                 0.6399                 1.2949
 IR Inten    --     42.7473                11.7907                 1.4056

                     40                     41                     42
                      A                      A                      A
 Frequencies --    919.5100               928.3615               947.4360
 Red. masses --      1.4388                 2.4092                 1.5971
 Frc consts  --      0.7168                 1.2234                 0.8447
 IR Inten    --     29.1372                29.6592                 0.5899

                     43                     44                     45
                      A                      A                      A
 Frequencies --    950.6733               957.1661               962.7927
 Red. masses --      1.5482                 1.7446                 1.6526
 Frc consts  --      0.8244                 0.9417                 0.9026
 IR Inten    --      0.4086                 9.1564                 3.1327

                     46                     47                     48
                      A                      A                      A
 Frequencies --    986.5615               992.2895              1017.8906
 Red. masses --      1.2240                 1.7397                 3.4702
 Frc consts  --      0.7019                 1.0092                 2.1184
 IR Inten    --      1.6528                26.4758                29.7431

                     49                     50                     51
                      A                      A                      A
 Frequencies --   1033.4134              1050.6002              1067.2208
 Red. masses --      1.8721                 5.7631                 1.8039
 Frc consts  --      1.1780                 3.7478                 1.2105
 IR Inten    --     37.1830               123.3874               103.6726

                     52                     53                     54
                      A                      A                      A
 Frequencies --   1084.7871              1114.3440              1135.0733
 Red. masses --      1.6256                 2.2541                 2.2505
 Frc consts  --      1.1271                 1.6491                 1.7084
 IR Inten    --      8.9907                29.0196               153.1839

                     55                     56                     57
                      A                      A                      A
 Frequencies --   1184.9273              1195.0732              1208.7363
 Red. masses --      1.3028                 1.2434                 1.3266
 Frc consts  --      1.0778                 1.0463                 1.1420
 IR Inten    --     66.2388                10.1515                27.1508

                     58                     59                     60
                      A                      A                      A
 Frequencies --   1224.1948              1226.0771              1266.0206
 Red. masses --      1.6271                 1.6217                 2.1578
 Frc consts  --      1.4367                 1.4364                 2.0378
 IR Inten    --    207.4087                74.7201                28.7458

                     61                     62                     63
                      A                      A                      A
 Frequencies --   1269.5807              1294.5252              1299.2720
 Red. masses --      2.3981                 1.9274                 2.8842
 Frc consts  --      2.2774                 1.9031                 2.8687
 IR Inten    --     19.3421                11.8487               164.9389

                     64                     65                     66
                      A                      A                      A
 Frequencies --   1325.8947              1334.7678              1354.2685
 Red. masses --      1.7751                 1.5445                 1.4834
 Frc consts  --      1.8386                 1.6212                 1.6029
 IR Inten    --      5.1718                86.8823                 7.1268

                     67                     68                     69
                      A                      A                      A
 Frequencies --   1378.0924              1387.0478              1400.3336
 Red. masses --      1.5603                 1.3680                 1.8440
 Frc consts  --      1.7459                 1.5506                 2.1305
 IR Inten    --    168.3697                16.9788                12.5336

                     70                     71                     72
                      A                      A                      A
 Frequencies --   1426.8995              1431.9479              1434.3373
 Red. masses --      1.3409                 1.2258                 1.2872
 Frc consts  --      1.6086                 1.4809                 1.5603
 IR Inten    --     27.1162                36.0966                60.9709

                     73                     74                     75
                      A                      A                      A
 Frequencies --   1438.5205              1440.5830              1453.2529
 Red. masses --      1.3115                 1.2310                 1.2273
 Frc consts  --      1.5990                 1.5051                 1.5271
 IR Inten    --     59.2006                68.8944                18.4987

                     76                     77                     78
                      A                      A                      A
 Frequencies --   1477.9362              1484.8267              1501.2961
 Red. masses --      1.3550                 2.3363                 1.0467
 Frc consts  --      1.7438                 3.0348                 1.3899
 IR Inten    --    165.2349                17.9967                 1.3427

                     79                     80                     81
                      A                      A                      A
 Frequencies --   1505.9322              1508.3904              1511.8138
 Red. masses --      1.0609                 1.0463                 1.0669
 Frc consts  --      1.4175                 1.4025                 1.4367
 IR Inten    --      2.2498                 0.3936                 8.1420

                     82                     83                     84
                      A                      A                      A
 Frequencies --   1518.4054              1527.0866              1532.5600
 Red. masses --      1.0927                 1.0705                 1.0699
 Frc consts  --      1.4843                 1.4709                 1.4805
 IR Inten    --      0.8310                 6.5749                17.7661

                     85                     86                     87
                      A                      A                      A
 Frequencies --   1537.9983              1562.6757              1633.8423
 Red. masses --      1.0804                 2.4932                 1.0686
 Frc consts  --      1.5057                 3.5872                 1.6806
 IR Inten    --      6.5289                59.8727               110.3239

                     88                     89                     90
                      A                      A                      A
 Frequencies --   1655.4425              1667.2579              3019.1336
 Red. masses --      6.0619                 6.2263                 1.0700
 Frc consts  --      9.7878                10.1974                 5.7463
 IR Inten    --     11.7507                72.8092                99.6874

                     91                     92                     93
                      A                      A                      A
 Frequencies --   3039.9896              3073.0782              3075.3806
 Red. masses --      1.0846                 1.0357                 1.0356
 Frc consts  --      5.9053                 5.7630                 5.7709
 IR Inten    --     68.3813                25.0272                28.5206

                     94                     95                     96
                      A                      A                      A
 Frequencies --   3082.5799              3120.1373              3144.2538
 Red. masses --      1.0368                 1.0938                 1.0941
 Frc consts  --      5.8044                 6.2738                 6.3729
 IR Inten    --      2.2901                56.6053                13.3555

                     97                     98                     99
                      A                      A                      A
 Frequencies --   3145.6577              3149.5232              3150.9779
 Red. masses --      1.1017                 1.0910                 1.0930
 Frc consts  --      6.4228                 6.3764                 6.3939
 IR Inten    --     32.0688                11.6753                20.2271

                    100                    101                    102
                      A                      A                      A
 Frequencies --   3154.4843              3156.5157              3161.5648
 Red. masses --      1.0904                 1.1029                 1.1022
 Frc consts  --      6.3929                 6.4745                 6.4911
 IR Inten    --     55.1431                 3.3846                58.6480

                    103                    104                    105
                      A                      A                      A
 Frequencies --   3186.1515              3212.7840              3217.7740
 Red. masses --      1.0899                 1.0884                 1.1083
 Frc consts  --      6.5188                 6.6191                 6.7610
 IR Inten    --     27.3072                15.8430                 8.8256

                    106                    107                    108
                      A                      A                      A
 Frequencies --   3231.8260              3360.2187              3404.6964
 Red. masses --      1.0927                 1.0559                 1.0944
 Frc consts  --      6.7243                 7.0243                 7.4747
 IR Inten    --     12.0031               124.8306               184.0309

                    109                    110                    111
                      A                      A                      A
 Frequencies --   3691.2027              3699.8727              3705.8478
 Red. masses --      1.0657                 1.0660                 1.0665
 Frc consts  --      8.5554                 8.5978                 8.6298
 IR Inten    --    188.8832               147.7367               133.5506

 - Thermochemistry -
 -------------------
 Temperature   298.150 Kelvin.  Pressure   1.00000 Atm.
 Atom     1 has atomic number  6 and mass  12.00000

 Molecular mass:   240.15997 amu.
 Principal axes and moments of inertia in atomic units:
                           1         2         3
     Eigenvalues --  1912.56490********************
           X            0.99997  -0.00695   0.00416
           Y            0.00683   0.99961   0.02697
           Z           -0.00435  -0.02694   0.99963
 This molecule is an asymmetric top.
 Rotational symmetry number  1.
 Warning -- assumption of classical behavior for rotation
           may cause significant error
 Rotational temperatures (Kelvin)      0.04529     0.00861     0.00801
 Rotational constants (GHZ):           0.94362     0.17931     0.16684
 Zero-point vibrational energy     907296.9 (Joules/Mol)
                                  216.84917 (Kcal/Mol)
 Warning -- explicit consideration of  31 degrees of freedom as
           vibrations may cause significant error
 Vibrational temperatures:     47.54    61.52    90.72   125.39   140.22
          (Kelvin)            180.76   222.69   230.22   291.84   317.74
                              338.80   363.84   370.83   397.21   402.01
                              420.85   438.09   503.93   506.88   513.16
                              546.41   587.51   634.81   646.87   655.57
                              666.19   690.18   708.82   765.66   853.00
                              884.60   961.99  1057.57  1080.50  1125.90
                             1165.99  1199.60  1205.72  1269.12  1322.97
                             1335.71  1363.15  1367.81  1377.15  1385.24
                             1419.44  1427.68  1464.52  1486.85  1511.58
                             1535.49  1560.77  1603.29  1633.12  1704.85
                             1719.44  1739.10  1761.34  1764.05  1821.52
                             1826.64  1862.53  1869.36  1907.67  1920.43
                             1948.49  1982.77  1995.65  2014.77  2052.99
                             2060.25  2063.69  2069.71  2072.68  2090.91
                             2126.42  2136.33  2160.03  2166.70  2170.24
                             2175.16  2184.65  2197.14  2205.01  2212.84
                             2248.34  2350.73  2381.81  2398.81  4343.86
                             4373.87  4421.47  4424.79  4435.14  4489.18
                             4523.88  4525.90  4531.46  4533.55  4538.60
                             4541.52  4548.79  4584.16  4622.48  4629.66
                             4649.88  4834.61  4898.60  5310.82  5323.29
                             5331.89

 Zero-point correction=                           0.345571 (Hartree/Particle)
 Thermal correction to Energy=                    0.363910
 Thermal correction to Enthalpy=                  0.364854
 Thermal correction to Gibbs Free Energy=         0.299717
 Sum of electronic and zero-point Energies=           -788.584099
 Sum of electronic and thermal Energies=              -788.565760
 Sum of electronic and thermal Enthalpies=            -788.564816
 Sum of electronic and thermal Free Energies=         -788.629953

                     E (Thermal)             CV                S
                      KCal/Mol        Cal/Mol-Kelvin    Cal/Mol-Kelvin
 Total                  228.357             70.945            137.093
 Electronic               0.000              0.000              0.000
 Translational            0.889              2.981             42.330
 Rotational               0.889              2.981             33.698
 Vibrational            226.580             64.984             61.065
 Vibration     1          0.594              1.983              5.638
 Vibration     2          0.595              1.980              5.127
 Vibration     3          0.597              1.972              4.359
 Vibration     4          0.601              1.958              3.723
 Vibration     5          0.603              1.951              3.505
 Vibration     6          0.611              1.927              3.012
 Vibration     7          0.620              1.897              2.613
 Vibration     8          0.622              1.891              2.550
 Vibration     9          0.639              1.836              2.107
 Vibration    10          0.648              1.809              1.952
 Vibration    11          0.655              1.786              1.837
 Vibration    12          0.664              1.758              1.710
 Vibration    13          0.667              1.750              1.677
 Vibration    14          0.678              1.718              1.558
 Vibration    15          0.680              1.712              1.537
 Vibration    16          0.688              1.688              1.459
 Vibration    17          0.695              1.665              1.392
 Vibration    18          0.727              1.575              1.165
 Vibration    19          0.729              1.571              1.156
 Vibration    20          0.732              1.562              1.137
 Vibration    21          0.750              1.513              1.040
 Vibration    22          0.773              1.452              0.933
 Vibration    23          0.801              1.380              0.823
 Vibration    24          0.808              1.362              0.797
 Vibration    25          0.814              1.348              0.779
 Vibration    26          0.821              1.332              0.757
 Vibration    27          0.836              1.295              0.711
 Vibration    28          0.848              1.266              0.677
 Vibration    29          0.887              1.179              0.582
 Vibration    30          0.950              1.047              0.462
 Vibration    31          0.974              1.001              0.425

                           ! Non-Optimized Parameters !
 Normal termination of Gaussian 16 at Sun Jul 18 15:38:23 2021.

 ----------------------------------------------------------------------
 #p b3lyp/6-31G(d) scrf=(iefpcm,read,solvent=water) geom=allcheck guess
 =read
 ----------------------------------------------------------------------

 Structure from the checkpoint file:  "SET_328_BBB301_conf1.geo_165_120_105.chk"
 ---------------------------------------------
 SET_328_BBB301_conf1.geo_165_120_105 geometry
 ---------------------------------------------
 Charge =  1 Multiplicity = 1

 SCF Done:  E(RB3LYP) =  -788.929670419     A.U. after    1 cycles
 Normal termination of Gaussian 16 at Sun Jul 18 15:38:35 2021.

 -----------------------------
 #p B3LYP/6-31G* geom=allcheck
 -----------------------------

 Structure from the checkpoint file:  "SET_328_BBB301_conf1.geo_165_120_105.chk"
 ---------------------------------------------
 SET_328_BBB301_conf1.geo_165_120_105 geometry
 ---------------------------------------------
 Charge =  1 Multiplicity = 1

 SCF Done:  E(RB3LYP) =  -788.820565979     A.U. after   14 cycles

 The electronic state is 1-A.
 Alpha  occ. eigenvalues --  -19.30191 -19.28873 -19.20838 -14.60990 -10.41093
 Alpha  occ. eigenvalues --  -10.39667 -10.39451 -10.35651 -10.33275 -10.33155
 Alpha  occ. eigenvalues --  -10.33049 -10.31321 -10.30694 -10.30196 -10.30189
 Alpha  occ. eigenvalues --  -10.29735 -10.29383  -1.18270  -1.16714  -1.15630
 Alpha  occ. eigenvalues --   -1.08130  -0.97491  -0.96430  -0.91481  -0.86851
 Alpha  occ. eigenvalues --   -0.86032  -0.85241  -0.84217  -0.78361  -0.76566
 Alpha  occ. eigenvalues --   -0.75077  -0.74422  -0.73220  -0.69248  -0.66213
 Alpha  occ. eigenvalues --   -0.65697  -0.64933  -0.64627  -0.61031  -0.59638
 Alpha  occ. eigenvalues --   -0.58998  -0.58534  -0.56565  -0.56232  -0.55634
 Alpha  occ. eigenvalues --   -0.54592  -0.53942  -0.53811  -0.53461  -0.52820
 Alpha  occ. eigenvalues --   -0.52363  -0.52149  -0.50766  -0.49884  -0.49632
 Alpha  occ. eigenvalues --   -0.49518  -0.48663  -0.47174  -0.45627  -0.44405
 Alpha  occ. eigenvalues --   -0.42405  -0.40558  -0.35463  -0.33825  -0.32877
 Alpha virt. eigenvalues --   -0.11695  -0.11099  -0.10958  -0.06893  -0.05982
 Alpha virt. eigenvalues --   -0.04906  -0.04269  -0.03161  -0.02160  -0.01352
 Alpha virt. eigenvalues --   -0.00087   0.00445   0.00918   0.01515   0.01812

 Mulliken charges:
               1
     1  C   -0.461945
     2  H    0.204863
     3  H    0.177562
     4  H    0.182600
     5  C    0.132283
     6  C   -0.462197
     7  H    0.206395
     8  H    0.184322
     9  H    0.169657
    10  C   -0.469104
    11  H    0.172598
    12  H    0.176304
    13  H    0.208734
    14  N   -0.618895
    15  H    0.409386
    16  C   -0.176213
    17  H    0.220818
    18  H    0.223828
    19  C    0.036396
    20  O   -0.639299
    21  H    0.428591
    22  H    0.149513
    23  C    0.121298
    24  C   -0.254125
    25  H    0.129407
    26  C    0.133824
    27  C   -0.105884
    28  O   -0.619961
    29  H    0.416751
    30  H    0.156357
    31  H    0.152605
    32  C    0.314321
    33  O   -0.650576
    34  H    0.428692
    35  C   -0.177650
    36  H    0.149919
    37  C   -0.195306
    38  H    0.153013
    39  H    0.391121
 Sum of Mulliken charges =   1.00000

 Dipole moment (field-independent basis, Debye):
    X=            -10.5837    Y=             -2.4077    Z=              1.1859  Tot=             10.9187
 Quadrupole moment (field-independent basis, Debye-Ang):
   XX=            -35.4066   YY=            -95.8761   ZZ=            -86.7024
   XY=            -19.8774   XZ=             -7.8387   YZ=              3.0506

 Normal termination of Gaussian 16 at Sun Jul 18 15:39:25 2021.
 Gaussian 16:  ES64L-G16RevB.01 20-Dec-2017

 --------------------------------------------------------
 #p mp2/aug-cc-pVDZ scf=tight maxdisk=180GB geom=allcheck
 --------------------------------------------------------

 Structure from the checkpoint file:  "SET_328_BBB301_conf1.geo_165_120_105.chk"
 ---------------------------------------------
 SET_328_BBB301_conf1.geo_165_120_105 geometry
 ---------------------------------------------
 Charge =  1 Multiplicity = 1

                         Standard orientation:
 ---------------------------------------------------------------------
 Center     Atomic      Atomic             Coordinates (Angstroms)
 Number     Number       Type             X           Y           Z
 ---------------------------------------------------------------------
      1          6           0       -4.096901   -0.327698   -1.611846
      2          1           0       -4.956498   -0.018209   -2.210766
      3          1           0       -4.214392   -1.389285   -1.375399
      4          1           0       -3.202166   -0.200041   -2.226628
      5          6           0       -4.056737    0.525932   -0.342372
      6          6           0       -3.789700    1.999702   -0.656324
      7          1           0       -4.620403    2.388358   -1.250196
      8          1           0       -2.872312    2.134970   -1.236146
      9          1           0       -3.719803    2.595070    0.258475
     10          6           0       -5.348923    0.359706    0.461896
     11          1           0       -5.325927    0.953079    1.379704
     12          1           0       -5.522050   -0.688237    0.726645
     13          1           0       -6.192773    0.701448   -0.141269
     14          7           0       -2.934862    0.007628    0.565966
     15          1           0       -3.124501   -0.981362    0.791547
     16          6           0       -1.523100    0.079798    0.065582
     17          1           0       -1.224724    1.124635    0.021715
     18          1           0       -1.499637   -0.350185   -0.934848
     19          6           0       -0.610659   -0.724153    0.995955
     20          8           0       -1.168357   -2.035355    1.006338
     21          1           0       -0.728603   -2.545965    1.710134
     22          1           0       -0.654077   -0.282165    2.000043
     23          6           0        0.823313   -0.688749    0.498426
     24          6           0        1.683910    0.351158    0.873334
     25          1           0        1.333765    1.124630    1.552657
     26          6           0        2.992965    0.422874    0.402055
     27          6           0        3.935538    1.531488    0.805032
     28          8           0        4.450450    2.261187   -0.308204
     29          1           0        4.951876    1.614755   -0.836758
     30          1           0        4.759472    1.119025    1.404853
     31          1           0        3.405001    2.252730    1.431101
     32          6           0        3.447012   -0.581415   -0.470796
     33          8           0        4.739877   -0.462729   -0.901425
     34          1           0        4.961712   -1.189143   -1.512662
     35          6           0        2.607956   -1.629837   -0.851834
     36          1           0        2.973313   -2.403985   -1.519145
     37          6           0        1.299663   -1.676069   -0.366523
     38          1           0        0.641996   -2.490743   -0.647042
     39          1           0       -2.987012    0.515980    1.463033
 ---------------------------------------------------------------------

 SCF Done:  E(RHF) =  -784.035244653     A.U. after   16 cycles
