 Gaussian 16, Revision B.01,

 -----------------------------------------------------------
 #p b3lyp/6-31G(d) opt freq scrf=(iefpcm,read,solvent=water)
 -----------------------------------------------------------

 ---------------------------------------------
 SET_328_BBB292_conf1.geo_255_060_105 geometry
 ---------------------------------------------
 Symbolic Z-matrix:
 Charge =  1 Multiplicity = 1

 SCF Done:  E(RB3LYP) =  -705.582567450     A.U. after   13 cycles
 SCF Done:  E(RB3LYP) =  -705.652682890     A.U. after   12 cycles
 SCF Done:  E(RB3LYP) =  -705.660418169     A.U. after   14 cycles
 SCF Done:  E(RB3LYP) =  -705.700802745     A.U. after   13 cycles
 SCF Done:  E(RB3LYP) =  -705.706330361     A.U. after   11 cycles
 SCF Done:  E(RB3LYP) =  -705.707191333     A.U. after   11 cycles
 SCF Done:  E(RB3LYP) =  -705.708845241     A.U. after   11 cycles
 SCF Done:  E(RB3LYP) =  -705.709117610     A.U. after   10 cycles
 SCF Done:  E(RB3LYP) =  -705.708255153     A.U. after   12 cycles
 SCF Done:  E(RB3LYP) =  -705.709839148     A.U. after   11 cycles
 SCF Done:  E(RB3LYP) =  -705.710169521     A.U. after   10 cycles
 SCF Done:  E(RB3LYP) =  -705.710171072     A.U. after    8 cycles
 SCF Done:  E(RB3LYP) =  -705.710180971     A.U. after    8 cycles
 SCF Done:  E(RB3LYP) =  -705.710182157     A.U. after    7 cycles
 SCF Done:  E(RB3LYP) =  -705.710183582     A.U. after    8 cycles
 SCF Done:  E(RB3LYP) =  -705.710183199     A.U. after    8 cycles
 Optimization completed.
    -- Stationary point found.
 Normal termination of Gaussian 16 at Sun Jul 18 14:02:07 2021.

 --------------------------------------------------------------------
 #P Geom=AllCheck Guess=TCheck SCRF=Check GenChk RB3LYP/6-31G(d) Freq
 --------------------------------------------------------------------

 Structure from the checkpoint file:  "SET_328_BBB292_conf1.geo_255_060_105.chk"
 ---------------------------------------------
 SET_328_BBB292_conf1.geo_255_060_105 geometry
 ---------------------------------------------
 Charge =  1 Multiplicity = 1

 SCF Done:  E(RB3LYP) =  -705.710183199     A.U. after    1 cycles

  Exact polarizability: 177.496  13.215 148.976  29.049 -22.740 107.124
 Approx polarizability: 194.627  17.771 177.064  35.789 -29.366 129.251

                      1                      2                      3
                      A                      A                      A
 Frequencies --     45.9965                54.5202                77.2066
 Red. masses --      6.1632                 9.8759                 5.3107
 Frc consts  --      0.0077                 0.0173                 0.0187
 IR Inten    --      7.7495                10.7027                12.4882

                      4                      5                      6
                      A                      A                      A
 Frequencies --    107.0960               152.6742               203.3390
 Red. masses --      6.1355                 6.5424                 5.1802
 Frc consts  --      0.0415                 0.0898                 0.1262
 IR Inten    --     16.7833                14.3446                21.7417

                      7                      8                      9
                      A                      A                      A
 Frequencies --    266.5607               273.5557               295.8355
 Red. masses --      3.7653                 3.5280                 2.9685
 Frc consts  --      0.1576                 0.1556                 0.1531
 IR Inten    --     18.6814                40.6399                23.2441

                     10                     11                     12
                      A                      A                      A
 Frequencies --    305.4030               311.6171               329.4319
 Red. masses --      1.2488                 4.0484                 3.0613
 Frc consts  --      0.0686                 0.2316                 0.1957
 IR Inten    --    332.8226                51.6080                 8.0931

                     13                     14                     15
                      A                      A                      A
 Frequencies --    336.9766               384.0484               392.7226
 Red. masses --      1.0710                 2.5066                 1.3841
 Frc consts  --      0.0717                 0.2178                 0.1258
 IR Inten    --      0.5392                10.2347                 4.0170

                     16                     17                     18
                      A                      A                      A
 Frequencies --    456.6931               470.9297               503.6781
 Red. masses --      4.0683                 3.7392                 5.5229
 Frc consts  --      0.4999                 0.4886                 0.8255
 IR Inten    --      3.7125                 6.5943                27.4047

                     19                     20                     21
                      A                      A                      A
 Frequencies --    566.5715               572.0572               597.7642
 Red. masses --      3.0789                 1.6794                 5.0247
 Frc consts  --      0.5823                 0.3238                 1.0578
 IR Inten    --     44.6154                80.9195                 1.8686

                     22                     23                     24
                      A                      A                      A
 Frequencies --    635.0479               646.2245               705.4696
 Red. masses --      4.7676                 2.2930                 5.6477
 Frc consts  --      1.1328                 0.5642                 1.6561
 IR Inten    --     13.6356                47.1452                 1.3391

                     25                     26                     27
                      A                      A                      A
 Frequencies --    752.8224               767.3997               801.7317
 Red. masses --      4.9274                 4.7396                 4.7321
 Frc consts  --      1.6453                 1.6445                 1.7921
 IR Inten    --      0.8941                 9.1354                29.4564

                     28                     29                     30
                      A                      A                      A
 Frequencies --    806.2856               824.8271               893.6545
 Red. masses --      2.3695                 2.1383                 1.3466
 Frc consts  --      0.9076                 0.8571                 0.6336
 IR Inten    --     20.2725                38.6985                35.0185

                     31                     32                     33
                      A                      A                      A
 Frequencies --    925.7321               939.1546               959.2903
 Red. masses --      1.3067                 1.9484                 2.0628
 Frc consts  --      0.6598                 1.0125                 1.1184
 IR Inten    --      0.9084                22.4627                24.9340

                     34                     35                     36
                      A                      A                      A
 Frequencies --    979.7228              1032.9653              1110.9380
 Red. masses --      3.0140                 3.1013                 1.5020
 Frc consts  --      1.7045                 1.9497                 1.0922
 IR Inten    --      8.6764                69.6390                96.1418

                     37                     38                     39
                      A                      A                      A
 Frequencies --   1140.1955              1154.1155              1178.2202
 Red. masses --      1.8124                 1.8024                 1.4505
 Frc consts  --      1.3883                 1.4145                 1.1864
 IR Inten    --    189.4916                17.6903                53.5208

                     40                     41                     42
                      A                      A                      A
 Frequencies --   1200.6606              1227.0937              1237.3378
 Red. masses --      1.4182                 1.5753                 1.4433
 Frc consts  --      1.2046                 1.3976                 1.3019
 IR Inten    --    177.9606                85.2004                 7.8335

                     43                     44                     45
                      A                      A                      A
 Frequencies --   1299.1563              1314.3886              1325.7220
 Red. masses --      2.2920                 2.4327                 4.0306
 Frc consts  --      2.2792                 2.4762                 4.1738
 IR Inten    --     70.4483                53.1197               333.1086

                     46                     47                     48
                      A                      A                      A
 Frequencies --   1365.0006              1374.4218              1383.0490
 Red. masses --      1.4138                 1.4007                 1.3469
 Frc consts  --      1.5521                 1.5590                 1.5179
 IR Inten    --     38.8880               544.5542                16.9347

                     49                     50                     51
                      A                      A                      A
 Frequencies --   1401.6023              1421.1652              1424.6832
 Red. masses --      2.1232                 1.3799                 1.7546
 Frc consts  --      2.4575                 1.6421                 2.0983
 IR Inten    --    212.2577                 6.3676                47.3329

                     52                     53                     54
                      A                      A                      A
 Frequencies --   1517.1205              1526.4663              1541.4541
 Red. masses --      2.3797                 1.1735                 1.1578
 Frc consts  --      3.2272                 1.6111                 1.6209
 IR Inten    --      9.4046                16.5347               213.8423

                     55                     56                     57
                      A                      A                      A
 Frequencies --   1568.0590              1636.6507              1649.0902
 Red. masses --      3.0863                 1.0479                 1.0910
 Frc consts  --      4.4711                 1.6539                 1.7481
 IR Inten    --    217.2051                83.5270                84.3042

                     58                     59                     60
                      A                      A                      A
 Frequencies --   1656.2933              1677.1547              1840.2311
 Red. masses --      4.9190                 6.1708                 8.3808
 Frc consts  --      7.9506                10.2268                16.7217
 IR Inten    --    105.1017                20.0122               381.5704

                     61                     62                     63
                      A                      A                      A
 Frequencies --   3079.9351              3123.6323              3180.2886
 Red. masses --      1.0597                 1.1053                 1.0878
 Frc consts  --      5.9225                 6.3538                 6.4824
 IR Inten    --     36.7752                18.3776                 4.5133

                     64                     65                     66
                      A                      A                      A
 Frequencies --   3206.7255              3215.1562              3221.4411
 Red. masses --      1.0876                 1.0908                 1.0947
 Frc consts  --      6.5892                 6.6436                 6.6937
 IR Inten    --     19.5466                18.7625                14.2169

                     67                     68                     69
                      A                      A                      A
 Frequencies --   3345.0727              3408.7285              3430.5232
 Red. masses --      1.0371                 1.0897                 1.0949
 Frc consts  --      6.8371                 7.4603                 7.5918
 IR Inten    --    181.7010               262.1647               271.2908

                     70                     71                     72
                      A                      A                      A
 Frequencies --   3691.1669              3693.2441              3698.3443
 Red. masses --      1.0664                 1.0656                 1.0673
 Frc consts  --      8.5605                 8.5639                 8.6010
 IR Inten    --    335.5095               143.9497               187.3751

 - Thermochemistry -
 -------------------
 Temperature   298.150 Kelvin.  Pressure   1.00000 Atm.
 Atom     1 has atomic number  7 and mass  14.00307

 Molecular mass:   198.07663 amu.
 Principal axes and moments of inertia in atomic units:
                           1         2         3
     Eigenvalues --  1390.784004784.030825329.59260
           X            0.99983   0.01144   0.01444
           Y           -0.01098   0.99944  -0.03146
           Z           -0.01479   0.03129   0.99940
 This molecule is an asymmetric top.
 Rotational symmetry number  1.
 Warning -- assumption of classical behavior for rotation
           may cause significant error
 Rotational temperatures (Kelvin)      0.06228     0.01810     0.01625
 Rotational constants (GHZ):           1.29764     0.37724     0.33863
 Zero-point vibrational energy     561285.1 (Joules/Mol)
                                  134.15035 (Kcal/Mol)
 Warning -- explicit consideration of  21 degrees of freedom as
           vibrations may cause significant error
 Vibrational temperatures:     66.18    78.44   111.08   154.09   219.66
          (Kelvin)            292.56   383.52   393.59   425.64   439.41
                              448.35   473.98   484.83   552.56   565.04
                              657.08   677.56   724.68   815.17   823.06
                              860.05   913.69   929.77  1015.01  1083.14
                             1104.12  1153.51  1160.07  1186.74  1285.77
                             1331.92  1351.23  1380.20  1409.60  1486.21
                             1598.39  1640.49  1660.51  1695.20  1727.48
                             1765.51  1780.25  1869.20  1891.11  1907.42
                             1963.93  1977.49  1989.90  2016.59  2044.74
                             2049.80  2182.80  2196.24  2217.81  2256.09
                             2354.78  2372.67  2383.04  2413.05  2647.68
                             4431.34  4494.21  4575.73  4613.76  4625.89
                             4634.94  4812.81  4904.40  4935.76  5310.77
                             5313.75  5321.09

 Zero-point correction=                           0.213782 (Hartree/Particle)
 Thermal correction to Energy=                    0.227083
 Thermal correction to Enthalpy=                  0.228027
 Thermal correction to Gibbs Free Energy=         0.173741
 Sum of electronic and zero-point Energies=           -705.496401
 Sum of electronic and thermal Energies=              -705.483100
 Sum of electronic and thermal Enthalpies=            -705.482156
 Sum of electronic and thermal Free Energies=         -705.536442

                     E (Thermal)             CV                S
                      KCal/Mol        Cal/Mol-Kelvin    Cal/Mol-Kelvin
 Total                  142.497             51.074            114.256
 Electronic               0.000              0.000              0.000
 Translational            0.889              2.981             41.755
 Rotational               0.889              2.981             31.939
 Vibrational            140.719             45.112             40.561
 Vibration     1          0.595              1.979              4.982
 Vibration     2          0.596              1.976              4.646
 Vibration     3          0.599              1.964              3.961
 Vibration     4          0.606              1.944              3.321
 Vibration     5          0.619              1.900              2.639
 Vibration     6          0.639              1.835              2.103
 Vibration     7          0.672              1.734              1.618
 Vibration     8          0.676              1.722              1.574
 Vibration     9          0.690              1.681              1.440
 Vibration    10          0.696              1.663              1.387
 Vibration    11          0.700              1.652              1.354
 Vibration    12          0.712              1.617              1.263
 Vibration    13          0.718              1.602              1.226
 Vibration    14          0.753              1.504              1.023
 Vibration    15          0.760              1.486              0.990
 Vibration    16          0.815              1.346              0.776
 Vibration    17          0.828              1.315              0.735
 Vibration    18          0.859              1.242              0.649
 Vibration    19          0.922              1.104              0.511
 Vibration    20          0.928              1.092              0.500
 Vibration    21          0.956              1.037              0.454

 Optimization completed.
    -- Stationary point found.
 Normal termination of Gaussian 16 at Sun Jul 18 14:08:10 2021.

 ----------------------------------------------------------------------
 #p b3lyp/6-31G(d) scrf=(iefpcm,read,solvent=water) geom=allcheck guess
 =read
 ----------------------------------------------------------------------

 Structure from the checkpoint file:  "SET_328_BBB292_conf1.geo_255_060_105.chk"
 ---------------------------------------------
 SET_328_BBB292_conf1.geo_255_060_105 geometry
 ---------------------------------------------
 Charge =  1 Multiplicity = 1

 SCF Done:  E(RB3LYP) =  -705.710183199     A.U. after    1 cycles
 Normal termination of Gaussian 16 at Sun Jul 18 14:08:17 2021.

 -----------------------------
 #p B3LYP/6-31G* geom=allcheck
 -----------------------------

 Structure from the checkpoint file:  "SET_328_BBB292_conf1.geo_255_060_105.chk"
 ---------------------------------------------
 SET_328_BBB292_conf1.geo_255_060_105 geometry
 ---------------------------------------------
 Charge =  1 Multiplicity = 1

 SCF Done:  E(RB3LYP) =  -705.554796937     A.U. after   16 cycles

 The electronic state is 1-A.
 Alpha  occ. eigenvalues --  -19.36470 -19.29429 -19.29237 -19.27132 -14.68016
 Alpha  occ. eigenvalues --  -10.48696 -10.44753 -10.37435 -10.35939 -10.35520
 Alpha  occ. eigenvalues --  -10.32200 -10.30503 -10.30305 -10.30190  -1.26922
 Alpha  occ. eigenvalues --   -1.21741  -1.17722  -1.17660  -1.14478  -0.99175
 Alpha  occ. eigenvalues --   -0.95333  -0.88281  -0.85565  -0.82897  -0.80892
 Alpha  occ. eigenvalues --   -0.78862  -0.78591  -0.74210  -0.73093  -0.71653
 Alpha  occ. eigenvalues --   -0.67032  -0.65810  -0.64042  -0.62037  -0.59964
 Alpha  occ. eigenvalues --   -0.59213  -0.57933  -0.56853  -0.56312  -0.54248
 Alpha  occ. eigenvalues --   -0.53362  -0.53095  -0.51598  -0.49700  -0.47383
 Alpha  occ. eigenvalues --   -0.47220  -0.46628  -0.45129  -0.43921  -0.42752
 Alpha  occ. eigenvalues --   -0.35129  -0.31695
 Alpha virt. eigenvalues --   -0.19270  -0.16362  -0.12838  -0.12115  -0.10793
 Alpha virt. eigenvalues --   -0.10337  -0.07998  -0.04184  -0.03952  -0.02539
 Alpha virt. eigenvalues --   -0.01442   0.00276   0.01080   0.02191   0.03084

 Mulliken charges:
               1
     1  N   -0.730442
     2  H    0.445209
     3  H    0.436681
     4  C   -0.164787
     5  C    0.624686
     6  O   -0.518791
     7  H    0.410187
     8  O   -0.372299
     9  H    0.254934
    10  C   -0.393744
    11  H    0.167743
    12  H    0.183505
    13  C    0.177234
    14  C   -0.225023
    15  H    0.143941
    16  C    0.342092
    17  O   -0.636842
    18  H    0.442391
    19  C    0.319419
    20  O   -0.656990
    21  H    0.433624
    22  C   -0.180956
    23  H    0.154296
    24  C   -0.196077
    25  H    0.125831
    26  H    0.414178
 Sum of Mulliken charges =   1.00000

 Dipole moment (field-independent basis, Debye):
    X=            -12.3027    Y=             -7.0733    Z=             -2.9533  Tot=             14.4951
 Quadrupole moment (field-independent basis, Debye-Ang):
   XX=              5.0090   YY=            -71.0882   ZZ=            -78.3510
   XY=             11.5931   XZ=             18.3672   YZ=             -5.8031

 Normal termination of Gaussian 16 at Sun Jul 18 14:08:47 2021.
 Gaussian 16:  ES64L-G16RevB.01 20-Dec-2017

 --------------------------------------------------------
 #p mp2/aug-cc-pVDZ scf=tight maxdisk=180GB geom=allcheck
 --------------------------------------------------------

 Structure from the checkpoint file:  "SET_328_BBB292_conf1.geo_255_060_105.chk"
 ---------------------------------------------
 SET_328_BBB292_conf1.geo_255_060_105 geometry
 ---------------------------------------------
 Charge =  1 Multiplicity = 1

                         Standard orientation:
 ---------------------------------------------------------------------
 Center     Atomic      Atomic             Coordinates (Angstroms)
 Number     Number       Type             X           Y           Z
 ---------------------------------------------------------------------
      1          7           0       -3.720477   -0.964778   -0.310476
      2          1           0       -4.413394   -0.824339    0.446686
      3          1           0       -3.763368   -1.960912   -0.585353
      4          6           0       -2.323781   -0.610291    0.136306
      5          6           0       -2.276229    0.818921    0.701542
      6          8           0       -2.653875    1.838189   -0.080604
      7          1           0       -2.897879    1.578294   -0.991491
      8          8           0       -1.882837    1.029217    1.826448
      9          1           0       -2.108195   -1.267242    0.976559
     10          6           0       -1.325098   -0.865342   -1.012479
     11          1           0       -1.549225   -0.206068   -1.856489
     12          1           0       -1.486781   -1.891624   -1.356857
     13          6           0        0.114409   -0.687889   -0.577807
     14          6           0        0.793126    0.510921   -0.838768
     15          1           0        0.304977    1.323969   -1.365985
     16          6           0        2.113326    0.682524   -0.433958
     17          8           0        2.755733    1.853659   -0.703732
     18          1           0        3.664219    1.790739   -0.355214
     19          6           0        2.778487   -0.355316    0.245812
     20          8           0        4.072417   -0.086253    0.594559
     21          1           0        4.467007   -0.854406    1.047893
     22          6           0        2.109956   -1.548078    0.506292
     23          1           0        2.625561   -2.350128    1.023619
     24          6           0        0.785461   -1.712729    0.094674
     25          1           0        0.281414   -2.651881    0.296775
     26          1           0       -4.030442   -0.407787   -1.129866
 ---------------------------------------------------------------------

 SCF Done:  E(RHF) =  -701.562965406     A.U. after   16 cycles
