 Gaussian 16, Revision B.01,

 -----------------------------------------------------------
 #p b3lyp/6-31G(d) opt freq scrf=(iefpcm,read,solvent=water)
 -----------------------------------------------------------

 ---------------------------------------------
 SET_328_BBB324_conf1.geo_180_105_180 geometry
 ---------------------------------------------
 Symbolic Z-matrix:
 Charge =  1 Multiplicity = 1

 SCF Done:  E(RB3LYP) =  -1692.62261234     A.U. after   14 cycles
 SCF Done:  E(RB3LYP) =  -1692.67819964     A.U. after   12 cycles
 SCF Done:  E(RB3LYP) =  -1692.72021706     A.U. after   12 cycles
 SCF Done:  E(RB3LYP) =  -1692.72678987     A.U. after   12 cycles
 SCF Done:  E(RB3LYP) =  -1692.72852175     A.U. after   11 cycles
 SCF Done:  E(RB3LYP) =  -1692.72890603     A.U. after   10 cycles
 SCF Done:  E(RB3LYP) =  -1692.72914738     A.U. after   10 cycles
 SCF Done:  E(RB3LYP) =  -1692.72927051     A.U. after    9 cycles
 SCF Done:  E(RB3LYP) =  -1692.72937346     A.U. after   10 cycles
 SCF Done:  E(RB3LYP) =  -1692.72946820     A.U. after    9 cycles
 SCF Done:  E(RB3LYP) =  -1692.73006491     A.U. after   10 cycles
 SCF Done:  E(RB3LYP) =  -1692.73006579     A.U. after    7 cycles
 SCF Done:  E(RB3LYP) =  -1692.73008325     A.U. after    9 cycles
 SCF Done:  E(RB3LYP) =  -1692.73008422     A.U. after    8 cycles
 SCF Done:  E(RB3LYP) =  -1692.73006590     A.U. after   10 cycles
 SCF Done:  E(RB3LYP) =  -1692.73006587     A.U. after    7 cycles
 Optimization completed on the basis of negligible forces.
    -- Stationary point found.
 Normal termination of Gaussian 16 at Sun Jul 18 18:06:08 2021.

 --------------------------------------------------------------------
 #P Geom=AllCheck Guess=TCheck SCRF=Check GenChk RB3LYP/6-31G(d) Freq
 --------------------------------------------------------------------

 Structure from the checkpoint file:  "SET_328_BBB324_conf1.geo_180_105_180.chk"
 ---------------------------------------------
 SET_328_BBB324_conf1.geo_180_105_180 geometry
 ---------------------------------------------
 Charge =  1 Multiplicity = 1

 SCF Done:  E(RB3LYP) =  -1692.73006587     A.U. after    1 cycles

  Exact polarizability: 409.213  -9.080 325.166  37.222   4.381 195.603
 Approx polarizability: 431.026 -22.980 379.479  36.419   2.666 230.424

                      1                      2                      3
                      A                      A                      A
 Frequencies --     21.8414                34.5619                37.5610
 Red. masses --      5.9992                 8.2489                 7.1761
 Frc consts  --      0.0017                 0.0058                 0.0060
 IR Inten    --      1.4548                 2.2639                 3.4243

                      4                      5                      6
                      A                      A                      A
 Frequencies --     49.8504                65.6738                82.8968
 Red. masses --      4.7646                 6.7168                 7.4358
 Frc consts  --      0.0070                 0.0171                 0.0301
 IR Inten    --      0.9486                 0.4953                 5.8417

                      7                      8                      9
                      A                      A                      A
 Frequencies --     91.5625                92.3500               102.0709
 Red. masses --      1.6641                 4.5813                 1.9245
 Frc consts  --      0.0082                 0.0230                 0.0118
 IR Inten    --      2.3944                 0.1398                 0.9501

                     10                     11                     12
                      A                      A                      A
 Frequencies --    112.9120               140.3776               164.9238
 Red. masses --      3.6488                 4.7131                 6.5826
 Frc consts  --      0.0274                 0.0547                 0.1055
 IR Inten    --     12.3519                 2.8234                11.9289

                     13                     14                     15
                      A                      A                      A
 Frequencies --    187.5169               196.4309               198.3872
 Red. masses --      3.8167                 5.5275                 5.0363
 Frc consts  --      0.0791                 0.1257                 0.1168
 IR Inten    --      2.2349                 8.2431                 4.3662

                     16                     17                     18
                      A                      A                      A
 Frequencies --    213.2419               228.6845               247.2532
 Red. masses --      5.1893                 1.2005                 4.3493
 Frc consts  --      0.1390                 0.0370                 0.1567
 IR Inten    --      1.4906                 3.9845                10.6189

                     19                     20                     21
                      A                      A                      A
 Frequencies --    256.2876               280.3080               307.4689
 Red. masses --      3.7321                 3.6867                 4.0009
 Frc consts  --      0.1444                 0.1707                 0.2229
 IR Inten    --     39.6729                12.3973                42.1336

                     22                     23                     24
                      A                      A                      A
 Frequencies --    315.3621               323.1461               334.2018
 Red. masses --      2.8003                 3.5103                 4.8560
 Frc consts  --      0.1641                 0.2160                 0.3196
 IR Inten    --     53.4206                11.2799                 8.2298

                     25                     26                     27
                      A                      A                      A
 Frequencies --    369.1590               377.9255               391.2627
 Red. masses --      4.7163                 2.9806                 1.2877
 Frc consts  --      0.3787                 0.2508                 0.1161
 IR Inten    --      1.9289                25.6935               228.3247

                     28                     29                     30
                      A                      A                      A
 Frequencies --    401.0004               405.9381               416.2635
 Red. masses --      2.9755                 4.5137                 2.6500
 Frc consts  --      0.2819                 0.4382                 0.2705
 IR Inten    --     10.6268                14.4023               128.2942

                     31                     32                     33
                      A                      A                      A
 Frequencies --    436.5113               445.8641               463.6506
 Red. masses --      3.6426                 5.9449                 4.3238
 Frc consts  --      0.4089                 0.6963                 0.5476
 IR Inten    --      4.5235                15.9360                12.3096

                     34                     35                     36
                      A                      A                      A
 Frequencies --    471.9588               486.2549               521.7022
 Red. masses --      4.1468                 6.2409                 5.1624
 Frc consts  --      0.5442                 0.8694                 0.8278
 IR Inten    --     29.1594                 5.8254                 5.1514

                     37                     38                     39
                      A                      A                      A
 Frequencies --    546.1858               571.5085               607.1315
 Red. masses --      4.9178                 4.6383                 4.9238
 Frc consts  --      0.8644                 0.8926                 1.0693
 IR Inten    --      5.1068                 6.5762                 2.5319

                     40                     41                     42
                      A                      A                      A
 Frequencies --    643.7458               671.2648               684.6018
 Red. masses --      2.9696                 4.1078                 3.6999
 Frc consts  --      0.7251                 1.0905                 1.0217
 IR Inten    --     84.6492                32.3181                20.5557

                     43                     44                     45
                      A                      A                      A
 Frequencies --    691.4727               711.8479               720.4807
 Red. masses --      1.7416                 4.5822                 4.4327
 Frc consts  --      0.4906                 1.3680                 1.3557
 IR Inten    --     85.6435                14.4642                32.8636

                     46                     47                     48
                      A                      A                      A
 Frequencies --    735.2239               750.8913               778.8431
 Red. masses --      6.8319                 6.6468                 6.3293
 Frc consts  --      2.1758                 2.2081                 2.2621
 IR Inten    --      3.4644                22.5672                38.0776

                     49                     50                     51
                      A                      A                      A
 Frequencies --    780.9329               801.0304               811.0581
 Red. masses --      3.0349                 8.5261                 6.3845
 Frc consts  --      1.0905                 3.2233                 2.4745
 IR Inten    --      8.1016                34.5553                51.6786

                     52                     53                     54
                      A                      A                      A
 Frequencies --    812.8708               857.2365               861.7532
 Red. masses --      2.1303                 1.4841                 2.6940
 Frc consts  --      0.8293                 0.6425                 1.1787
 IR Inten    --     38.0486                 1.8299                11.0045

                     55                     56                     57
                      A                      A                      A
 Frequencies --    922.3559               925.5712               941.2672
 Red. masses --      2.3833                 1.7227                 5.4140
 Frc consts  --      1.1946                 0.8695                 2.8261
 IR Inten    --      1.6358                 1.7001                95.5268

                     58                     59                     60
                      A                      A                      A
 Frequencies --    943.0112               952.6029               983.7354
 Red. masses --      1.9318                 3.9281                 3.9634
 Frc consts  --      1.0122                 2.1002                 2.2598
 IR Inten    --     31.4440                 3.4966                13.8493

                     61                     62                     63
                      A                      A                      A
 Frequencies --    988.3951              1002.7222              1026.7385
 Red. masses --      2.3190                 1.3091                 4.5572
 Frc consts  --      1.3348                 0.7755                 2.8305
 IR Inten    --     73.9099                 0.7408                24.3366

                     64                     65                     66
                      A                      A                      A
 Frequencies --   1033.7966              1078.8001              1084.1897
 Red. masses --      4.2660                 3.1100                 3.7600
 Frc consts  --      2.6862                 2.1325                 2.6040
 IR Inten    --     58.6194                10.7793               232.6898

                     67                     68                     69
                      A                      A                      A
 Frequencies --   1096.2214              1118.6801              1121.9420
 Red. masses --      2.7144                 2.0319                 2.3164
 Frc consts  --      1.9219                 1.4982                 1.7179
 IR Inten    --     20.3190                44.6863                58.6717

                     70                     71                     72
                      A                      A                      A
 Frequencies --   1145.8870              1153.7115              1159.5530
 Red. masses --      2.4319                 2.1269                 1.3129
 Frc consts  --      1.8814                 1.6680                 1.0401
 IR Inten    --     30.5303                 2.9829                23.9457

                     73                     74                     75
                      A                      A                      A
 Frequencies --   1183.8147              1186.3693              1199.5962
 Red. masses --      1.9315                 1.4136                 2.4282
 Frc consts  --      1.5948                 1.1723                 2.0588
 IR Inten    --     37.0242                22.5802                54.1711

                     76                     77                     78
                      A                      A                      A
 Frequencies --   1214.5047              1224.7963              1242.1699
 Red. masses --      2.2009                 1.6328                 1.6314
 Frc consts  --      1.9127                 1.4431                 1.4831
 IR Inten    --     20.4901                37.6483               158.9851

                     79                     80                     81
                      A                      A                      A
 Frequencies --   1254.8002              1270.8827              1302.6975
 Red. masses --      3.0532                 2.8038                 4.4730
 Frc consts  --      2.8324                 2.6681                 4.4724
 IR Inten    --     68.4260                74.4964                58.8303

                     82                     83                     84
                      A                      A                      A
 Frequencies --   1310.8875              1330.9976              1357.2473
 Red. masses --      2.0948                 7.9780                 3.3452
 Frc consts  --      2.1209                 8.3272                 3.6307
 IR Inten    --      8.9625                26.6652               129.1518

                     85                     86                     87
                      A                      A                      A
 Frequencies --   1370.5718              1373.6663              1388.1973
 Red. masses --      1.3861                 4.4213                 1.4860
 Frc consts  --      1.5341                 4.9154                 1.6872
 IR Inten    --     43.0878                 5.3386                85.3815

                     88                     89                     90
                      A                      A                      A
 Frequencies --   1404.8205              1429.9476              1436.9447
 Red. masses --      1.2412                 1.2612                 1.4423
 Frc consts  --      1.4432                 1.5193                 1.7546
 IR Inten    --     17.2012               168.3080                67.4578

                     91                     92                     93
                      A                      A                      A
 Frequencies --   1437.4858              1454.7509              1468.3710
 Red. masses --      1.6952                 4.3866                 1.3782
 Frc consts  --      2.0639                 5.4696                 1.7507
 IR Inten    --    135.9603                63.8327                35.6850

                     94                     95                     96
                      A                      A                      A
 Frequencies --   1486.4636              1493.8958              1501.5046
 Red. masses --      2.4004                 2.7399                 1.1005
 Frc consts  --      3.1250                 3.6027                 1.4619
 IR Inten    --     85.6802                29.4828                51.9084

                     97                     98                     99
                      A                      A                      A
 Frequencies --   1503.5166              1510.6105              1511.6794
 Red. masses --      1.1344                 1.0912                 1.2025
 Frc consts  --      1.5109                 1.4671                 1.6190
 IR Inten    --      6.5543                18.0572                14.3495

                    100                    101                    102
                      A                      A                      A
 Frequencies --   1517.6078              1522.3139              1532.4941
 Red. masses --      2.6140                 1.0919                 1.2661
 Frc consts  --      3.5471                 1.4908                 1.7519
 IR Inten    --      7.2949                 0.5213                97.4815

                    103                    104                    105
                      A                      A                      A
 Frequencies --   1549.6589              1575.8358              1608.8687
 Red. masses --      7.3152                 5.4623                10.3475
 Frc consts  --     10.3502                 7.9919                15.7808
 IR Inten    --     80.2499               196.9674               108.4781

                    106                    107                    108
                      A                      A                      A
 Frequencies --   1624.2140              1645.2813              1704.2791
 Red. masses --      6.4278                 6.7547                 8.4214
 Frc consts  --      9.9907                10.7730                14.4118
 IR Inten    --     17.7882                79.0815                62.4625

                    109                    110                    111
                      A                      A                      A
 Frequencies --   1722.5564              3035.3390              3073.4976
 Red. masses --     10.6713                 1.0678                 1.0424
 Frc consts  --     18.6558                 5.7964                 5.8017
 IR Inten    --    674.4857                70.7979                49.9865

                    112                    113                    114
                      A                      A                      A
 Frequencies --   3091.4605              3101.7832              3134.7442
 Red. masses --      1.0344                 1.0693                 1.0960
 Frc consts  --      5.8247                 6.0612                 6.3457
 IR Inten    --     16.2312                 9.9894                38.6071

                    115                    116                    117
                      A                      A                      A
 Frequencies --   3151.0716              3169.0030              3180.6667
 Red. masses --      1.0965                 1.1043                 1.1037
 Frc consts  --      6.4148                 6.5341                 6.5784
 IR Inten    --     27.9266                22.3762                13.6336

                    118                    119                    120
                      A                      A                      A
 Frequencies --   3202.5800              3208.2482              3237.7144
 Red. masses --      1.0978                 1.1025                 1.0885
 Frc consts  --      6.6337                 6.6860                 6.7231
 IR Inten    --      5.3252                 3.3897                 3.9452

                    121                    122                    123
                      A                      A                      A
 Frequencies --   3250.6567              3258.3760              3352.1882
 Red. masses --      1.0933                 1.0962                 1.1027
 Frc consts  --      6.8067                 6.8573                 7.3005
 IR Inten    --      3.7347                 3.8978                42.6983

                    124                    125                    126
                      A                      A                      A
 Frequencies --   3535.5065              3700.8425              3707.0102
 Red. masses --      1.0856                 1.0657                 1.0662
 Frc consts  --      7.9953                 8.5996                 8.6324
 IR Inten    --    573.4199               102.4088                73.8713

 - Thermochemistry -
 -------------------
 Temperature   298.150 Kelvin.  Pressure   1.00000 Atm.
 Atom     1 has atomic number  6 and mass  12.00000

 Molecular mass:   390.09691 amu.
 Principal axes and moments of inertia in atomic units:
                           1         2         3
     Eigenvalues --  4651.54523********************
           X            0.99989   0.01450   0.00154
           Y           -0.01452   0.99982   0.01193
           Z           -0.00137  -0.01195   0.99993
 This molecule is an asymmetric top.
 Rotational symmetry number  1.
 Warning -- assumption of classical behavior for rotation
           may cause significant error
 Rotational temperatures (Kelvin)      0.01862     0.00402     0.00361
 Rotational constants (GHZ):           0.38799     0.08380     0.07522
 Zero-point vibrational energy     892621.2 (Joules/Mol)
                                  213.34159 (Kcal/Mol)
 Warning -- explicit consideration of  39 degrees of freedom as
           vibrations may cause significant error
 Vibrational temperatures:     31.42    49.73    54.04    71.72    94.49
          (Kelvin)            119.27   131.74   132.87   146.86   162.46
                              201.97   237.29   269.79   282.62   285.43
                              306.81   329.03   355.74   368.74   403.30
                              442.38   453.74   464.94   480.84   531.14
                              543.75   562.94   576.95   584.05   598.91
                              628.04   641.50   667.09   679.04   699.61
                              750.61   785.84   822.27   873.53   926.21
                              965.80   984.99   994.88  1024.19  1036.61
                             1057.82  1080.37  1120.58  1123.59  1152.50
                             1166.93  1169.54  1233.37  1239.87  1327.06
                             1331.69  1354.27  1356.78  1370.58  1415.38
                             1422.08  1442.69  1477.25  1487.40  1552.15
                             1559.91  1577.22  1609.53  1614.22  1648.68
                             1659.93  1668.34  1703.25  1706.92  1725.95
                             1747.40  1762.21  1787.21  1805.38  1828.52
                             1874.29  1886.07  1915.01  1952.78  1971.95
                             1976.40  1997.31  2021.22  2057.38  2067.44
                             2068.22  2093.06  2112.66  2138.69  2149.38
                             2160.33  2163.23  2173.43  2174.97  2183.50
                             2190.27  2204.92  2229.61  2267.28  2314.80
                             2336.88  2367.19  2452.08  2478.37  4367.18
                             4422.08  4447.92  4462.77  4510.20  4533.69
                             4559.49  4576.27  4607.80  4615.95  4658.35
                             4676.97  4688.08  4823.05  5086.81  5324.69
                             5333.56

 Zero-point correction=                           0.339981 (Hartree/Particle)
 Thermal correction to Energy=                    0.364047
 Thermal correction to Enthalpy=                  0.364991
 Thermal correction to Gibbs Free Energy=         0.285179
 Sum of electronic and zero-point Energies=          -1692.390084
 Sum of electronic and thermal Energies=             -1692.366019
 Sum of electronic and thermal Enthalpies=           -1692.365075
 Sum of electronic and thermal Free Energies=        -1692.444887

                     E (Thermal)             CV                S
                      KCal/Mol        Cal/Mol-Kelvin    Cal/Mol-Kelvin
 Total                  228.443             91.605            167.980
 Electronic               0.000              0.000              0.000
 Translational            0.889              2.981             43.776
 Rotational               0.889              2.981             36.128
 Vibrational            226.666             85.644             88.076
 Vibration     1          0.593              1.985              6.459
 Vibration     2          0.594              1.983              5.549
 Vibration     3          0.594              1.982              5.384
 Vibration     4          0.595              1.978              4.823
 Vibration     5          0.597              1.971              4.279
 Vibration     6          0.600              1.961              3.821
 Vibration     7          0.602              1.955              3.626
 Vibration     8          0.602              1.955              3.610
 Vibration     9          0.604              1.948              3.414
 Vibration    10          0.607              1.939              3.218
 Vibration    11          0.615              1.913              2.799
 Vibration    12          0.623              1.886              2.493
 Vibration    13          0.632              1.857              2.252
 Vibration    14          0.636              1.845              2.166
 Vibration    15          0.637              1.842              2.148
 Vibration    16          0.644              1.821              2.016
 Vibration    17          0.651              1.797              1.889
 Vibration    18          0.661              1.767              1.750
 Vibration    19          0.666              1.752              1.687
 Vibration    20          0.680              1.710              1.532
 Vibration    21          0.697              1.660              1.376
 Vibration    22          0.703              1.644              1.334
 Vibration    23          0.708              1.629              1.294
 Vibration    24          0.716              1.607              1.240
 Vibration    25          0.741              1.536              1.083
 Vibration    26          0.748              1.517              1.047
 Vibration    27          0.759              1.489              0.995
 Vibration    28          0.767              1.468              0.959
 Vibration    29          0.771              1.457              0.941
 Vibration    30          0.779              1.435              0.905
 Vibration    31          0.797              1.391              0.838
 Vibration    32          0.805              1.370              0.808
 Vibration    33          0.821              1.331              0.756
 Vibration    34          0.829              1.312              0.732
 Vibration    35          0.842              1.281              0.693
 Vibration    36          0.877              1.202              0.606
 Vibration    37          0.901              1.148              0.552
 Vibration    38          0.928              1.093              0.501
 Vibration    39          0.966              1.017              0.438

 Optimization completed.
    -- Stationary point found.
 Normal termination of Gaussian 16 at Sun Jul 18 18:42:47 2021.

 ----------------------------------------------------------------------
 #p b3lyp/6-31G(d) scrf=(iefpcm,read,solvent=water) geom=allcheck guess
 =read
 ----------------------------------------------------------------------

 Structure from the checkpoint file:  "SET_328_BBB324_conf1.geo_180_105_180.chk"
 ---------------------------------------------
 SET_328_BBB324_conf1.geo_180_105_180 geometry
 ---------------------------------------------
 Charge =  1 Multiplicity = 1

 SCF Done:  E(RB3LYP) =  -1692.73006587     A.U. after    1 cycles
 Normal termination of Gaussian 16 at Sun Jul 18 18:43:09 2021.

 -----------------------------
 #p B3LYP/6-31G* geom=allcheck
 -----------------------------

 Structure from the checkpoint file:  "SET_328_BBB324_conf1.geo_180_105_180.chk"
 ---------------------------------------------
 SET_328_BBB324_conf1.geo_180_105_180 geometry
 ---------------------------------------------
 Charge =  1 Multiplicity = 1

 SCF Done:  E(RB3LYP) =  -1692.62114187     A.U. after   17 cycles
 Normal termination of Gaussian 16 at Sun Jul 18 18:45:03 2021.
 Gaussian 16:  ES64L-G16RevB.01 20-Dec-2017

 --------------------------------------------------------
 #p mp2/aug-cc-pVDZ scf=tight maxdisk=180GB geom=allcheck
 --------------------------------------------------------

 Structure from the checkpoint file:  "SET_328_BBB324_conf1.geo_180_105_180.chk"
 ---------------------------------------------
 SET_328_BBB324_conf1.geo_180_105_180 geometry
 ---------------------------------------------
 Charge =  1 Multiplicity = 1

                         Standard orientation:
 ---------------------------------------------------------------------
 Center     Atomic      Atomic             Coordinates (Angstroms)
 Number     Number       Type             X           Y           Z
 ---------------------------------------------------------------------
      1          6           0        0.460494   -2.287764   -1.352974
      2          1           0        1.117053   -2.969723   -1.888803
      3          1           0       -0.106969   -1.693734   -2.077152
      4          1           0       -0.235474   -2.852733   -0.731522
      5          7           0        1.280360   -1.436069   -0.491802
      6          6           0        0.592368   -0.624458    0.517282
      7          1           0        1.133335   -0.661508    1.467139
      8          1           0       -0.402817   -1.034257    0.669746
      9          6           0        0.475363    0.785219    0.039495
     10          6           0       -0.573787    1.567860   -0.370384
     11          6           0       -1.997209    1.284546   -0.385721
     12          7           0       -2.890274    2.162018   -0.781898
     13          8           0       -4.098423    1.469649   -0.623328
     14          6           0       -3.794231    0.249084   -0.150107
     15          7           0       -2.515019    0.075108    0.019526
     16          6           0       -4.915089   -0.712177    0.167252
     17          6           0       -5.913469   -0.795518   -0.989209
     18          1           0       -6.285796    0.195016   -1.256845
     19          1           0       -6.751963   -1.414521   -0.668075
     20          1           0       -5.440853   -1.247364   -1.863950
     21          8           0       -4.386521   -2.017771    0.343012
     22          1           0       -3.722194   -1.992327    1.056833
     23          6           0       -5.615457   -0.257999    1.479443
     24          8           0       -6.659410   -1.143648    1.821367
     25          1           0       -6.258309   -2.026910    1.913302
     26          1           0       -6.060059    0.730997    1.348455
     27          1           0       -4.862367   -0.192717    2.277964
     28          7           0       -0.030825    2.769880   -0.789230
     29          6           0        1.287100    2.738524   -0.657242
     30          1           0        1.965164    3.529655   -0.926494
     31          7           0        1.628071    1.540713   -0.150393
     32          6           0        2.940973    1.123279    0.245497
     33          6           0        3.753842    2.053223    0.891621
     34          1           0        3.388917    3.055138    1.077571
     35          6           0        5.017500    1.668825    1.322897
     36          1           0        5.656085    2.383174    1.828360
     37          6           0        5.449673    0.358296    1.140073
     38          1           0        6.416898    0.036095    1.502561
     39          6           0        4.623217   -0.555086    0.491432
     40         17           0        5.216784   -2.197999    0.337387
     41          6           0        3.351707   -0.202455    0.009226
     42          6           0        2.567625   -1.175848   -0.850270
     43          8           0        3.113417   -1.699279   -1.820948
     44          1           0       -0.558406    3.563214   -1.158785
 ---------------------------------------------------------------------

 SCF Done:  E(RHF) =  -1684.75948948     A.U. after   18 cycles
 E2 =    -0.4115479068D+01 EUMP2 =    -0.16888749685517D+04

 The electronic state is 1-A.
 Alpha  occ. eigenvalues -- -104.94366 -20.80423 -20.69371 -20.66639 -20.65029
 Alpha  occ. eigenvalues --  -15.84762 -15.84558 -15.78095 -15.72801 -15.72079
 Alpha  occ. eigenvalues --  -11.54649 -11.50049 -11.49100 -11.48247 -11.47791
 Alpha  occ. eigenvalues --  -11.47650 -11.46145 -11.44670 -11.43644 -11.43206
 Alpha  occ. eigenvalues --  -11.41357 -11.39964 -11.39590 -11.39267 -11.38540
 Alpha  occ. eigenvalues --  -11.37413 -11.32477 -10.66910  -8.13692  -8.13336
 Alpha  occ. eigenvalues --   -8.13323  -1.66001  -1.59137  -1.50511  -1.49996
 Alpha  occ. eigenvalues --   -1.45780  -1.44746  -1.40047  -1.38285  -1.32528
 Alpha  occ. eigenvalues --   -1.31675  -1.26007  -1.24017  -1.19562  -1.16518
 Alpha  occ. eigenvalues --   -1.14506  -1.13723  -1.08561  -1.07446  -1.05926
 Alpha  occ. eigenvalues --   -1.04249  -1.00689  -0.99179  -0.96996  -0.95656
 Alpha  occ. eigenvalues --   -0.94365  -0.91120  -0.89305  -0.86430  -0.85858
 Alpha  occ. eigenvalues --   -0.85135  -0.84248  -0.82994  -0.82372  -0.80440
 Alpha  occ. eigenvalues --   -0.79590  -0.79048  -0.78615  -0.78218  -0.77293
 Alpha  occ. eigenvalues --   -0.76187  -0.74530  -0.73028  -0.71828  -0.71461
 Alpha  occ. eigenvalues --   -0.70963  -0.69928  -0.69233  -0.68506  -0.67674
 Alpha  occ. eigenvalues --   -0.66366  -0.65729  -0.65618  -0.64522  -0.64308
 Alpha  occ. eigenvalues --   -0.63670  -0.63265  -0.62558  -0.62276  -0.62080
 Alpha  occ. eigenvalues --   -0.60637  -0.58400  -0.57962  -0.56422  -0.55982
 Alpha  occ. eigenvalues --   -0.54576  -0.53296  -0.50942  -0.49569  -0.48368
 Alpha  occ. eigenvalues --   -0.46672
 Alpha virt. eigenvalues --   -0.07944  -0.07783  -0.06095  -0.05582  -0.05199
 Alpha virt. eigenvalues --   -0.04509  -0.04116  -0.03475  -0.03268  -0.03053
 Alpha virt. eigenvalues --   -0.02688  -0.01812  -0.01652  -0.01415  -0.01142

 Mulliken charges:
               1
     1  C    0.803917
     2  H   -0.209914
     3  H   -0.042568
     4  H   -0.130637
     5  N   -0.488675
     6  C    0.974626
     7  H    0.000966
     8  H   -0.239477
     9  C   -0.079250
    10  C    0.797485
    11  C    0.599401
    12  N   -0.357240
    13  O   -0.868549
    14  C    0.760196
    15  N   -0.535698
    16  C   -0.996237
    17  C    0.912963
    18  H    0.048417
    19  H    0.063296
    20  H    0.049543
    21  O   -0.824944
    22  H    0.141361
    23  C    1.722972
    24  O   -0.778249
    25  H    0.199515
    26  H   -0.128848
    27  H   -0.142338
    28  N   -0.546099
    29  C    0.706388
    30  H   -0.324431
    31  N   -0.937815
    32  C   -0.295633
    33  C    1.024191
    34  H   -0.710889
    35  C    0.443573
    36  H   -0.448199
    37  C    0.737654
    38  H   -0.433715
    39  C   -0.734565
    40  Cl  -0.312544
    41  C    1.708806
    42  C    0.737402
    43  O   -0.837401
    44  H   -0.028757
 Sum of Mulliken charges =   1.00000

 Dipole moment (field-independent basis, Debye):
    X=              3.0466    Y=              9.0676    Z=              2.4891  Tot=              9.8843
 Quadrupole moment (field-independent basis, Debye-Ang):
   XX=           -126.1942   YY=           -127.2566   ZZ=           -159.3326
   XY=             26.0234   XZ=             16.6622   YZ=             -8.8583

 Normal termination of Gaussian 16 at Sun Jul 18 21:13:54 2021.
