 Gaussian 16, Revision B.01,

 -----------------------------------------------------------
 #p b3lyp/6-31G(d) opt freq scrf=(iefpcm,read,solvent=water)
 -----------------------------------------------------------

 ---------------------------------------------
 SET_328_BBB256_conf1.geo_180_075_075 geometry
 ---------------------------------------------
 Symbolic Z-matrix:
 Charge =  1 Multiplicity = 1

 SCF Done:  E(RB3LYP) =  -422.027929465     A.U. after   12 cycles
 SCF Done:  E(RB3LYP) =  -422.051422799     A.U. after   11 cycles
 SCF Done:  E(RB3LYP) =  -422.056592044     A.U. after   11 cycles
 SCF Done:  E(RB3LYP) =  -422.057041921     A.U. after   10 cycles
 SCF Done:  E(RB3LYP) =  -422.057192047     A.U. after   10 cycles
 SCF Done:  E(RB3LYP) =  -422.057365908     A.U. after   10 cycles
 SCF Done:  E(RB3LYP) =  -422.057426931     A.U. after    9 cycles
 SCF Done:  E(RB3LYP) =  -422.057468168     A.U. after   10 cycles
 SCF Done:  E(RB3LYP) =  -422.057496703     A.U. after    8 cycles
 SCF Done:  E(RB3LYP) =  -422.057513658     A.U. after    9 cycles
 SCF Done:  E(RB3LYP) =  -422.057575011     A.U. after    9 cycles
 SCF Done:  E(RB3LYP) =  -422.057393739     A.U. after   10 cycles
 SCF Done:  E(RB3LYP) =  -422.057547179     A.U. after   10 cycles
 SCF Done:  E(RB3LYP) =  -422.057573487     A.U. after    9 cycles
 SCF Done:  E(RB3LYP) =  -422.057573720     A.U. after    7 cycles
 SCF Done:  E(RB3LYP) =  -422.057573705     A.U. after    7 cycles
 Optimization completed.
    -- Stationary point found.
 Normal termination of Gaussian 16 at Sun Jul 18 14:14:58 2021.

 --------------------------------------------------------------------
 #P Geom=AllCheck Guess=TCheck SCRF=Check GenChk RB3LYP/6-31G(d) Freq
 --------------------------------------------------------------------

 Structure from the checkpoint file:  "SET_328_BBB256_conf1.geo_180_075_075.chk"
 ---------------------------------------------
 SET_328_BBB256_conf1.geo_180_075_075 geometry
 ---------------------------------------------
 Charge =  1 Multiplicity = 1

 SCF Done:  E(RB3LYP) =  -422.057573705     A.U. after    1 cycles

  Exact polarizability: 136.375  17.173 124.186  22.629 -17.268  96.856
 Approx polarizability: 146.070  19.464 143.019  28.704 -23.817 111.723

 ******    1 imaginary frequencies (negative Signs) ******

                      1                      2                      3
                      A                      A                      A
 Frequencies --    -24.6139                31.1087                80.4576
 Red. masses --      2.0169                 3.7994                 2.9784
 Frc consts  --      0.0007                 0.0022                 0.0114
 IR Inten    --      6.5470                 5.0934                13.3228

                      4                      5                      6
                      A                      A                      A
 Frequencies --    168.1477               214.2392               248.9201
 Red. masses --      2.4312                 3.8265                 1.1444
 Frc consts  --      0.0405                 0.1035                 0.0418
 IR Inten    --      4.0434                21.2310                 0.8567

                      7                      8                      9
                      A                      A                      A
 Frequencies --    284.7363               350.7418               417.3951
 Red. masses --      2.5326                 2.2323                 3.4996
 Frc consts  --      0.1210                 0.1618                 0.3592
 IR Inten    --      3.1052                 7.6216                 6.4880

                     10                     11                     12
                      A                      A                      A
 Frequencies --    465.7187               510.6714               596.9800
 Red. masses --      3.4048                 3.2928                 2.9935
 Frc consts  --      0.4351                 0.5059                 0.6286
 IR Inten    --      4.0095                 2.6985                 3.1948

                     13                     14                     15
                      A                      A                      A
 Frequencies --    637.5118               755.7484               774.9048
 Red. masses --      6.9013                 2.9650                 1.2192
 Frc consts  --      1.6526                 0.9978                 0.4313
 IR Inten    --      3.6367                 6.4282                38.5707

                     16                     17                     18
                      A                      A                      A
 Frequencies --    783.3990               824.7368               846.0411
 Red. masses --      2.2013                 1.7190                 2.0337
 Frc consts  --      0.7960                 0.6889                 0.8577
 IR Inten    --     26.3385                20.2735                 3.9116

                     19                     20                     21
                      A                      A                      A
 Frequencies --    916.0294               969.0363               986.8945
 Red. masses --      1.2986                 1.7473                 1.4839
 Frc consts  --      0.6420                 0.9667                 0.8515
 IR Inten    --      0.0885                17.1195                 0.1532

                     22                     23                     24
                      A                      A                      A
 Frequencies --    999.8619              1014.9389              1022.3468
 Red. masses --      2.0527                 5.3502                 1.3066
 Frc consts  --      1.2091                 3.2471                 0.8046
 IR Inten    --     17.8438                19.6057                 0.0251

                     25                     26                     27
                      A                      A                      A
 Frequencies --   1035.4173              1063.9149              1080.5718
 Red. masses --      3.1924                 2.5875                 2.2207
 Frc consts  --      2.0165                 1.7256                 1.5277
 IR Inten    --     11.6348                 8.1927                 9.2904

                     28                     29                     30
                      A                      A                      A
 Frequencies --   1116.9802              1153.1856              1177.7882
 Red. masses --      1.4000                 1.2847                 1.4347
 Frc consts  --      1.0292                 1.0066                 1.1726
 IR Inten    --      4.0021                 5.9584                 7.1906

                     31                     32                     33
                      A                      A                      A
 Frequencies --   1186.3545              1246.3364              1274.1720
 Red. masses --      1.1169                 2.2887                 1.4616
 Frc consts  --      0.9262                 2.0947                 1.3981
 IR Inten    --      7.3147                12.5146                 3.0077

                     34                     35                     36
                      A                      A                      A
 Frequencies --   1306.7005              1326.4363              1340.2390
 Red. masses --      4.6462                 1.5107                 1.4291
 Frc consts  --      4.6741                 1.5660                 1.5124
 IR Inten    --      0.2728                 1.9189                20.6570

                     37                     38                     39
                      A                      A                      A
 Frequencies --   1392.1319              1412.5223              1438.9593
 Red. masses --      1.3439                 1.4571                 1.1283
 Frc consts  --      1.5345                 1.7129                 1.3765
 IR Inten    --      6.8648                 5.4315                19.4505

                     40                     41                     42
                      A                      A                      A
 Frequencies --   1472.2682              1479.0775              1483.9763
 Red. masses --      1.1523                 1.2801                 2.0054
 Frc consts  --      1.4716                 1.6499                 2.6019
 IR Inten    --     42.0368                63.1137                31.1081

                     43                     44                     45
                      A                      A                      A
 Frequencies --   1498.3203              1512.8641              1521.2653
 Red. masses --      1.1083                 1.0875                 1.0776
 Frc consts  --      1.4660                 1.4665                 1.4693
 IR Inten    --     16.7313                22.6098                13.3489

                     46                     47                     48
                      A                      A                      A
 Frequencies --   1523.1439              1525.5717              1620.6307
 Red. masses --      1.7073                 1.1618                 1.0746
 Frc consts  --      2.3336                 1.5931                 1.6628
 IR Inten    --     44.4753                29.8216               106.1869

                     49                     50                     51
                      A                      A                      A
 Frequencies --   1630.8153              1650.2538              3063.5425
 Red. masses --      5.6443                 5.3709                 1.0678
 Frc consts  --      8.8444                 8.6179                 5.9047
 IR Inten    --     31.4352                83.2164                15.6015

                     52                     53                     54
                      A                      A                      A
 Frequencies --   3124.1941              3126.9596              3139.4421
 Red. masses --      1.0934                 1.0310                 1.0615
 Frc consts  --      6.2878                 5.9394                 6.1639
 IR Inten    --     20.1205                11.0967                23.3061

                     55                     56                     57
                      A                      A                      A
 Frequencies --   3185.5504              3199.1965              3217.9958
 Red. masses --      1.0897                 1.1088                 1.0880
 Frc consts  --      6.5150                 6.6861                 6.6379
 IR Inten    --     43.4723                11.9843                 7.3757

                     58                     59                     60
                      A                      A                      A
 Frequencies --   3222.8434              3224.9669              3230.7150
 Red. masses --      1.1089                 1.1085                 1.0927
 Frc consts  --      6.7859                 6.7923                 6.7195
 IR Inten    --      8.5897                 6.6148                34.3541

                     61                     62                     63
                      A                      A                      A
 Frequencies --   3238.4353              3405.5353              3450.2280
 Red. masses --      1.0980                 1.0554                 1.0959
 Frc consts  --      6.7847                 7.2117                 7.6866
 IR Inten    --     16.0017               113.4161               198.7151

 - Thermochemistry -
 -------------------
 Temperature   298.150 Kelvin.  Pressure   1.00000 Atm.
 Atom     1 has atomic number  6 and mass  12.00000

 Molecular mass:   137.10787 amu.
 Principal axes and moments of inertia in atomic units:
                           1         2         3
     Eigenvalues --   662.676132543.406052677.47608
           X            0.99999  -0.00443   0.00114
           Y            0.00441   0.99990   0.01361
           Z           -0.00120  -0.01360   0.99991
 This molecule is an asymmetric top.
 Rotational symmetry number  1.
 Warning -- assumption of classical behavior for rotation
           may cause significant error
 Rotational temperatures (Kelvin)      0.13070     0.03405     0.03235
 Rotational constants (GHZ):           2.72341     0.70958     0.67405
    1 imaginary frequencies ignored.
 Zero-point vibrational energy     545497.6 (Joules/Mol)
                                  130.37704 (Kcal/Mol)
 Warning -- explicit consideration of  11 degrees of freedom as
           vibrations may cause significant error
 Vibrational temperatures:     44.76   115.76   241.93   308.24   358.14
          (Kelvin)            409.67   504.64   600.54   670.07   734.74
                              858.92   917.24  1087.35  1114.92  1127.14
                             1186.61  1217.26  1317.96  1394.23  1419.92
                             1438.58  1460.27  1470.93  1489.73  1530.74
                             1554.70  1607.09  1659.18  1694.57  1706.90
                             1793.20  1833.25  1880.05  1908.45  1928.30
                             2002.97  2032.30  2070.34  2118.27  2128.06
                             2135.11  2155.75  2176.67  2188.76  2191.46
                             2194.96  2331.73  2346.38  2374.35  4407.75
                             4495.02  4499.00  4516.96  4583.30  4602.93
                             4629.98  4636.95  4640.01  4648.28  4659.39
                             4899.81  4964.11

 Zero-point correction=                           0.207769 (Hartree/Particle)
 Thermal correction to Energy=                    0.216679
 Thermal correction to Enthalpy=                  0.217623
 Thermal correction to Gibbs Free Energy=         0.172692
 Sum of electronic and zero-point Energies=           -421.849805
 Sum of electronic and thermal Energies=              -421.840895
 Sum of electronic and thermal Enthalpies=            -421.839951
 Sum of electronic and thermal Free Energies=         -421.884881

                     E (Thermal)             CV                S
                      KCal/Mol        Cal/Mol-Kelvin    Cal/Mol-Kelvin
 Total                  135.968             33.960             94.564
 Electronic               0.000              0.000              0.000
 Translational            0.889              2.981             40.659
 Rotational               0.889              2.981             29.891
 Vibrational            134.191             27.999             24.015
 Vibration     1          0.594              1.983              5.757
 Vibration     2          0.600              1.962              3.880
 Vibration     3          0.625              1.882              2.456
 Vibration     4          0.644              1.819              2.007
 Vibration     5          0.662              1.765              1.738
 Vibration     6          0.683              1.702              1.505
 Vibration     7          0.728              1.574              1.163
 Vibration     8          0.780              1.432              0.901
 Vibration     9          0.823              1.326              0.750
 Vibration    10          0.866              1.226              0.632
 Vibration    11          0.955              1.038              0.455

                           ! Non-Optimized Parameters !
 Normal termination of Gaussian 16 at Sun Jul 18 14:19:01 2021.

 ----------------------------------------------------------------------
 #p b3lyp/6-31G(d) scrf=(iefpcm,read,solvent=water) geom=allcheck guess
 =read
 ----------------------------------------------------------------------

 Structure from the checkpoint file:  "SET_328_BBB256_conf1.geo_180_075_075.chk"
 ---------------------------------------------
 SET_328_BBB256_conf1.geo_180_075_075 geometry
 ---------------------------------------------
 Charge =  1 Multiplicity = 1

 SCF Done:  E(RB3LYP) =  -422.057573705     A.U. after    1 cycles
 Normal termination of Gaussian 16 at Sun Jul 18 14:19:09 2021.

 -----------------------------
 #p B3LYP/6-31G* geom=allcheck
 -----------------------------

 Structure from the checkpoint file:  "SET_328_BBB256_conf1.geo_180_075_075.chk"
 ---------------------------------------------
 SET_328_BBB256_conf1.geo_180_075_075 geometry
 ---------------------------------------------
 Charge =  1 Multiplicity = 1

 SCF Done:  E(RB3LYP) =  -421.953786766     A.U. after   14 cycles
 Normal termination of Gaussian 16 at Sun Jul 18 14:19:31 2021.
 Gaussian 16:  ES64L-G16RevB.01 20-Dec-2017

 --------------------------------------------------------
 #p mp2/aug-cc-pVDZ scf=tight maxdisk=180GB geom=allcheck
 --------------------------------------------------------

 Structure from the checkpoint file:  "SET_328_BBB256_conf1.geo_180_075_075.chk"
 ---------------------------------------------
 SET_328_BBB256_conf1.geo_180_075_075 geometry
 ---------------------------------------------
 Charge =  1 Multiplicity = 1

                         Standard orientation:
 ---------------------------------------------------------------------
 Center     Atomic      Atomic             Coordinates (Angstroms)
 Number     Number       Type             X           Y           Z
 ---------------------------------------------------------------------
      1          6           0        3.520273   -0.893624   -0.695480
      2          1           0        3.363966   -1.796239   -0.107736
      3          1           0        4.351072   -0.317055   -0.292170
      4          1           0        3.707958   -1.147345   -1.736790
      5          7           0        2.282597   -0.060461   -0.625036
      6          1           0        1.501508   -0.584814   -1.042422
      7          6           0        1.913263    0.355761    0.769369
      8          1           0        2.775463    0.881453    1.177733
      9          1           0        1.747530   -0.558822    1.336289
     10          6           0        0.674437    1.240634    0.794827
     11          1           0        0.833162    2.139232    0.191815
     12          1           0        0.560568    1.576124    1.833171
     13          6           0       -0.595614    0.539832    0.359237
     14          7           0       -0.833411   -0.668863    0.898387
     15          6           0       -1.962242   -1.301902    0.551258
     16          1           0       -2.121379   -2.278066    1.003977
     17          6           0       -2.902878   -0.775147   -0.333605
     18          1           0       -3.799835   -1.333331   -0.576852
     19          6           0       -2.649927    0.476200   -0.892469
     20          1           0       -3.349473    0.924680   -1.589645
     21          6           0       -1.476630    1.142445   -0.543691
     22          1           0       -1.241706    2.115384   -0.958938
     23          1           0        2.402771    0.778880   -1.208569
 ---------------------------------------------------------------------

 SCF Done:  E(RHF) =  -419.257643564     A.U. after   15 cycles
 E2 =    -0.1457508648D+01 EUMP2 =    -0.42071515221252D+03

 The electronic state is 1-A.
 Alpha  occ. eigenvalues --  -15.87344 -15.69831 -11.46318 -11.45712 -11.41721
 Alpha  occ. eigenvalues --  -11.40114 -11.39780 -11.38238 -11.36903 -11.36189
 Alpha  occ. eigenvalues --   -1.49618  -1.38759  -1.23088  -1.20821  -1.15742
 Alpha  occ. eigenvalues --   -1.12264  -1.04996  -0.98265  -0.96098  -0.94750
 Alpha  occ. eigenvalues --   -0.85666  -0.83768  -0.82731  -0.79003  -0.77221
 Alpha  occ. eigenvalues --   -0.75194  -0.74889  -0.74012  -0.71327  -0.70421
 Alpha  occ. eigenvalues --   -0.68119  -0.67726  -0.64833  -0.63352  -0.54283
 Alpha  occ. eigenvalues --   -0.50172  -0.46370
 Alpha virt. eigenvalues --   -0.09199  -0.06782  -0.06549  -0.05406  -0.04086
 Alpha virt. eigenvalues --   -0.03779  -0.03489  -0.03264  -0.02965  -0.02429
 Alpha virt. eigenvalues --   -0.01642  -0.01387  -0.00905  -0.00524   0.00308

 Mulliken charges:
               1
     1  C    0.777085
     2  H   -0.057586
     3  H   -0.072791
     4  H   -0.119010
     5  N   -0.668762
     6  H    0.228615
     7  C    1.018233
     8  H   -0.191096
     9  H   -0.194053
    10  C    0.316967
    11  H   -0.191133
    12  H    0.077761
    13  C    0.144904
    14  N   -0.709815
    15  C    0.425312
    16  H   -0.363019
    17  C    0.969533
    18  H   -0.400072
    19  C   -0.247397
    20  H   -0.389059
    21  C    1.033731
    22  H   -0.572450
    23  H    0.184101
 Sum of Mulliken charges =   1.00000

 Dipole moment (field-independent basis, Debye):
    X=              7.5578    Y=              0.4140    Z=             -3.2238  Tot=              8.2271
 Quadrupole moment (field-independent basis, Debye-Ang):
   XX=            -17.5254   YY=            -50.8259   ZZ=            -54.8541
   XY=              0.2127   XZ=             -2.1381   YZ=              0.0427

 Normal termination of Gaussian 16 at Sun Jul 18 14:26:00 2021.
