 Gaussian 16, Revision B.01,

 -----------------------------------------------------------
 #p b3lyp/6-31G(d) opt freq scrf=(iefpcm,read,solvent=water)
 -----------------------------------------------------------

 ---------------------------------------------
 SET_328_BBB272_conf1.geo_345_270_180 geometry
 ---------------------------------------------
 Symbolic Z-matrix:
 Charge = -1 Multiplicity = 1

 SCF Done:  E(RB3LYP) =  -648.210548634     A.U. after   13 cycles
 SCF Done:  E(RB3LYP) =  -648.233944500     A.U. after   12 cycles
 SCF Done:  E(RB3LYP) =  -648.225313837     A.U. after   14 cycles
 SCF Done:  E(RB3LYP) =  -648.237857975     A.U. after   12 cycles
 SCF Done:  E(RB3LYP) =  -648.239000713     A.U. after   11 cycles
 SCF Done:  E(RB3LYP) =  -648.239158947     A.U. after   10 cycles
 SCF Done:  E(RB3LYP) =  -648.239229602     A.U. after   10 cycles
 SCF Done:  E(RB3LYP) =  -648.239285514     A.U. after   10 cycles
 SCF Done:  E(RB3LYP) =  -648.239313343     A.U. after   10 cycles
 SCF Done:  E(RB3LYP) =  -648.239358877     A.U. after   10 cycles
 SCF Done:  E(RB3LYP) =  -648.239634790     A.U. after   10 cycles
 SCF Done:  E(RB3LYP) =  -648.239645076     A.U. after    9 cycles
 SCF Done:  E(RB3LYP) =  -648.239646686     A.U. after    9 cycles
 SCF Done:  E(RB3LYP) =  -648.239650530     A.U. after    8 cycles
 SCF Done:  E(RB3LYP) =  -648.239651303     A.U. after    7 cycles
 SCF Done:  E(RB3LYP) =  -648.239652273     A.U. after    7 cycles
 Optimization completed.
    -- Stationary point found.
 Normal termination of Gaussian 16 at Sun Jul 18 13:54:46 2021.

 --------------------------------------------------------------------
 #P Geom=AllCheck Guess=TCheck SCRF=Check GenChk RB3LYP/6-31G(d) Freq
 --------------------------------------------------------------------

 Structure from the checkpoint file:  "SET_328_BBB272_conf1.geo_345_270_180.chk"
 ---------------------------------------------
 SET_328_BBB272_conf1.geo_345_270_180 geometry
 ---------------------------------------------
 Charge = -1 Multiplicity = 1

 SCF Done:  E(RB3LYP) =  -648.239652273     A.U. after    1 cycles

  Exact polarizability: 174.625   4.796 154.331 -11.387   5.629  75.173
 Approx polarizability: 195.312   0.624 178.457 -15.696   6.644  95.824

                      1                      2                      3
                      A                      A                      A
 Frequencies --     43.6993                76.8397                99.3265
 Red. masses --      9.3491                 5.4936                 1.2377
 Frc consts  --      0.0105                 0.0191                 0.0072
 IR Inten    --      0.5997                15.2019                 5.0422

                      4                      5                      6
                      A                      A                      A
 Frequencies --    101.3463               120.5569               152.3657
 Red. masses --      3.8520                 3.7138                 6.5344
 Frc consts  --      0.0233                 0.0318                 0.0894
 IR Inten    --      4.8769                 3.1280                 2.2725

                      7                      8                      9
                      A                      A                      A
 Frequencies --    239.2004               275.9209               313.1642
 Red. masses --      8.1621                 6.4942                 4.0694
 Frc consts  --      0.2752                 0.2913                 0.2351
 IR Inten    --      4.1607                 2.3234                 5.0326

                     10                     11                     12
                      A                      A                      A
 Frequencies --    369.0451               413.2171               451.1505
 Red. masses --      7.5185                 6.0564                 4.1479
 Frc consts  --      0.6033                 0.6093                 0.4974
 IR Inten    --      3.8108                13.1464                 2.7777

                     13                     14                     15
                      A                      A                      A
 Frequencies --    526.5719               542.4861               556.6390
 Red. masses --      4.3524                 4.5042                 4.9667
 Frc consts  --      0.7110                 0.7810                 0.9067
 IR Inten    --     12.2207                 8.6738                 6.4866

                     16                     17                     18
                      A                      A                      A
 Frequencies --    586.7701               660.3584               677.5975
 Red. masses --      3.7380                 6.0470                 5.9022
 Frc consts  --      0.7583                 1.5536                 1.5966
 IR Inten    --     29.0031                 9.6021                25.9544

                     19                     20                     21
                      A                      A                      A
 Frequencies --    709.3605               770.0959               810.1742
 Red. masses --      3.9277                 1.8926                 4.3365
 Frc consts  --      1.1645                 0.6613                 1.6770
 IR Inten    --     39.0684                48.5679                16.1443

                     22                     23                     24
                      A                      A                      A
 Frequencies --    812.7614               849.3326               897.5351
 Red. masses --      3.9146                 4.4885                 1.6275
 Frc consts  --      1.5236                 1.9077                 0.7725
 IR Inten    --     44.4100                48.3413                 3.4886

                     25                     26                     27
                      A                      A                      A
 Frequencies --    940.1086               972.1969              1000.0809
 Red. masses --      4.9241                 1.4113                 1.2747
 Frc consts  --      2.5641                 0.7859                 0.7512
 IR Inten    --     33.2854                 8.3259                 0.8409

                     28                     29                     30
                      A                      A                      A
 Frequencies --   1032.2909              1066.8692              1067.7900
 Red. masses --      1.7819                 2.1756                 1.7315
 Frc consts  --      1.1188                 1.4590                 1.1632
 IR Inten    --     66.8136                20.2707                21.0053

                     31                     32                     33
                      A                      A                      A
 Frequencies --   1109.8847              1165.8182              1184.5495
 Red. masses --      2.9654                 1.7491                 1.1763
 Frc consts  --      2.1522                 1.4007                 0.9724
 IR Inten    --     82.1399                 6.8892                 9.1027

                     34                     35                     36
                      A                      A                      A
 Frequencies --   1217.2658              1251.4008              1287.8409
 Red. masses --      3.7743                 3.4810                 1.5748
 Frc consts  --      3.2950                 3.2118                 1.5388
 IR Inten    --    386.5698               464.9961                 5.1371

                     37                     38                     39
                      A                      A                      A
 Frequencies --   1351.2948              1389.8780              1416.7234
 Red. masses --      9.5281                11.6498                 1.3345
 Frc consts  --     10.2507                13.2593                 1.5781
 IR Inten    --      0.8945               669.3974               100.9183

                     40                     41                     42
                      A                      A                      A
 Frequencies --   1486.1380              1489.4544              1494.1144
 Red. masses --      2.1750                 1.0593                 1.0686
 Frc consts  --      2.8302                 1.3847                 1.4055
 IR Inten    --     16.5559                19.5401                 8.1669

                     43                     44                     45
                      A                      A                      A
 Frequencies --   1516.4799              1625.2717              1656.4375
 Red. masses --      2.6158                 6.4701                 6.6770
 Frc consts  --      3.5443                10.0696                10.7939
 IR Inten    --     24.5316                62.2407                80.6939

                     46                     47                     48
                      A                      A                      A
 Frequencies --   1672.9368              1807.6129              3094.0868
 Red. masses --     10.9321                11.3862                 1.0360
 Frc consts  --     18.0265                21.9199                 5.8435
 IR Inten    --    773.8144               420.3876                 2.2642

                     49                     50                     51
                      A                      A                      A
 Frequencies --   3163.1114              3197.5212              3208.2333
 Red. masses --      1.1011                 1.1048                 1.0864
 Frc consts  --      6.4907                 6.6553                 6.5885
 IR Inten    --      6.4747                15.6193                 4.3226

                     52                     53                     54
                      A                      A                      A
 Frequencies --   3215.6262              3229.4629              3235.1968
 Red. masses --      1.0904                 1.0912                 1.0967
 Frc consts  --      6.6432                 6.7053                 6.7630
 IR Inten    --     22.1248                19.3360                34.2357

 - Thermochemistry -
 -------------------
 Temperature   298.150 Kelvin.  Pressure   1.00000 Atm.
 Atom     1 has atomic number  6 and mass  12.00000

 Molecular mass:   179.03443 amu.
 Principal axes and moments of inertia in atomic units:
                           1         2         3
     Eigenvalues --  1577.481972389.884653606.61414
           X            0.99984   0.01214  -0.01327
           Y           -0.01203   0.99989   0.00818
           Z            0.01337  -0.00802   0.99988
 This molecule is an asymmetric top.
 Rotational symmetry number  1.
 Warning -- assumption of classical behavior for rotation
           may cause significant error
 Rotational temperatures (Kelvin)      0.05491     0.03624     0.02402
 Rotational constants (GHZ):           1.14406     0.75516     0.50040
 Zero-point vibrational energy     380419.6 (Joules/Mol)
                                   90.92247 (Kcal/Mol)
 Warning -- explicit consideration of  16 degrees of freedom as
           vibrations may cause significant error
 Vibrational temperatures:     62.87   110.56   142.91   145.81   173.45
          (Kelvin)            219.22   344.16   396.99   450.57   530.97
                              594.53   649.11   757.62   780.52   800.88
                              844.23   950.11   974.91  1020.61  1108.00
                             1165.66  1169.38  1222.00  1291.35  1352.61
                             1398.77  1438.89  1485.24  1534.99  1536.31
                             1596.88  1677.35  1704.30  1751.37  1800.49
                             1852.92  1944.21  1999.72  2038.35  2138.22
                             2142.99  2149.70  2181.88  2338.40  2383.24
                             2406.98  2600.75  4451.70  4551.01  4600.52
                             4615.93  4626.57  4646.48  4654.73

 Zero-point correction=                           0.144894 (Hartree/Particle)
 Thermal correction to Energy=                    0.156254
 Thermal correction to Enthalpy=                  0.157198
 Thermal correction to Gibbs Free Energy=         0.106533
 Sum of electronic and zero-point Energies=           -648.094758
 Sum of electronic and thermal Energies=              -648.083398
 Sum of electronic and thermal Enthalpies=            -648.082454
 Sum of electronic and thermal Free Energies=         -648.133120

                     E (Thermal)             CV                S
                      KCal/Mol        Cal/Mol-Kelvin    Cal/Mol-Kelvin
 Total                   98.051             41.510            106.635
 Electronic               0.000              0.000              0.000
 Translational            0.889              2.981             41.454
 Rotational               0.889              2.981             30.987
 Vibrational             96.274             35.548             34.194
 Vibration     1          0.595              1.980              5.084
 Vibration     2          0.599              1.965              3.970
 Vibration     3          0.604              1.950              3.467
 Vibration     4          0.604              1.948              3.428
 Vibration     5          0.609              1.932              3.091
 Vibration     6          0.619              1.900              2.642
 Vibration     7          0.657              1.781              1.809
 Vibration     8          0.678              1.718              1.559
 Vibration     9          0.701              1.649              1.346
 Vibration    10          0.741              1.536              1.084
 Vibration    11          0.777              1.442              0.915
 Vibration    12          0.810              1.358              0.792
 Vibration    13          0.882              1.191              0.595
 Vibration    14          0.898              1.156              0.560
 Vibration    15          0.912              1.125              0.531
 Vibration    16          0.944              1.060              0.473

 Optimization completed.
    -- Stationary point found.
 Normal termination of Gaussian 16 at Sun Jul 18 13:58:35 2021.

 ----------------------------------------------------------------------
 #p b3lyp/6-31G(d) scrf=(iefpcm,read,solvent=water) geom=allcheck guess
 =read
 ----------------------------------------------------------------------

 Structure from the checkpoint file:  "SET_328_BBB272_conf1.geo_345_270_180.chk"
 ---------------------------------------------
 SET_328_BBB272_conf1.geo_345_270_180 geometry
 ---------------------------------------------
 Charge = -1 Multiplicity = 1

 SCF Done:  E(RB3LYP) =  -648.239652273     A.U. after    1 cycles
 Normal termination of Gaussian 16 at Sun Jul 18 13:58:40 2021.

 -----------------------------
 #p B3LYP/6-31G* geom=allcheck
 -----------------------------

 Structure from the checkpoint file:  "SET_328_BBB272_conf1.geo_345_270_180.chk"
 ---------------------------------------------
 SET_328_BBB272_conf1.geo_345_270_180 geometry
 ---------------------------------------------
 Charge = -1 Multiplicity = 1

 SCF Done:  E(RB3LYP) =  -648.132806648     A.U. after   16 cycles
 Normal termination of Gaussian 16 at Sun Jul 18 13:59:03 2021.
 Gaussian 16:  ES64L-G16RevB.01 20-Dec-2017

 --------------------------------------------------------
 #p mp2/aug-cc-pVDZ scf=tight maxdisk=180GB geom=allcheck
 --------------------------------------------------------

 Structure from the checkpoint file:  "SET_328_BBB272_conf1.geo_345_270_180.chk"
 ---------------------------------------------
 SET_328_BBB272_conf1.geo_345_270_180 geometry
 ---------------------------------------------
 Charge = -1 Multiplicity = 1

                         Standard orientation:
 ---------------------------------------------------------------------
 Center     Atomic      Atomic             Coordinates (Angstroms)
 Number     Number       Type             X           Y           Z
 ---------------------------------------------------------------------
      1          6           0        3.418168   -0.508913   -0.348795
      2          1           0        3.556346   -1.199408   -1.183600
      3          1           0        4.180040   -0.679190    0.410477
      4          1           0        3.510017    0.508593   -0.737269
      5          6           0        2.050027   -0.670541    0.251426
      6          8           0        1.795792   -0.780384    1.431587
      7          8           0        1.106299   -0.713930   -0.727403
      8          6           0       -0.239282   -0.673260   -0.346268
      9          6           0       -0.878472    0.544805   -0.072406
     10          6           0       -0.184230    1.911392   -0.068243
     11          8           0       -0.946136    2.915424   -0.103135
     12          8           0        1.076413    1.935971   -0.018714
     13          6           0       -2.251679    0.486240    0.205721
     14          1           0       -2.756584    1.424759    0.404502
     15          6           0       -2.954450   -0.716359    0.223888
     16          1           0       -4.015639   -0.722205    0.449906
     17          6           0       -2.288910   -1.911004   -0.057972
     18          1           0       -2.822664   -2.854294   -0.055458
     19          6           0       -0.925751   -1.885639   -0.348103
     20          1           0       -0.382986   -2.795234   -0.582723
 ---------------------------------------------------------------------

 SCF Done:  E(RHF) =  -644.489428694     A.U. after   16 cycles
 E2 =    -0.2005740932D+01 EUMP2 =    -0.64649516962595D+03

 The electronic state is 1-A.
 Alpha  occ. eigenvalues --  -20.48914 -20.42809 -20.32347 -20.32274 -11.27159
 Alpha  occ. eigenvalues --  -11.18572 -11.17506 -11.13446 -11.13307 -11.12682
 Alpha  occ. eigenvalues --  -11.12412 -11.11629 -11.11190  -1.33976  -1.23906
 Alpha  occ. eigenvalues --   -1.19374  -1.08930  -1.03331  -0.92280  -0.90244
 Alpha  occ. eigenvalues --   -0.87761  -0.74111  -0.72186  -0.65786  -0.60297
 Alpha  occ. eigenvalues --   -0.57223  -0.56039  -0.54850  -0.52899  -0.49859
 Alpha  occ. eigenvalues --   -0.48348  -0.46572  -0.46085  -0.44817  -0.42575
 Alpha  occ. eigenvalues --   -0.41569  -0.40513  -0.39556  -0.37813  -0.36127
 Alpha  occ. eigenvalues --   -0.34038  -0.32410  -0.23535  -0.23175  -0.21654
 Alpha  occ. eigenvalues --   -0.21002  -0.20630
 Alpha virt. eigenvalues --    0.10885   0.11500   0.12173   0.13230   0.14077
 Alpha virt. eigenvalues --    0.15513   0.15962   0.18379   0.20054   0.20563
 Alpha virt. eigenvalues --    0.21198   0.21539   0.21844   0.22380   0.22993

 Mulliken charges:
               1
     1  C    0.239181
     2  H   -0.002113
     3  H   -0.043934
     4  H    0.082150
     5  C    0.742013
     6  O   -0.811471
     7  O   -1.179666
     8  C    0.774320
     9  C    0.571933
    10  C    0.881179
    11  O   -0.989644
    12  O   -0.958774
    13  C    0.702861
    14  H   -0.619780
    15  C    0.465434
    16  H   -0.473867
    17  C    0.372717
    18  H   -0.462001
    19  C    0.316504
    20  H   -0.607044
 Sum of Mulliken charges =  -1.00000

 Dipole moment (field-independent basis, Debye):
    X=             -0.0809    Y=             -9.2667    Z=             -1.7190  Tot=              9.4251
 Quadrupole moment (field-independent basis, Debye-Ang):
   XX=            -79.3301   YY=           -107.8117   ZZ=            -85.6802
   XY=              1.4037   XZ=             -6.1705   YZ=              3.5010

 Normal termination of Gaussian 16 at Sun Jul 18 14:05:08 2021.
