 Gaussian 16, Revision B.01,

 -----------------------------------------------------------
 #p b3lyp/6-31G(d) opt freq scrf=(iefpcm,read,solvent=water)
 -----------------------------------------------------------

 --------------------------------------------
 SET_328_BBB20_conf1.geo_105_285_180 geometry
 --------------------------------------------
 Symbolic Z-matrix:
 Charge =  1 Multiplicity = 1

 SCF Done:  E(RB3LYP) =  -769.786642456     A.U. after   13 cycles
 SCF Done:  E(RB3LYP) =  -769.816184594     A.U. after   11 cycles
 SCF Done:  E(RB3LYP) =  -769.828823341     A.U. after   11 cycles
 SCF Done:  E(RB3LYP) =  -769.830085696     A.U. after   10 cycles
 SCF Done:  E(RB3LYP) =  -769.830505200     A.U. after   10 cycles
 SCF Done:  E(RB3LYP) =  -769.830444309     A.U. after   10 cycles
 SCF Done:  E(RB3LYP) =  -769.831000073     A.U. after   10 cycles
 SCF Done:  E(RB3LYP) =  -769.830749772     A.U. after   12 cycles
 SCF Done:  E(RB3LYP) =  -769.832258824     A.U. after   10 cycles
 SCF Done:  E(RB3LYP) =  -769.832640353     A.U. after   10 cycles
 SCF Done:  E(RB3LYP) =  -769.833329604     A.U. after    9 cycles
 SCF Done:  E(RB3LYP) =  -769.833352169     A.U. after    9 cycles
 SCF Done:  E(RB3LYP) =  -769.833358921     A.U. after    8 cycles
 SCF Done:  E(RB3LYP) =  -769.833366275     A.U. after    7 cycles
 SCF Done:  E(RB3LYP) =  -769.833375231     A.U. after    7 cycles
 SCF Done:  E(RB3LYP) =  -769.833380538     A.U. after    7 cycles
 Optimization completed.
    -- Stationary point found.
 Normal termination of Gaussian 16 at Sun Jul 18 14:11:35 2021.

 --------------------------------------------------------------------
 #P Geom=AllCheck Guess=TCheck SCRF=Check GenChk RB3LYP/6-31G(d) Freq
 --------------------------------------------------------------------

 Structure from the checkpoint file:  "SET_328_BBB20_conf1.geo_105_285_180.chk"
 --------------------------------------------
 SET_328_BBB20_conf1.geo_105_285_180 geometry
 --------------------------------------------
 Charge =  1 Multiplicity = 1

 SCF Done:  E(RB3LYP) =  -769.833380538     A.U. after    1 cycles

  Exact polarizability: 280.083 -42.284 236.723 -23.613 -46.331 241.530
 Approx polarizability: 292.628 -42.441 262.459 -26.427 -55.598 277.116

                      1                      2                      3
                      A                      A                      A
 Frequencies --     40.6006                44.5481                65.6219
 Red. masses --      4.4014                 4.1311                 3.7605
 Frc consts  --      0.0043                 0.0048                 0.0095
 IR Inten    --      4.3250                17.1033                21.9369

                      4                      5                      6
                      A                      A                      A
 Frequencies --     95.4592               120.9032               132.3618
 Red. masses --      3.5990                 2.0107                 3.2992
 Frc consts  --      0.0193                 0.0173                 0.0341
 IR Inten    --      1.2982                 5.1546                 4.2122

                      7                      8                      9
                      A                      A                      A
 Frequencies --    148.9855               174.7737               208.7352
 Red. masses --      2.8215                 3.9753                 2.7363
 Frc consts  --      0.0369                 0.0715                 0.0702
 IR Inten    --      2.5842                10.0650                 0.1590

                     10                     11                     12
                      A                      A                      A
 Frequencies --    246.9079               284.4793               293.3063
 Red. masses --      3.4992                 3.3661                 2.7167
 Frc consts  --      0.1257                 0.1605                 0.1377
 IR Inten    --      1.1711                14.4236                 2.9767

                     13                     14                     15
                      A                      A                      A
 Frequencies --    320.3392               333.7980               340.1617
 Red. masses --      3.5478                 1.0835                 2.2076
 Frc consts  --      0.2145                 0.0711                 0.1505
 IR Inten    --      2.7020                 0.2628                 1.3165

                     16                     17                     18
                      A                      A                      A
 Frequencies --    358.5228               412.2958               440.2619
 Red. masses --      4.0148                 5.0914                 2.9385
 Frc consts  --      0.3041                 0.5099                 0.3356
 IR Inten    --      2.7801                16.8618                 6.2764

                     19                     20                     21
                      A                      A                      A
 Frequencies --    467.8426               476.9927               501.3148
 Red. masses --      3.7139                 3.1065                 3.6436
 Frc consts  --      0.4789                 0.4164                 0.5395
 IR Inten    --      2.3789                 0.6530                 5.6283

                     22                     23                     24
                      A                      A                      A
 Frequencies --    526.7460               550.0335               575.0807
 Red. masses --      3.0085                 3.7949                 4.8960
 Frc consts  --      0.4918                 0.6764                 0.9540
 IR Inten    --      2.3530                 2.7864                 2.9151

                     25                     26                     27
                      A                      A                      A
 Frequencies --    592.0052               611.2859               635.4003
 Red. masses --      3.6605                 3.0595                 5.2127
 Frc consts  --      0.7559                 0.6736                 1.2400
 IR Inten    --      1.2533                12.8118                 6.3274

                     28                     29                     30
                      A                      A                      A
 Frequencies --    695.5706               727.8320               756.8066
 Red. masses --      4.5445                 3.3735                 2.3364
 Frc consts  --      1.2955                 1.0529                 0.7884
 IR Inten    --      4.8550                 3.3931                15.8436

                     31                     32                     33
                      A                      A                      A
 Frequencies --    770.2070               775.2142               784.5289
 Red. masses --      1.6232                 1.7236                 1.9455
 Frc consts  --      0.5673                 0.6103                 0.7055
 IR Inten    --     25.1574                62.9360                 3.1681

                     34                     35                     36
                      A                      A                      A
 Frequencies --    787.8212               808.7646               862.3121
 Red. masses --      1.8337                 2.3031                 2.0529
 Frc consts  --      0.6706                 0.8876                 0.8994
 IR Inten    --     40.6618                 7.1237                10.6402

                     37                     38                     39
                      A                      A                      A
 Frequencies --    872.5709               888.4984               894.3878
 Red. masses --      1.3974                 1.4854                 2.0475
 Frc consts  --      0.6269                 0.6909                 0.9650
 IR Inten    --      2.5089                 2.1731                10.6097

                     40                     41                     42
                      A                      A                      A
 Frequencies --    927.1234               932.1671               948.1111
 Red. masses --      1.7150                 2.1444                 1.3994
 Frc consts  --      0.8686                 1.0978                 0.7412
 IR Inten    --     23.3807                17.3039                10.1740

                     43                     44                     45
                      A                      A                      A
 Frequencies --    955.7042               980.8684               984.8897
 Red. masses --      1.3972                 1.2615                 2.1634
 Frc consts  --      0.7519                 0.7151                 1.2364
 IR Inten    --      4.6360                 0.4149                 1.2547

                     46                     47                     48
                      A                      A                      A
 Frequencies --    989.3660               991.3034              1014.1185
 Red. masses --      1.9014                 1.4400                 1.4512
 Frc consts  --      1.0966                 0.8337                 0.8794
 IR Inten    --     16.4015                 4.7205                24.1558

                     49                     50                     51
                      A                      A                      A
 Frequencies --   1028.4776              1047.2924              1071.7960
 Red. masses --      2.4422                 2.3779                 2.1589
 Frc consts  --      1.5220                 1.5367                 1.4612
 IR Inten    --      6.6583                 3.7330                 4.8622

                     52                     53                     54
                      A                      A                      A
 Frequencies --   1089.7504              1094.9401              1133.3387
 Red. masses --      2.5651                 2.4639                 2.1218
 Frc consts  --      1.7948                 1.7404                 1.6057
 IR Inten    --      8.4684                19.9552                53.6545

                     55                     56                     57
                      A                      A                      A
 Frequencies --   1146.7544              1156.7719              1168.0670
 Red. masses --      1.9687                 1.8135                 1.7391
 Frc consts  --      1.5253                 1.4297                 1.3980
 IR Inten    --     10.4142                51.5783                37.1723

                     58                     59                     60
                      A                      A                      A
 Frequencies --   1187.2543              1192.0620              1202.8104
 Red. masses --      1.1341                 1.2693                 1.1667
 Frc consts  --      0.9419                 1.0627                 0.9945
 IR Inten    --      3.0624                 1.4348                 5.0681

                     61                     62                     63
                      A                      A                      A
 Frequencies --   1211.9239              1233.7917              1247.6485
 Red. masses --      1.6381                 2.6955                 1.7527
 Frc consts  --      1.4175                 2.4175                 1.6074
 IR Inten    --      2.7648                11.3269                66.3401

                     64                     65                     66
                      A                      A                      A
 Frequencies --   1260.7791              1274.9643              1304.6456
 Red. masses --      2.0338                 1.8762                 1.4531
 Frc consts  --      1.9048                 1.7969                 1.4572
 IR Inten    --     84.4346               192.0646                 8.4229

                     67                     68                     69
                      A                      A                      A
 Frequencies --   1312.9716              1328.3475              1337.3943
 Red. masses --      1.3659                 1.6150                 2.8834
 Frc consts  --      1.3873                 1.6790                 3.0386
 IR Inten    --      2.2412                 2.4157                95.6675

                     70                     71                     72
                      A                      A                      A
 Frequencies --   1347.1707              1351.6980              1362.5213
 Red. masses --      2.9969                 1.1506                 2.4712
 Frc consts  --      3.2045                 1.2386                 2.7030
 IR Inten    --     16.7762                25.6930                 8.1949

                     73                     74                     75
                      A                      A                      A
 Frequencies --   1374.7640              1379.3650              1396.7710
 Red. masses --      1.4894                 1.4634                 1.4697
 Frc consts  --      1.6585                 1.6405                 1.6894
 IR Inten    --     39.3393                 7.7029                23.1659

                     76                     77                     78
                      A                      A                      A
 Frequencies --   1429.0307              1440.4791              1485.8789
 Red. masses --      1.4680                 1.3396                 1.5615
 Frc consts  --      1.7662                 1.6377                 2.0312
 IR Inten    --     18.2200                19.1575                28.7379

                     79                     80                     81
                      A                      A                      A
 Frequencies --   1490.9991              1496.7641              1500.2447
 Red. masses --      1.4523                 1.2281                 1.2906
 Frc consts  --      1.9022                 1.6210                 1.7115
 IR Inten    --     34.2242                 3.5872                21.5717

                     82                     83                     84
                      A                      A                      A
 Frequencies --   1503.3938              1521.8403              1527.6201
 Red. masses --      1.5880                 1.1403                 1.1163
 Frc consts  --      2.1146                 1.5560                 1.5348
 IR Inten    --     35.6878               152.4948                47.1548

                     85                     86                     87
                      A                      A                      A
 Frequencies --   1528.7578              1542.5723              1549.6857
 Red. masses --      1.8533                 1.6579                 1.6342
 Frc consts  --      2.5519                 2.3244                 2.3123
 IR Inten    --    209.6615                22.0766                30.3938

                     88                     89                     90
                      A                      A                      A
 Frequencies --   1628.8167              1640.1107              1642.3133
 Red. masses --      5.9287                 6.4237                 1.0374
 Frc consts  --      9.2673                10.1808                 1.6485
 IR Inten    --     24.8448                10.7924                79.7230

                     91                     92                     93
                      A                      A                      A
 Frequencies --   1652.7762              1659.2257              1659.5355
 Red. masses --      5.7333                 4.6453                 1.0866
 Frc consts  --      9.2274                 7.5349                 1.7632
 IR Inten    --     38.3527                12.6776                81.8567

                     94                     95                     96
                      A                      A                      A
 Frequencies --   3024.7074              3041.7453              3059.5732
 Red. masses --      1.0717                 1.0653                 1.0626
 Frc consts  --      5.7766                 5.8074                 5.8608
 IR Inten    --     94.4988                45.2666                39.6515

                     97                     98                     99
                      A                      A                      A
 Frequencies --   3078.9423              3081.8341              3108.2806
 Red. masses --      1.0602                 1.0953                 1.1027
 Frc consts  --      5.9216                 6.1293                 6.2767
 IR Inten    --     34.4419                79.8784                56.2175

                    100                    101                    102
                      A                      A                      A
 Frequencies --   3116.1216              3130.8740              3134.0002
 Red. masses --      1.1001                 1.0838                 1.0690
 Frc consts  --      6.2939                 6.2591                 6.1865
 IR Inten    --      9.2063                20.9657                44.8210

                    103                    104                    105
                      A                      A                      A
 Frequencies --   3191.0343              3194.7606              3197.9922
 Red. masses --      1.1098                 1.0867                 1.0865
 Frc consts  --      6.6582                 6.5349                 6.5469
 IR Inten    --     17.3241                16.8172                11.0010

                    106                    107                    108
                      A                      A                      A
 Frequencies --   3206.7775              3207.5088              3219.1985
 Red. masses --      1.0887                 1.0887                 1.0927
 Frc consts  --      6.5962                 6.5991                 6.6718
 IR Inten    --     25.2574                19.6683                52.5273

                    109                    110                    111
                      A                      A                      A
 Frequencies --   3222.6815              3228.9110              3242.6670
 Red. masses --      1.0955                 1.0961                 1.0918
 Frc consts  --      6.7036                 6.7330                 6.7637
 IR Inten    --     56.5557                31.9830                21.6088

                    112                    113                    114
                      A                      A                      A
 Frequencies --   3384.7444              3447.2693              3471.4464
 Red. masses --      1.0341                 1.0943                 1.0929
 Frc consts  --      6.9802                 7.6617                 7.7596
 IR Inten    --    130.0144               228.8870               220.1249

 - Thermochemistry -
 -------------------
 Temperature   298.150 Kelvin.  Pressure   1.00000 Atm.
 Atom     1 has atomic number  7 and mass  14.00307

 Molecular mass:   253.17047 amu.
 Principal axes and moments of inertia in atomic units:
                           1         2         3
     Eigenvalues --  3869.850385722.326447240.04722
           X            0.99910   0.04234   0.00266
           Y           -0.04230   0.99902  -0.01334
           Z           -0.00323   0.01322   0.99991
 This molecule is an asymmetric top.
 Rotational symmetry number  1.
 Warning -- assumption of classical behavior for rotation
           may cause significant error
 Rotational temperatures (Kelvin)      0.02238     0.01514     0.01196
 Rotational constants (GHZ):           0.46636     0.31539     0.24927
 Zero-point vibrational energy     929989.6 (Joules/Mol)
                                  222.27284 (Kcal/Mol)
 Warning -- explicit consideration of  26 degrees of freedom as
           vibrations may cause significant error
 Vibrational temperatures:     58.42    64.09    94.42   137.34   173.95
          (Kelvin)            190.44   214.36   251.46   300.32   355.25
                              409.30   422.00   460.90   480.26   489.42
                              515.83   593.20   633.44   673.12   686.29
                              721.28   757.87   791.38   827.41   851.76
                              879.50   914.20  1000.77  1047.19  1088.88
                             1108.16  1115.36  1128.76  1133.50  1163.63
                             1240.67  1255.43  1278.35  1286.82  1333.92
                             1341.18  1364.12  1375.05  1411.25  1417.04
                             1423.48  1426.26  1459.09  1479.75  1506.82
                             1542.08  1567.91  1575.37  1630.62  1649.92
                             1664.34  1680.59  1708.19  1715.11  1730.58
                             1743.69  1775.15  1795.09  1813.98  1834.39
                             1877.09  1889.07  1911.20  1924.21  1938.28
                             1944.79  1960.36  1977.98  1984.60  2009.64
                             2056.06  2072.53  2137.85  2145.22  2153.51
                             2158.52  2163.05  2189.59  2197.90  2199.54
                             2219.42  2229.65  2343.50  2359.75  2362.92
                             2377.98  2387.26  2387.70  4351.88  4376.39
                             4402.04  4429.91  4434.07  4472.12  4483.40
                             4504.63  4509.13  4591.19  4596.55  4601.20
                             4613.84  4614.89  4631.71  4636.72  4645.68
                             4665.47  4869.89  4959.85  4994.64

 Zero-point correction=                           0.354214 (Hartree/Particle)
 Thermal correction to Energy=                    0.370473
 Thermal correction to Enthalpy=                  0.371417
 Thermal correction to Gibbs Free Energy=         0.310461
 Sum of electronic and zero-point Energies=           -769.479166
 Sum of electronic and thermal Energies=              -769.462908
 Sum of electronic and thermal Enthalpies=            -769.461964
 Sum of electronic and thermal Free Energies=         -769.522919

                     E (Thermal)             CV                S
                      KCal/Mol        Cal/Mol-Kelvin    Cal/Mol-Kelvin
 Total                  232.475             65.983            128.292
 Electronic               0.000              0.000              0.000
 Translational            0.889              2.981             42.487
 Rotational               0.889              2.981             33.438
 Vibrational            230.698             60.021             52.367
 Vibration     1          0.594              1.981              5.230
 Vibration     2          0.595              1.980              5.046
 Vibration     3          0.597              1.971              4.281
 Vibration     4          0.603              1.952              3.545
 Vibration     5          0.609              1.932              3.086
 Vibration     6          0.612              1.921              2.911
 Vibration     7          0.618              1.904              2.685
 Vibration     8          0.627              1.873              2.384
 Vibration     9          0.642              1.827              2.055
 Vibration    10          0.661              1.768              1.753
 Vibration    11          0.683              1.702              1.507
 Vibration    12          0.688              1.686              1.455
 Vibration    13          0.706              1.635              1.308
 Vibration    14          0.715              1.608              1.242
 Vibration    15          0.720              1.595              1.211
 Vibration    16          0.733              1.558              1.129
 Vibration    17          0.776              1.444              0.919
 Vibration    18          0.800              1.382              0.826
 Vibration    19          0.825              1.321              0.744
 Vibration    20          0.834              1.301              0.718
 Vibration    21          0.857              1.247              0.655
 Vibration    22          0.882              1.191              0.595
 Vibration    23          0.905              1.140              0.544
 Vibration    24          0.931              1.085              0.495
 Vibration    25          0.949              1.049              0.464
 Vibration    26          0.970              1.008              0.431

                           ! Non-Optimized Parameters !
 Normal termination of Gaussian 16 at Sun Jul 18 14:31:30 2021.

 ----------------------------------------------------------------------
 #p b3lyp/6-31G(d) scrf=(iefpcm,read,solvent=water) geom=allcheck guess
 =read
 ----------------------------------------------------------------------

 Structure from the checkpoint file:  "SET_328_BBB20_conf1.geo_105_285_180.chk"
 --------------------------------------------
 SET_328_BBB20_conf1.geo_105_285_180 geometry
 --------------------------------------------
 Charge =  1 Multiplicity = 1

 SCF Done:  E(RB3LYP) =  -769.833380538     A.U. after    1 cycles
 Normal termination of Gaussian 16 at Sun Jul 18 14:31:44 2021.

 -----------------------------
 #p B3LYP/6-31G* geom=allcheck
 -----------------------------

 Structure from the checkpoint file:  "SET_328_BBB20_conf1.geo_105_285_180.chk"
 --------------------------------------------
 SET_328_BBB20_conf1.geo_105_285_180 geometry
 --------------------------------------------
 Charge =  1 Multiplicity = 1

 SCF Done:  E(RB3LYP) =  -769.718957399     A.U. after   14 cycles

 The electronic state is 1-A.
 Alpha  occ. eigenvalues --  -14.66092 -14.45345 -10.42038 -10.35061 -10.34645
 Alpha  occ. eigenvalues --  -10.31772 -10.31384 -10.28574 -10.28341 -10.28307
 Alpha  occ. eigenvalues --  -10.28024 -10.27911 -10.27788 -10.27676 -10.27573
 Alpha  occ. eigenvalues --  -10.26787 -10.26461 -10.26274 -10.25977  -1.20146
 Alpha  occ. eigenvalues --   -1.05409  -0.95838  -0.94398  -0.92583  -0.88761
 Alpha  occ. eigenvalues --   -0.85813  -0.84169  -0.83953  -0.81016  -0.79960
 Alpha  occ. eigenvalues --   -0.78563  -0.77724  -0.74416  -0.73482  -0.69604
 Alpha  occ. eigenvalues --   -0.68410  -0.68071  -0.66832  -0.65804  -0.63075
 Alpha  occ. eigenvalues --   -0.60736  -0.60105  -0.57957  -0.56992  -0.55942
 Alpha  occ. eigenvalues --   -0.55360  -0.54538  -0.53628  -0.52666  -0.52271
 Alpha  occ. eigenvalues --   -0.52143  -0.50419  -0.50225  -0.48751  -0.48406
 Alpha  occ. eigenvalues --   -0.47390  -0.46564  -0.44986  -0.44341  -0.43280
 Alpha  occ. eigenvalues --   -0.42729  -0.42361  -0.41419  -0.38114  -0.33893
 Alpha  occ. eigenvalues --   -0.32915  -0.31944  -0.29244
 Alpha virt. eigenvalues --   -0.16284  -0.09950  -0.09746  -0.09591  -0.09307
 Alpha virt. eigenvalues --   -0.07967  -0.07490  -0.05839  -0.03272  -0.02309
 Alpha virt. eigenvalues --   -0.00060   0.01004   0.01732   0.02073   0.02438

 Mulliken charges:
               1
     1  N   -0.724554
     2  H    0.427668
     3  H    0.431508
     4  C   -0.212326
     5  H    0.225724
     6  H    0.249523
     7  C   -0.305086
     8  H    0.183428
     9  H    0.166053
    10  C   -0.145963
    11  H    0.174467
    12  H    0.174777
    13  N   -0.594528
    14  C    0.233341
    15  C   -0.180013
    16  H    0.129190
    17  C   -0.144517
    18  H    0.145941
    19  C   -0.118932
    20  H    0.148438
    21  C   -0.198137
    22  H    0.139206
    23  C    0.159015
    24  C   -0.343442
    25  H    0.176529
    26  H    0.162285
    27  C   -0.356999
    28  H    0.155405
    29  H    0.124930
    30  C    0.150285
    31  C   -0.212668
    32  H    0.143450
    33  C   -0.119957
    34  H    0.152302
    35  C   -0.148887
    36  H    0.150967
    37  C   -0.167354
    38  H    0.135909
    39  C    0.199530
    40  H    0.433490
 Sum of Mulliken charges =   1.00000

 Dipole moment (field-independent basis, Debye):
    X=             13.0563    Y=             10.9453    Z=              4.6611  Tot=             17.6633
 Quadrupole moment (field-independent basis, Debye-Ang):
   XX=            -53.3614   YY=            -67.6515   ZZ=            -94.0817
   XY=             35.2292   XZ=             14.5750   YZ=              9.0227

 Normal termination of Gaussian 16 at Sun Jul 18 14:32:54 2021.
 Gaussian 16:  ES64L-G16RevB.01 20-Dec-2017

 --------------------------------------------------------
 #p mp2/aug-cc-pVDZ scf=tight maxdisk=180GB geom=allcheck
 --------------------------------------------------------

 Structure from the checkpoint file:  "SET_328_BBB20_conf1.geo_105_285_180.chk"
 --------------------------------------------
 SET_328_BBB20_conf1.geo_105_285_180 geometry
 --------------------------------------------
 Charge =  1 Multiplicity = 1

                         Standard orientation:
 ---------------------------------------------------------------------
 Center     Atomic      Atomic             Coordinates (Angstroms)
 Number     Number       Type             X           Y           Z
 ---------------------------------------------------------------------
      1          7           0        3.350536    2.786298    1.285974
      2          1           0        3.667814    3.613958    0.757676
      3          1           0        4.030949    2.030860    1.115934
      4          6           0        1.963619    2.377802    0.883193
      5          1           0        1.309683    3.213069    1.133086
      6          1           0        1.694425    1.523078    1.502997
      7          6           0        1.911847    2.043898   -0.600557
      8          1           0        2.601781    1.223464   -0.820947
      9          1           0        2.239610    2.909729   -1.185855
     10          6           0        0.495279    1.688205   -1.058509
     11          1           0        0.492541    1.580334   -2.152125
     12          1           0       -0.166272    2.524781   -0.825938
     13          7           0       -0.044172    0.509819   -0.370699
     14          6           0       -1.465175    0.406784   -0.266988
     15          6           0       -2.266224    1.151344   -1.155077
     16          1           0       -1.790648    1.736982   -1.931203
     17          6           0       -3.655879    1.141104   -1.079527
     18          1           0       -4.234050    1.731977   -1.782402
     19          6           0       -4.288930    0.361073   -0.113841
     20          1           0       -5.370609    0.338586   -0.035737
     21          6           0       -3.504204   -0.392184    0.754704
     22          1           0       -3.984279   -1.000102    1.515823
     23          6           0       -2.102361   -0.394528    0.711833
     24          6           0       -1.419349   -1.276297    1.749151
     25          1           0       -1.661217   -2.322995    1.524418
     26          1           0       -1.884913   -1.069671    2.719004
     27          6           0        0.104894   -1.165676    1.895162
     28          1           0        0.425532   -1.825368    2.707038
     29          1           0        0.371703   -0.141402    2.179708
     30          6           0        0.817287   -1.544751    0.626190
     31          6           0        1.558865   -2.724444    0.516360
     32          1           0        1.633853   -3.374909    1.382367
     33          6           0        2.213145   -3.060585   -0.670351
     34          1           0        2.794069   -3.974765   -0.732793
     35          6           0        2.119693   -2.206953   -1.770139
     36          1           0        2.622485   -2.453404   -2.699172
     37          6           0        1.369161   -1.034523   -1.683377
     38          1           0        1.290045   -0.378498   -2.542830
     39          6           0        0.711190   -0.700569   -0.492683
     40          1           0        3.395808    3.023264    2.290764
 ---------------------------------------------------------------------

 SCF Done:  E(RHF) =  -764.750716297     A.U. after   16 cycles
