 Gaussian 16, Revision B.01,

 -----------------------------------------------------------
 #p b3lyp/6-31G(d) opt freq scrf=(iefpcm,read,solvent=water)
 -----------------------------------------------------------

 ---------------------------------------------
 SET_328_BBB321_conf1.geo_180_030_240 geometry
 ---------------------------------------------
 Symbolic Z-matrix:
 Charge =  1 Multiplicity = 1

 SCF Done:  E(RB3LYP) =  -1212.46778598     A.U. after   19 cycles
 SCF Done:  E(RB3LYP) =  -1212.61312281     A.U. after   13 cycles
 SCF Done:  E(RB3LYP) =  -1212.68357852     A.U. after   14 cycles
 SCF Done:  E(RB3LYP) =  -1212.74059924     A.U. after   13 cycles
 SCF Done:  E(RB3LYP) =  -1212.77353286     A.U. after   11 cycles
 SCF Done:  E(RB3LYP) =  -1212.79458563     A.U. after   11 cycles
 SCF Done:  E(RB3LYP) =  -1212.81088306     A.U. after   13 cycles
 SCF Done:  E(RB3LYP) =  -1212.81541614     A.U. after   13 cycles
 SCF Done:  E(RB3LYP) =  -1212.81862142     A.U. after   13 cycles
 SCF Done:  E(RB3LYP) =  -1212.80919168     A.U. after   14 cycles
 SCF Done:  E(RB3LYP) =  -1212.82265185     A.U. after    7 cycles
 SCF Done:  E(RB3LYP) =  -1212.82265342     A.U. after    8 cycles
 SCF Done:  E(RB3LYP) =  -1212.82265200     A.U. after    8 cycles
 SCF Done:  E(RB3LYP) =  -1212.82265206     A.U. after    6 cycles
 SCF Done:  E(RB3LYP) =  -1212.82265349     A.U. after    8 cycles
 SCF Done:  E(RB3LYP) =  -1212.82265220     A.U. after    8 cycles
 Optimization completed.
    -- Stationary point found.
 Normal termination of Gaussian 16 at Sun Jul 18 16:09:44 2021.

 --------------------------------------------------------------------
 #P Geom=AllCheck Guess=TCheck SCRF=Check GenChk RB3LYP/6-31G(d) Freq
 --------------------------------------------------------------------

 Structure from the checkpoint file:  "SET_328_BBB321_conf1.geo_180_030_240.chk"
 ---------------------------------------------
 SET_328_BBB321_conf1.geo_180_030_240 geometry
 ---------------------------------------------
 Charge =  1 Multiplicity = 1

 SCF Done:  E(RB3LYP) =  -1212.82265220     A.U. after    1 cycles

  Exact polarizability: 365.599 -15.315 309.938   2.892   0.661  91.073
 Approx polarizability: 395.690 -18.282 347.613   3.914   0.611 109.148

                      1                      2                      3
                      A                      A                      A
 Frequencies --     19.8408                35.5436                53.8500
 Red. masses --      4.6599                 7.4567                 6.0868
 Frc consts  --      0.0011                 0.0056                 0.0104
 IR Inten    --      1.9804                 7.8241                 1.6244

                      4                      5                      6
                      A                      A                      A
 Frequencies --     57.0491                59.0717                69.2943
 Red. masses --      4.4680                 1.6584                 4.7120
 Frc consts  --      0.0086                 0.0034                 0.0133
 IR Inten    --      8.0709                 2.7146                 2.2994

                      7                      8                      9
                      A                      A                      A
 Frequencies --    101.0135               119.4921               136.1138
 Red. masses --      4.4007                 2.1688                 5.0342
 Frc consts  --      0.0265                 0.0182                 0.0550
 IR Inten    --      8.1421                 0.5335                12.6813

                     10                     11                     12
                      A                      A                      A
 Frequencies --    164.1074               206.9406               248.1211
 Red. masses --      1.1485                 5.9487                 4.5644
 Frc consts  --      0.0182                 0.1501                 0.1656
 IR Inten    --    357.6557                19.1712                 8.3094

                     13                     14                     15
                      A                      A                      A
 Frequencies --    261.6928               265.0961               276.3004
 Red. masses --      7.0306                 3.8999                 4.7451
 Frc consts  --      0.2837                 0.1615                 0.2134
 IR Inten    --      1.8876                 7.0447                 2.1314

                     16                     17                     18
                      A                      A                      A
 Frequencies --    310.8926               334.3585               345.8295
 Red. masses --      5.3387                 6.6425                 1.3134
 Frc consts  --      0.3040                 0.4375                 0.0925
 IR Inten    --      8.0437                16.6299               207.2721

                     19                     20                     21
                      A                      A                      A
 Frequencies --    370.7392               403.0088               409.6545
 Red. masses --      4.0672                 5.7091                 1.0811
 Frc consts  --      0.3294                 0.5463                 0.1069
 IR Inten    --      0.5338                10.0698               269.9910

                     22                     23                     24
                      A                      A                      A
 Frequencies --    456.6533               492.6299               518.4222
 Red. masses --      3.3351                 5.2484                 1.6200
 Frc consts  --      0.4098                 0.7504                 0.2565
 IR Inten    --      3.7634                 5.1103                89.3735

                     25                     26                     27
                      A                      A                      A
 Frequencies --    545.5732               548.9446               556.8926
 Red. masses --      3.9609                 2.5862                 1.8292
 Frc consts  --      0.6946                 0.4592                 0.3342
 IR Inten    --     33.6071                 1.0246               154.9111

                     28                     29                     30
                      A                      A                      A
 Frequencies --    576.6478               602.7275               618.6065
 Red. masses --      2.0159                 3.1860                 9.1869
 Frc consts  --      0.3950                 0.6819                 2.0713
 IR Inten    --      3.9123                15.6796                 0.7764

                     31                     32                     33
                      A                      A                      A
 Frequencies --    635.6849               660.2474               662.3296
 Red. masses --      1.9592                 5.2750                 1.2303
 Frc consts  --      0.4664                 1.3548                 0.3180
 IR Inten    --     16.9509                 6.2700                14.5803

                     34                     35                     36
                      A                      A                      A
 Frequencies --    696.7762               702.9578               709.4576
 Red. masses --      3.6914                 2.0544                 6.0521
 Frc consts  --      1.0559                 0.5981                 1.7948
 IR Inten    --      0.0438                 3.9947                11.3762

                     37                     38                     39
                      A                      A                      A
 Frequencies --    710.7724               749.9569               815.0662
 Red. masses --      3.0263                 1.7920                 1.5367
 Frc consts  --      0.9008                 0.5938                 0.6015
 IR Inten    --      1.0987                90.4223                27.0072

                     40                     41                     42
                      A                      A                      A
 Frequencies --    828.3682               868.6006               887.7018
 Red. masses --      6.8524                 6.4162                 4.5256
 Frc consts  --      2.7704                 2.8521                 2.1012
 IR Inten    --     42.4799                36.8621                 2.1261

                     43                     44                     45
                      A                      A                      A
 Frequencies --    906.4376               915.6788               951.0491
 Red. masses --      1.5792                 1.3829                 5.2634
 Frc consts  --      0.7645                 0.6831                 2.8050
 IR Inten    --     33.4756                 0.0499                 1.8478

                     46                     47                     48
                      A                      A                      A
 Frequencies --    993.4157              1003.1340              1008.0115
 Red. masses --      1.2669                 4.9196                 4.8606
 Frc consts  --      0.7366                 2.9168                 2.9098
 IR Inten    --      1.2089                 2.5043                19.0222

                     49                     50                     51
                      A                      A                      A
 Frequencies --   1017.7938              1047.0680              1066.5851
 Red. masses --      5.1182                 1.5297                 1.6700
 Frc consts  --      3.1239                 0.9881                 1.1193
 IR Inten    --      5.1604                29.6012                16.0623

                     52                     53                     54
                      A                      A                      A
 Frequencies --   1098.7772              1113.2314              1120.7520
 Red. masses --      1.6009                 1.5332                 1.6513
 Frc consts  --      1.1387                 1.1195                 1.2221
 IR Inten    --     20.1454                 6.5455                29.6830

                     55                     56                     57
                      A                      A                      A
 Frequencies --   1144.7046              1197.8885              1209.6557
 Red. masses --      1.6684                 1.1407                 1.7163
 Frc consts  --      1.2881                 0.9644                 1.4797
 IR Inten    --      8.0942                 8.6930                54.2594

                     58                     59                     60
                      A                      A                      A
 Frequencies --   1252.4188              1271.2780              1291.1968
 Red. masses --      2.9997                 2.7149                 2.1427
 Frc consts  --      2.7722                 2.5852                 2.1047
 IR Inten    --    253.1312                47.8674                88.8703

                     61                     62                     63
                      A                      A                      A
 Frequencies --   1335.0835              1360.0109              1374.9932
 Red. masses --      1.9655                 4.5683                 4.1082
 Frc consts  --      2.0641                 4.9784                 4.5762
 IR Inten    --    238.7171                32.7130                88.7265

                     64                     65                     66
                      A                      A                      A
 Frequencies --   1427.8211              1444.9623              1493.5589
 Red. masses --      1.2420                 2.8485                 1.0460
 Frc consts  --      1.4918                 3.5042                 1.3748
 IR Inten    --     77.5941               113.2526                11.5898

                     67                     68                     69
                      A                      A                      A
 Frequencies --   1516.7537              1523.4366              1532.8644
 Red. masses --      1.1399                 1.9185                 2.6993
 Frc consts  --      1.5451                 2.6233                 3.7368
 IR Inten    --     26.6425               159.8146               271.8998

                     70                     71                     72
                      A                      A                      A
 Frequencies --   1549.9917              1562.8162              1590.4337
 Red. masses --      2.2472                 4.4459                 2.6204
 Frc consts  --      3.1809                 6.3978                 3.9052
 IR Inten    --    479.6136               114.3434               332.7289

                     73                     74                     75
                      A                      A                      A
 Frequencies --   1601.9255              1642.6360              1648.6679
 Red. masses --      2.5878                 2.1815                 3.5387
 Frc consts  --      3.9126                 3.4681                 5.6671
 IR Inten    --    199.6506               876.1204               158.1517

                     76                     77                     78
                      A                      A                      A
 Frequencies --   1652.2071              1660.6810              1729.8190
 Red. masses --      1.3158                 5.0932                 2.7769
 Frc consts  --      2.1162                 8.2758                 4.8957
 IR Inten    --    233.0204               329.0495               889.8040

                     79                     80                     81
                      A                      A                      A
 Frequencies --   1742.1943              3086.9975              3153.7029
 Red. masses --      5.9454                 1.0370                 1.1001
 Frc consts  --     10.6322                 5.8224                 6.4467
 IR Inten    --    376.2641                 8.8686                10.6403

                     82                     83                     84
                      A                      A                      A
 Frequencies --   3178.6759              3205.9579              3225.9083
 Red. masses --      1.1041                 1.0883                 1.0913
 Frc consts  --      6.5728                 6.5903                 6.6909
 IR Inten    --     24.4604                21.6741                33.0287

                     85                     86                     87
                      A                      A                      A
 Frequencies --   3227.4320              3287.2544              3312.3009
 Red. masses --      1.0923                 1.0917                 1.0945
 Frc consts  --      6.7033                 6.9507                 7.0752
 IR Inten    --      4.4819                 5.9040                 5.7780

                     88                     89                     90
                      A                      A                      A
 Frequencies --   3484.7009              3565.8004              3580.9556
 Red. masses --      1.0517                 1.0484                 1.0781
 Frc consts  --      7.5246                 7.8538                 8.1450
 IR Inten    --    425.7197               256.2590               334.1932

                     91                     92                     93
                      A                      A                      A
 Frequencies --   3597.9420              3625.9391              3678.4852
 Red. masses --      1.0782                 1.1027                 1.1087
 Frc consts  --      8.2236                 8.5421                 8.8389
 IR Inten    --    100.8056               445.8066               246.7699

 - Thermochemistry -
 -------------------
 Temperature   298.150 Kelvin.  Pressure   1.00000 Atm.
 Atom     1 has atomic number  6 and mass  12.00000

 Molecular mass:   276.09191 amu.
 Principal axes and moments of inertia in atomic units:
                           1         2         3
     Eigenvalues --  3372.61494********************
           X            1.00000   0.00290  -0.00055
           Y           -0.00290   1.00000   0.00114
           Z            0.00055  -0.00114   1.00000
 This molecule is an asymmetric top.
 Rotational symmetry number  1.
 Warning -- assumption of classical behavior for rotation
           may cause significant error
 Rotational temperatures (Kelvin)      0.02568     0.00799     0.00610
 Rotational constants (GHZ):           0.53512     0.16659     0.12719
 Zero-point vibrational energy     683695.8 (Joules/Mol)
                                  163.40722 (Kcal/Mol)
 Warning -- explicit consideration of  30 degrees of freedom as
           vibrations may cause significant error
 Vibrational temperatures:     28.55    51.14    77.48    82.08    84.99
          (Kelvin)             99.70   145.34   171.92   195.84   236.11
                              297.74   356.99   376.52   381.41   397.53
                              447.31   481.07   497.57   533.41   579.84
                              589.40   657.02   708.78   745.89   784.96
                              789.81   801.24   829.67   867.19   890.04
                              914.61   949.95   952.94  1002.51  1011.40
                             1020.75  1022.64  1079.02  1172.70  1191.84
                             1249.72  1277.20  1304.16  1317.46  1368.35
                             1429.30  1443.29  1450.30  1464.38  1506.50
                             1534.58  1580.90  1601.69  1612.51  1646.97
                             1723.49  1740.42  1801.95  1829.09  1857.74
                             1920.89  1956.75  1978.31  2054.32  2078.98
                             2148.90  2182.27  2191.89  2205.45  2230.09
                             2248.54  2288.28  2304.81  2363.39  2372.07
                             2377.16  2389.35  2488.82  2506.63  4441.50
                             4537.48  4573.41  4612.66  4641.36  4643.55
                             4729.63  4765.66  5013.71  5130.39  5152.20
                             5176.64  5216.92  5292.52

 Zero-point correction=                           0.260406 (Hartree/Particle)
 Thermal correction to Energy=                    0.279051
 Thermal correction to Enthalpy=                  0.279995
 Thermal correction to Gibbs Free Energy=         0.211351
 Sum of electronic and zero-point Energies=          -1212.562246
 Sum of electronic and thermal Energies=             -1212.543602
 Sum of electronic and thermal Enthalpies=           -1212.542657
 Sum of electronic and thermal Free Energies=        -1212.611301

                     E (Thermal)             CV                S
                      KCal/Mol        Cal/Mol-Kelvin    Cal/Mol-Kelvin
 Total                  175.107             69.788            144.473
 Electronic               0.000              0.000              0.000
 Translational            0.889              2.981             42.745
 Rotational               0.889              2.981             34.604
 Vibrational            173.329             63.827             67.123
 Vibration     1          0.593              1.986              6.650
 Vibration     2          0.594              1.982              5.493
 Vibration     3          0.596              1.976              4.671
 Vibration     4          0.596              1.975              4.557
 Vibration     5          0.596              1.974              4.488
 Vibration     6          0.598              1.969              4.173
 Vibration     7          0.604              1.948              3.435
 Vibration     8          0.609              1.933              3.109
 Vibration     9          0.614              1.917              2.858
 Vibration    10          0.623              1.887              2.502
 Vibration    11          0.641              1.830              2.070
 Vibration    12          0.662              1.766              1.744
 Vibration    13          0.669              1.743              1.650
 Vibration    14          0.671              1.737              1.628
 Vibration    15          0.678              1.717              1.556
 Vibration    16          0.700              1.653              1.358
 Vibration    17          0.716              1.607              1.239
 Vibration    18          0.724              1.584              1.185
 Vibration    19          0.743              1.532              1.077
 Vibration    20          0.768              1.464              0.952
 Vibration    21          0.774              1.449              0.928
 Vibration    22          0.815              1.346              0.776
 Vibration    23          0.848              1.266              0.677
 Vibration    24          0.873              1.209              0.614
 Vibration    25          0.901              1.149              0.553
 Vibration    26          0.904              1.142              0.546
 Vibration    27          0.912              1.125              0.530
 Vibration    28          0.933              1.082              0.492
 Vibration    29          0.961              1.026              0.445
 Vibration    30          0.978              0.993              0.419

                           ! Non-Optimized Parameters !
 Normal termination of Gaussian 16 at Sun Jul 18 16:21:19 2021.

 ----------------------------------------------------------------------
 #p b3lyp/6-31G(d) scrf=(iefpcm,read,solvent=water) geom=allcheck guess
 =read
 ----------------------------------------------------------------------

 Structure from the checkpoint file:  "SET_328_BBB321_conf1.geo_180_030_240.chk"
 ---------------------------------------------
 SET_328_BBB321_conf1.geo_180_030_240 geometry
 ---------------------------------------------
 Charge =  1 Multiplicity = 1

 SCF Done:  E(RB3LYP) =  -1212.82265220     A.U. after    1 cycles
 Normal termination of Gaussian 16 at Sun Jul 18 16:21:29 2021.

 -----------------------------
 #p B3LYP/6-31G* geom=allcheck
 -----------------------------

 Structure from the checkpoint file:  "SET_328_BBB321_conf1.geo_180_030_240.chk"
 ---------------------------------------------
 SET_328_BBB321_conf1.geo_180_030_240 geometry
 ---------------------------------------------
 Charge =  1 Multiplicity = 1

 SCF Done:  E(RB3LYP) =  -1212.69112009     A.U. after   17 cycles

 The electronic state is 1-A.
 Alpha  occ. eigenvalues --  -89.05668 -19.18980 -14.58162 -14.56624 -14.55313
 Alpha  occ. eigenvalues --  -14.48502 -14.46191 -10.52835 -10.44375 -10.37061
 Alpha  occ. eigenvalues --  -10.35846 -10.34425 -10.32720 -10.30346 -10.28934
 Alpha  occ. eigenvalues --  -10.28081 -10.27754 -10.27004 -10.26587  -8.11788
 Alpha  occ. eigenvalues --   -6.08222  -6.07824  -6.07449  -1.22014  -1.13751
 Alpha  occ. eigenvalues --   -1.10900  -1.09407  -1.08455  -1.02485  -0.94905
 Alpha  occ. eigenvalues --   -0.94171  -0.90362  -0.85981  -0.84670  -0.82308
 Alpha  occ. eigenvalues --   -0.80526  -0.79026  -0.78695  -0.74036  -0.72425
 Alpha  occ. eigenvalues --   -0.70740  -0.69969  -0.68700  -0.68491  -0.65264
 Alpha  occ. eigenvalues --   -0.64689  -0.64249  -0.61789  -0.58801  -0.57258
 Alpha  occ. eigenvalues --   -0.56682  -0.55627  -0.54192  -0.52843  -0.52785
 Alpha  occ. eigenvalues --   -0.52109  -0.49682  -0.49543  -0.48264  -0.47606
 Alpha  occ. eigenvalues --   -0.47420  -0.46883  -0.45374  -0.44391  -0.44134
 Alpha  occ. eigenvalues --   -0.43184  -0.42124  -0.39306  -0.37130  -0.32918
 Alpha  occ. eigenvalues --   -0.32410  -0.30544
 Alpha virt. eigenvalues --   -0.18372  -0.14308  -0.13925  -0.11865  -0.10742
 Alpha virt. eigenvalues --   -0.09504  -0.08161  -0.06232  -0.05379  -0.04802
 Alpha virt. eigenvalues --   -0.03971  -0.02092  -0.01502  -0.00340   0.01547

 Mulliken charges:
               1
     1  C   -0.541048
     2  H    0.136612
     3  H    0.204463
     4  H    0.206503
     5  C    0.605349
     6  O   -0.484817
     7  N   -0.711842
     8  H    0.323812
     9  C    0.371422
    10  C   -0.148742
    11  C   -0.148140
    12  C   -0.176240
    13  H    0.135040
    14  H    0.161910
    15  H    0.211683
    16  C   -0.241976
    17  H    0.107655
    18  C    0.120272
    19  C    0.306787
    20  N   -0.561661
    21  C   -0.402262
    22  H    0.225074
    23  S    0.316388
    24  C    0.343689
    25  N   -0.689056
    26  C    0.853046
    27  N   -0.759634
    28  H    0.442888
    29  H    0.381973
    30  N   -0.760612
    31  H    0.393579
    32  H    0.394976
    33  H    0.382910
 Sum of Mulliken charges =   1.00000

 Dipole moment (field-independent basis, Debye):
    X=             16.9694    Y=              9.4993    Z=              0.1206  Tot=             19.4476
 Quadrupole moment (field-independent basis, Debye-Ang):
   XX=            -44.3519   YY=            -56.3262   ZZ=           -119.8787
   XY=             25.2610   XZ=             -0.6161   YZ=             -0.1192

 Normal termination of Gaussian 16 at Sun Jul 18 16:22:20 2021.
 Gaussian 16:  ES64L-G16RevB.01 20-Dec-2017

 --------------------------------------------------------
 #p mp2/aug-cc-pVDZ scf=tight maxdisk=180GB geom=allcheck
 --------------------------------------------------------

 Structure from the checkpoint file:  "SET_328_BBB321_conf1.geo_180_030_240.chk"
 ---------------------------------------------
 SET_328_BBB321_conf1.geo_180_030_240 geometry
 ---------------------------------------------
 Charge =  1 Multiplicity = 1

                         Standard orientation:
 ---------------------------------------------------------------------
 Center     Atomic      Atomic             Coordinates (Angstroms)
 Number     Number       Type             X           Y           Z
 ---------------------------------------------------------------------
      1          6           0       -4.983385    2.770579    0.096752
      2          1           0       -4.125553    3.442633    0.046097
      3          1           0       -5.517718    2.949837    1.034078
      4          1           0       -5.669113    3.002405   -0.720878
      5          6           0       -4.618527    1.301927    0.020730
      6          8           0       -5.488136    0.430746   -0.033445
      7          7           0       -3.275280    1.040020    0.028132
      8          1           0       -2.663172    1.846326    0.071945
      9          6           0       -2.618067   -0.205609   -0.006785
     10          6           0       -3.292846   -1.434429   -0.056657
     11          6           0       -2.549806   -2.616580   -0.084327
     12          6           0       -1.159610   -2.602309   -0.063866
     13          1           0       -0.606528   -3.534355   -0.089417
     14          1           0       -3.074061   -3.565851   -0.123818
     15          1           0       -4.371603   -1.447204   -0.072867
     16          6           0       -1.215233   -0.187657    0.012785
     17          1           0       -0.685197    0.756576    0.052042
     18          6           0       -0.476386   -1.375117   -0.014520
     19          6           0        0.996348   -1.324036    0.010463
     20          7           0        1.638890   -0.091093   -0.005888
     21          6           0        1.838203   -2.400883    0.051791
     22          1           0        1.591754   -3.450148    0.075254
     23         16           0        3.498277   -1.894258    0.071693
     24          6           0        2.931731   -0.230990    0.021106
     25          7           0        3.848219    0.805016    0.009882
     26          6           0        3.572021    2.141951   -0.037518
     27          7           0        2.322969    2.578998   -0.064015
     28          1           0        1.557464    1.906911   -0.055902
     29          1           0        2.135930    3.576486   -0.098819
     30          7           0        4.604604    2.979004   -0.060167
     31          1           0        5.557916    2.635656   -0.010123
     32          1           0        4.444911    3.981156   -0.066544
     33          1           0        4.835152    0.557025    0.024097
 ---------------------------------------------------------------------

 SCF Done:  E(RHF) =  -1207.15198966     A.U. after   18 cycles
