 Gaussian 16, Revision B.01,

 -----------------------------------------------------------
 #p b3lyp/6-31G(d) opt freq scrf=(iefpcm,read,solvent=water)
 -----------------------------------------------------------

 ---------------------------------------------
 SET_328_BBB256_conf1.geo_285_180_255 geometry
 ---------------------------------------------
 Symbolic Z-matrix:
 Charge =  1 Multiplicity = 1

 SCF Done:  E(RB3LYP) =  -422.021704786     A.U. after   12 cycles
 SCF Done:  E(RB3LYP) =  -422.047334001     A.U. after   11 cycles
 SCF Done:  E(RB3LYP) =  -422.053479364     A.U. after   11 cycles
 SCF Done:  E(RB3LYP) =  -422.054359518     A.U. after   10 cycles
 SCF Done:  E(RB3LYP) =  -422.054709257     A.U. after   10 cycles
 SCF Done:  E(RB3LYP) =  -422.054855370     A.U. after   10 cycles
 SCF Done:  E(RB3LYP) =  -422.054998524     A.U. after    9 cycles
 SCF Done:  E(RB3LYP) =  -422.055021357     A.U. after    9 cycles
 SCF Done:  E(RB3LYP) =  -422.055051346     A.U. after   10 cycles
 SCF Done:  E(RB3LYP) =  -422.053423481     A.U. after   11 cycles
 SCF Done:  E(RB3LYP) =  -422.055542186     A.U. after    8 cycles
 SCF Done:  E(RB3LYP) =  -422.055533246     A.U. after    8 cycles
 SCF Done:  E(RB3LYP) =  -422.055528370     A.U. after    7 cycles
 SCF Done:  E(RB3LYP) =  -422.055528338     A.U. after    7 cycles
 SCF Done:  E(RB3LYP) =  -422.055529552     A.U. after    7 cycles
 SCF Done:  E(RB3LYP) =  -422.055528684     A.U. after    7 cycles
 Optimization completed.
    -- Stationary point found.
 Normal termination of Gaussian 16 at Sun Jul 18 13:51:40 2021.

 --------------------------------------------------------------------
 #P Geom=AllCheck Guess=TCheck SCRF=Check GenChk RB3LYP/6-31G(d) Freq
 --------------------------------------------------------------------

 Structure from the checkpoint file:  "SET_328_BBB256_conf1.geo_285_180_255.chk"
 ---------------------------------------------
 SET_328_BBB256_conf1.geo_285_180_255 geometry
 ---------------------------------------------
 Charge =  1 Multiplicity = 1

 SCF Done:  E(RB3LYP) =  -422.055528684     A.U. after    1 cycles

  Exact polarizability: 154.750  -3.041 131.625   9.825  -3.975  71.408
 Approx polarizability: 165.310  -1.338 155.305  12.297  -4.606  79.884

                      1                      2                      3
                      A                      A                      A
 Frequencies --     39.3385                47.9602                89.5972
 Red. masses --      3.5393                 2.8199                 2.4993
 Frc consts  --      0.0032                 0.0038                 0.0118
 IR Inten    --      7.3161                 0.2044                15.3945

                      4                      5                      6
                      A                      A                      A
 Frequencies --    116.2811               215.8695               260.3982
 Red. masses --      1.8233                 1.5804                 2.2815
 Frc consts  --      0.0145                 0.0434                 0.0911
 IR Inten    --      0.8611                 1.9312                 4.4893

                      7                      8                      9
                      A                      A                      A
 Frequencies --    273.3471               358.2490               417.4438
 Red. masses --      3.0111                 2.5734                 3.4634
 Frc consts  --      0.1326                 0.1946                 0.3556
 IR Inten    --     14.0457                 1.6560                 7.4349

                     10                     11                     12
                      A                      A                      A
 Frequencies --    422.6413               512.7807               617.8881
 Red. masses --      2.6304                 2.9904                 5.2426
 Frc consts  --      0.2768                 0.4633                 1.1793
 IR Inten    --      1.3040                 5.8287                 6.9369

                     13                     14                     15
                      A                      A                      A
 Frequencies --    645.9596               763.5826               775.9299
 Red. masses --      5.7385                 2.6637                 1.2213
 Frc consts  --      1.4108                 0.9150                 0.4332
 IR Inten    --      4.5548                 2.8193                43.0252

                     16                     17                     18
                      A                      A                      A
 Frequencies --    792.2557               828.1714               852.0271
 Red. masses --      1.5505                 1.3594                 4.1221
 Frc consts  --      0.5734                 0.5493                 1.7631
 IR Inten    --     24.1522                23.3342                 2.8199

                     19                     20                     21
                      A                      A                      A
 Frequencies --    907.7407               924.7625               988.3542
 Red. masses --      1.9807                 1.5777                 1.4060
 Frc consts  --      0.9616                 0.7949                 0.8092
 IR Inten    --      5.4288                 2.6226                 0.1511

                     22                     23                     24
                      A                      A                      A
 Frequencies --   1008.1393              1018.5488              1021.8960
 Red. masses --      3.1454                 2.7976                 1.3035
 Frc consts  --      1.8835                 1.7100                 0.8020
 IR Inten    --     27.4948                 4.0278                 0.0769

                     25                     26                     27
                      A                      A                      A
 Frequencies --   1045.4220              1071.4681              1079.0631
 Red. masses --      2.0509                 2.8230                 2.3138
 Frc consts  --      1.3206                 1.9095                 1.5873
 IR Inten    --     24.0056                10.0336                11.7309

                     28                     29                     30
                      A                      A                      A
 Frequencies --   1116.8911              1153.0570              1181.6719
 Red. masses --      1.4441                 1.3169                 1.4737
 Frc consts  --      1.0614                 1.0316                 1.2125
 IR Inten    --      1.1033                 8.4734                 8.1529

                     31                     32                     33
                      A                      A                      A
 Frequencies --   1183.0762              1252.8026              1272.1862
 Red. masses --      1.1246                 2.2301                 1.6872
 Frc consts  --      0.9274                 2.0622                 1.6089
 IR Inten    --      6.1594                 9.2561                 1.9653

                     34                     35                     36
                      A                      A                      A
 Frequencies --   1311.1002              1333.9147              1338.5556
 Red. masses --      3.5904                 1.2973                 1.4656
 Frc consts  --      3.6363                 1.3600                 1.5472
 IR Inten    --      0.3971                 6.4835                 4.5252

                     37                     38                     39
                      A                      A                      A
 Frequencies --   1367.5445              1404.4019              1442.8377
 Red. masses --      1.2435                 1.3258                 1.2045
 Frc consts  --      1.3702                 1.5406                 1.4774
 IR Inten    --      0.4644                11.9380                21.7371

                     40                     41                     42
                      A                      A                      A
 Frequencies --   1464.6545              1470.3325              1482.4996
 Red. masses --      1.1862                 1.3204                 2.0932
 Frc consts  --      1.4992                 1.6819                 2.7105
 IR Inten    --      3.3068                47.3477                39.8346

                     43                     44                     45
                      A                      A                      A
 Frequencies --   1502.8565              1510.6759              1515.2101
 Red. masses --      1.1100                 1.0421                 1.0498
 Frc consts  --      1.4771                 1.4013                 1.4201
 IR Inten    --      2.1664                12.9622                22.6505

                     46                     47                     48
                      A                      A                      A
 Frequencies --   1522.7416              1524.8884              1623.3285
 Red. masses --      1.3693                 1.5670                 1.0810
 Frc consts  --      1.8707                 2.1469                 1.6783
 IR Inten    --     61.4537                16.1017               120.2052

                     49                     50                     51
                      A                      A                      A
 Frequencies --   1630.4912              1651.3938              3084.7530
 Red. masses --      5.4671                 5.3208                 1.0601
 Frc consts  --      8.5633                 8.5493                 5.9434
 IR Inten    --     40.8179                81.7507                21.5773

                     52                     53                     54
                      A                      A                      A
 Frequencies --   3129.2940              3131.1442              3132.8597
 Red. masses --      1.0434                 1.0667                 1.0825
 Frc consts  --      6.0199                 6.1620                 6.2596
 IR Inten    --      6.9198                14.4573                21.8540

                     55                     56                     57
                      A                      A                      A
 Frequencies --   3189.9422              3192.8148              3214.4423
 Red. masses --      1.1102                 1.0896                 1.0881
 Frc consts  --      6.6561                 6.5442                 6.6242
 IR Inten    --     17.1253                40.1412                 6.8443

                     58                     59                     60
                      A                      A                      A
 Frequencies --   3223.3787              3227.5431              3232.2686
 Red. masses --      1.1089                 1.0936                 1.1081
 Frc consts  --      6.7882                 6.7121                 6.8211
 IR Inten    --      7.0712                29.5158                 9.9716

                     61                     62                     63
                      A                      A                      A
 Frequencies --   3239.9708              3407.7627              3453.8200
 Red. masses --      1.0971                 1.0565                 1.0951
 Frc consts  --      6.7857                 7.2289                 7.6970
 IR Inten    --     21.8304               157.2088               196.0883

 - Thermochemistry -
 -------------------
 Temperature   298.150 Kelvin.  Pressure   1.00000 Atm.
 Atom     1 has atomic number  6 and mass  12.00000

 Molecular mass:   137.10787 amu.
 Principal axes and moments of inertia in atomic units:
                           1         2         3
     Eigenvalues --   467.443002980.715393246.62442
           X            0.99999   0.00390   0.00362
           Y           -0.00389   0.99998  -0.00401
           Z           -0.00364   0.00400   0.99999
 This molecule is an asymmetric top.
 Rotational symmetry number  1.
 Warning -- assumption of classical behavior for rotation
           may cause significant error
 Rotational temperatures (Kelvin)      0.18529     0.02906     0.02668
 Rotational constants (GHZ):           3.86088     0.60547     0.55588
 Zero-point vibrational energy     545570.2 (Joules/Mol)
                                  130.39442 (Kcal/Mol)
 Warning -- explicit consideration of  12 degrees of freedom as
           vibrations may cause significant error
 Vibrational temperatures:     56.60    69.00   128.91   167.30   310.59
          (Kelvin)            374.65   393.29   515.44   600.61   608.09
                              737.78   889.00   929.39  1098.63  1116.39
                             1139.88  1191.55  1225.88  1306.04  1330.53
                             1422.02  1450.49  1465.46  1470.28  1504.13
                             1541.60  1552.53  1606.96  1658.99  1700.16
                             1702.18  1802.50  1830.39  1886.38  1919.21
                             1925.88  1967.59  2020.62  2075.92  2107.31
                             2115.48  2132.99  2162.28  2173.53  2180.05
                             2190.89  2193.97  2335.61  2345.91  2375.99
                             4438.27  4502.36  4505.02  4507.49  4589.62
                             4593.75  4624.87  4637.72  4643.71  4650.51
                             4661.60  4903.01  4969.28

 Zero-point correction=                           0.207797 (Hartree/Particle)
 Thermal correction to Energy=                    0.217609
 Thermal correction to Enthalpy=                  0.218553
 Thermal correction to Gibbs Free Energy=         0.171270
 Sum of electronic and zero-point Energies=           -421.847732
 Sum of electronic and thermal Energies=              -421.837920
 Sum of electronic and thermal Enthalpies=            -421.836976
 Sum of electronic and thermal Free Energies=         -421.884259

                     E (Thermal)             CV                S
                      KCal/Mol        Cal/Mol-Kelvin    Cal/Mol-Kelvin
 Total                  136.551             35.997             99.515
 Electronic               0.000              0.000              0.000
 Translational            0.889              2.981             40.659
 Rotational               0.889              2.981             29.893
 Vibrational            134.774             30.035             28.963
 Vibration     1          0.594              1.981              5.292
 Vibration     2          0.595              1.978              4.900
 Vibration     3          0.602              1.957              3.669
 Vibration     4          0.608              1.936              3.161
 Vibration     5          0.645              1.817              1.993
 Vibration     6          0.668              1.745              1.659
 Vibration     7          0.676              1.722              1.575
 Vibration     8          0.733              1.558              1.130
 Vibration     9          0.780              1.432              0.901
 Vibration    10          0.785              1.421              0.883
 Vibration    11          0.868              1.222              0.627
 Vibration    12          0.978              0.994              0.420

 Optimization completed.
    -- Stationary point found.
 Normal termination of Gaussian 16 at Sun Jul 18 13:54:35 2021.

 ----------------------------------------------------------------------
 #p b3lyp/6-31G(d) scrf=(iefpcm,read,solvent=water) geom=allcheck guess
 =read
 ----------------------------------------------------------------------

 Structure from the checkpoint file:  "SET_328_BBB256_conf1.geo_285_180_255.chk"
 ---------------------------------------------
 SET_328_BBB256_conf1.geo_285_180_255 geometry
 ---------------------------------------------
 Charge =  1 Multiplicity = 1

 SCF Done:  E(RB3LYP) =  -422.055528684     A.U. after    1 cycles
 Normal termination of Gaussian 16 at Sun Jul 18 13:54:40 2021.

 -----------------------------
 #p B3LYP/6-31G* geom=allcheck
 -----------------------------

 Structure from the checkpoint file:  "SET_328_BBB256_conf1.geo_285_180_255.chk"
 ---------------------------------------------
 SET_328_BBB256_conf1.geo_285_180_255 geometry
 ---------------------------------------------
 Charge =  1 Multiplicity = 1

 SCF Done:  E(RB3LYP) =  -421.947748869     A.U. after   14 cycles
 Normal termination of Gaussian 16 at Sun Jul 18 13:54:56 2021.
 Gaussian 16:  ES64L-G16RevB.01 20-Dec-2017

 --------------------------------------------------------
 #p mp2/aug-cc-pVDZ scf=tight maxdisk=180GB geom=allcheck
 --------------------------------------------------------

 Structure from the checkpoint file:  "SET_328_BBB256_conf1.geo_285_180_255.chk"
 ---------------------------------------------
 SET_328_BBB256_conf1.geo_285_180_255 geometry
 ---------------------------------------------
 Charge =  1 Multiplicity = 1

                         Standard orientation:
 ---------------------------------------------------------------------
 Center     Atomic      Atomic             Coordinates (Angstroms)
 Number     Number       Type             X           Y           Z
 ---------------------------------------------------------------------
      1          6           0        3.764848    0.585673    0.490858
      2          1           0        3.296398    0.451554    1.462460
      3          1           0        3.636767    1.609586    0.145131
      4          1           0        4.821319    0.334105    0.546482
      5          7           0        3.120448   -0.330386   -0.496112
      6          1           0        3.283912   -1.306103   -0.215115
      7          6           0        1.647276   -0.120024   -0.712050
      8          1           0        1.377822   -0.727554   -1.575000
      9          1           0        1.506745    0.931387   -0.963095
     10          6           0        0.818839   -0.508751    0.509717
     11          1           0        1.152356    0.058183    1.384020
     12          1           0        0.953358   -1.571017    0.729249
     13          6           0       -0.645587   -0.217769    0.270977
     14          7           0       -0.983139    1.078050    0.141284
     15          6           0       -2.271732    1.371788   -0.077359
     16          1           0       -2.510770    2.427596   -0.176422
     17          6           0       -3.278678    0.411127   -0.174789
     18          1           0       -4.305482    0.709961   -0.349988
     19          6           0       -2.922651   -0.929255   -0.039711
     20          1           0       -3.670581   -1.712071   -0.107360
     21          6           0       -1.584608   -1.249138    0.184451
     22          1           0       -1.267426   -2.280373    0.294021
     23          1           0        3.598182   -0.220804   -1.403146
 ---------------------------------------------------------------------

 SCF Done:  E(RHF) =  -419.251222796     A.U. after   15 cycles
 E2 =    -0.1457679695D+01 EUMP2 =    -0.42070890249053D+03

 The electronic state is 1-A.
 Alpha  occ. eigenvalues --  -15.87986 -15.68669 -11.46513 -11.46069 -11.40821
 Alpha  occ. eigenvalues --  -11.39788 -11.38888 -11.37061 -11.35841 -11.35069
 Alpha  occ. eigenvalues --   -1.50096  -1.37591  -1.22849  -1.19671  -1.15905
 Alpha  occ. eigenvalues --   -1.12287  -1.04117  -0.97097  -0.96415  -0.92796
 Alpha  occ. eigenvalues --   -0.89032  -0.83327  -0.81018  -0.79409  -0.76159
 Alpha  occ. eigenvalues --   -0.75539  -0.74782  -0.73829  -0.70577  -0.69505
 Alpha  occ. eigenvalues --   -0.68099  -0.66683  -0.63820  -0.62671  -0.53143
 Alpha  occ. eigenvalues --   -0.48900  -0.45256
 Alpha virt. eigenvalues --   -0.09906  -0.07238  -0.06662  -0.05573  -0.03923
 Alpha virt. eigenvalues --   -0.03505  -0.03383  -0.03123  -0.02374  -0.01787
 Alpha virt. eigenvalues --   -0.01447  -0.01249  -0.00371  -0.00027   0.00281

 Mulliken charges:
               1
     1  C    0.826278
     2  H   -0.072990
     3  H   -0.063389
     4  H   -0.114828
     5  N   -0.595496
     6  H    0.172129
     7  C    0.927249
     8  H   -0.172339
     9  H   -0.186762
    10  C    0.455465
    11  H   -0.091920
    12  H   -0.161380
    13  C    0.227362
    14  N   -0.752081
    15  C    0.462308
    16  H   -0.350643
    17  C    0.928463
    18  H   -0.398418
    19  C   -0.200864
    20  H   -0.390502
    21  C    0.940523
    22  H   -0.555777
    23  H    0.167611
 Sum of Mulliken charges =   1.00000

 Dipole moment (field-independent basis, Debye):
    X=             10.4276    Y=             -2.2852    Z=             -1.6973  Tot=             10.8092
 Quadrupole moment (field-independent basis, Debye-Ang):
   XX=              2.0084   YY=            -52.1098   ZZ=            -57.6233
   XY=             -2.2641   XZ=             -3.0636   YZ=             -0.0075

 Normal termination of Gaussian 16 at Sun Jul 18 13:58:37 2021.
