 Gaussian 16, Revision B.01,

 -----------------------------------------------------------
 #p b3lyp/6-31G(d) opt freq scrf=(iefpcm,read,solvent=water)
 -----------------------------------------------------------

 ---------------------------------------------
 SET_328_BBB227_conf1.geo_075_180_240 geometry
 ---------------------------------------------
 Symbolic Z-matrix:
 Charge =  1 Multiplicity = 1

 SCF Done:  E(RB3LYP) =  -1203.61211490     A.U. after   12 cycles
 SCF Done:  E(RB3LYP) =  -1203.65823862     A.U. after   11 cycles
 SCF Done:  E(RB3LYP) =  -1203.68853489     A.U. after   12 cycles
 SCF Done:  E(RB3LYP) =  -1203.69132981     A.U. after   11 cycles
 SCF Done:  E(RB3LYP) =  -1203.69432675     A.U. after   11 cycles
 SCF Done:  E(RB3LYP) =  -1203.69471542     A.U. after   10 cycles
 SCF Done:  E(RB3LYP) =  -1203.69490711     A.U. after   10 cycles
 SCF Done:  E(RB3LYP) =  -1203.69544512     A.U. after   10 cycles
 SCF Done:  E(RB3LYP) =  -1203.69578420     A.U. after   11 cycles
 SCF Done:  E(RB3LYP) =  -1203.69588408     A.U. after   10 cycles
 SCF Done:  E(RB3LYP) =  -1203.69785884     A.U. after    9 cycles
 SCF Done:  E(RB3LYP) =  -1203.69786158     A.U. after    9 cycles
 SCF Done:  E(RB3LYP) =  -1203.69785188     A.U. after    8 cycles
 SCF Done:  E(RB3LYP) =  -1203.69784726     A.U. after    8 cycles
 SCF Done:  E(RB3LYP) =  -1203.69784746     A.U. after    7 cycles
 SCF Done:  E(RB3LYP) =  -1203.69784770     A.U. after    7 cycles
 Optimization completed.
    -- Stationary point found.
 Normal termination of Gaussian 16 at Sun Jul 18 14:29:18 2021.

 --------------------------------------------------------------------
 #P Geom=AllCheck Guess=TCheck SCRF=Check GenChk RB3LYP/6-31G(d) Freq
 --------------------------------------------------------------------

 Structure from the checkpoint file:  "SET_328_BBB227_conf1.geo_075_180_240.chk"
 ---------------------------------------------
 SET_328_BBB227_conf1.geo_075_180_240 geometry
 ---------------------------------------------
 Charge =  1 Multiplicity = 1

 SCF Done:  E(RB3LYP) =  -1203.69784770     A.U. after    1 cycles

  Exact polarizability: 312.692  -1.729 264.097  14.988  15.792 207.980
 Approx polarizability: 312.818  -1.947 286.954  19.393  19.740 227.554

                      1                      2                      3
                      A                      A                      A
 Frequencies --     16.6543                31.0271                43.2079
 Red. masses --      4.7736                 3.0911                 4.1038
 Frc consts  --      0.0008                 0.0018                 0.0045
 IR Inten    --      4.9161                 0.2663                18.6546

                      4                      5                      6
                      A                      A                      A
 Frequencies --     50.6193                54.1434                83.9297
 Red. masses --      5.1826                 4.2656                 3.6729
 Frc consts  --      0.0078                 0.0074                 0.0152
 IR Inten    --      6.8395                 4.8018                 4.1578

                      7                      8                      9
                      A                      A                      A
 Frequencies --     92.2364               117.2082               156.5077
 Red. masses --      3.8165                 3.9973                 2.9712
 Frc consts  --      0.0191                 0.0324                 0.0429
 IR Inten    --      2.5395                 8.2443                26.5378

                     10                     11                     12
                      A                      A                      A
 Frequencies --    203.8787               213.1704               217.6081
 Red. masses --      3.3183                 4.6453                 3.0829
 Frc consts  --      0.0813                 0.1244                 0.0860
 IR Inten    --      3.5287                 1.9968                 6.9812

                     13                     14                     15
                      A                      A                      A
 Frequencies --    231.7849               261.0670               291.6692
 Red. masses --      1.8224                 3.3726                 3.5843
 Frc consts  --      0.0577                 0.1354                 0.1797
 IR Inten    --      0.2291                19.7125                 6.9550

                     16                     17                     18
                      A                      A                      A
 Frequencies --    329.7654               351.4692               364.5920
 Red. masses --      2.6820                 2.4908                 2.4020
 Frc consts  --      0.1718                 0.1813                 0.1881
 IR Inten    --      3.1354                 0.5377                23.0460

                     19                     20                     21
                      A                      A                      A
 Frequencies --    386.4104               427.3978               436.7485
 Red. masses --      4.0912                 2.2675                 2.5712
 Frc consts  --      0.3599                 0.2440                 0.2890
 IR Inten    --     14.7278                 6.8013                19.5506

                     22                     23                     24
                      A                      A                      A
 Frequencies --    448.5444               462.9762               474.7077
 Red. masses --      2.6307                 3.0216                 2.6819
 Frc consts  --      0.3118                 0.3816                 0.3561
 IR Inten    --     18.0665                18.1075                 2.5486

                     25                     26                     27
                      A                      A                      A
 Frequencies --    478.2814               517.6805               546.7341
 Red. masses --      2.6193                 3.3399                 1.4709
 Frc consts  --      0.3530                 0.5274                 0.2591
 IR Inten    --      2.5995                 1.4007                79.2310

                     28                     29                     30
                      A                      A                      A
 Frequencies --    596.5743               604.5542               635.1241
 Red. masses --      2.1421                 4.1254                 4.5415
 Frc consts  --      0.4492                 0.8883                 1.0794
 IR Inten    --     40.2450                10.2181                54.7916

                     31                     32                     33
                      A                      A                      A
 Frequencies --    663.8153               709.1340               717.3863
 Red. masses --      3.1782                 3.2712                 1.3163
 Frc consts  --      0.8251                 0.9692                 0.3991
 IR Inten    --      1.9717                13.5531                44.9994

                     34                     35                     36
                      A                      A                      A
 Frequencies --    745.0965               783.3274               802.4360
 Red. masses --      1.6398                 1.3910                 1.4441
 Frc consts  --      0.5364                 0.5029                 0.5479
 IR Inten    --      2.3509                56.9272                 0.2289

                     37                     38                     39
                      A                      A                      A
 Frequencies --    809.5448               826.3812               856.2026
 Red. masses --      2.3609                 2.4474                 2.4785
 Frc consts  --      0.9116                 0.9847                 1.0705
 IR Inten    --      0.8832                 3.8253                 2.8935

                     40                     41                     42
                      A                      A                      A
 Frequencies --    860.3868               879.2382               891.9072
 Red. masses --      4.7904                 1.9736                 2.0035
 Frc consts  --      2.0894                 0.8989                 0.9390
 IR Inten    --      4.3209                 5.8365                13.3679

                     43                     44                     45
                      A                      A                      A
 Frequencies --    907.3907               916.5858               929.4588
 Red. masses --      1.7733                 2.1021                 3.1871
 Frc consts  --      0.8602                 1.0405                 1.6222
 IR Inten    --     13.5637                 2.8969                 7.4831

                     46                     47                     48
                      A                      A                      A
 Frequencies --    938.9569               942.1429               964.1948
 Red. masses --      1.5514                 2.9421                 2.4143
 Frc consts  --      0.8059                 1.5387                 1.3224
 IR Inten    --      1.0100                49.9534                10.7140

                     49                     50                     51
                      A                      A                      A
 Frequencies --    969.6467               974.2479               998.8521
 Red. masses --      2.0386                 2.9510                 2.0510
 Frc consts  --      1.1293                 1.6503                 1.2056
 IR Inten    --      1.9013                10.6400                24.3967

                     52                     53                     54
                      A                      A                      A
 Frequencies --   1014.7750              1027.3692              1040.9499
 Red. masses --      1.8269                 2.1868                 1.8564
 Frc consts  --      1.1084                 1.3599                 1.1851
 IR Inten    --      9.2917                21.3214                 1.5416

                     55                     56                     57
                      A                      A                      A
 Frequencies --   1042.1526              1068.1264              1091.9608
 Red. masses --      1.9396                 1.3421                 1.1068
 Frc consts  --      1.2412                 0.9022                 0.7775
 IR Inten    --      6.6726                 4.3850                 0.5646

                     58                     59                     60
                      A                      A                      A
 Frequencies --   1110.2275              1113.2867              1126.8532
 Red. masses --      2.8598                 3.3142                 3.9525
 Frc consts  --      2.0769                 2.4202                 2.9571
 IR Inten    --      7.2452                 6.2946                41.2318

                     61                     62                     63
                      A                      A                      A
 Frequencies --   1130.9988              1173.0968              1182.7466
 Red. masses --      2.4753                 1.8457                 1.5616
 Frc consts  --      1.8655                 1.4965                 1.2871
 IR Inten    --     99.3092                15.2098                21.9646

                     64                     65                     66
                      A                      A                      A
 Frequencies --   1184.5635              1193.9168              1214.7191
 Red. masses --      1.7156                 1.5996                 1.4371
 Frc consts  --      1.4183                 1.3434                 1.2493
 IR Inten    --     16.4457                42.2402                11.7993

                     67                     68                     69
                      A                      A                      A
 Frequencies --   1215.8327              1234.3522              1258.8719
 Red. masses --      1.4333                 1.6578                 1.5517
 Frc consts  --      1.2484                 1.4882                 1.4488
 IR Inten    --      5.5028                 6.3546               194.3811

                     70                     71                     72
                      A                      A                      A
 Frequencies --   1266.1734              1282.2473              1289.2744
 Red. masses --      1.2634                 1.3126                 1.3088
 Frc consts  --      1.1933                 1.2715                 1.2818
 IR Inten    --     18.5861                 6.0538                50.1316

                     73                     74                     75
                      A                      A                      A
 Frequencies --   1294.1735              1303.8455              1316.2228
 Red. masses --      1.2803                 1.6093                 1.4641
 Frc consts  --      1.2634                 1.6119                 1.4945
 IR Inten    --      8.6695               106.4321               104.8696

                     76                     77                     78
                      A                      A                      A
 Frequencies --   1322.1769              1336.3315              1338.7182
 Red. masses --      1.3865                 1.3522                 1.2675
 Frc consts  --      1.4280                 1.4227                 1.3384
 IR Inten    --     54.7992                 6.0253                 3.0889

                     79                     80                     81
                      A                      A                      A
 Frequencies --   1352.5678              1356.4425              1362.5883
 Red. masses --      1.2860                 1.5131                 1.4590
 Frc consts  --      1.3862                 1.6403                 1.5960
 IR Inten    --     17.3202                19.3512               118.0823

                     82                     83                     84
                      A                      A                      A
 Frequencies --   1369.2236              1381.8437              1386.8857
 Red. masses --      1.6338                 1.3962                 1.4558
 Frc consts  --      1.8046                 1.5708                 1.6498
 IR Inten    --    165.0476                 5.4191                29.8479

                     85                     86                     87
                      A                      A                      A
 Frequencies --   1391.4090              1396.2351              1401.8855
 Red. masses --      1.5308                 1.4847                 1.5435
 Frc consts  --      1.7461                 1.7053                 1.7872
 IR Inten    --    139.6778                 2.1131                20.9041

                     88                     89                     90
                      A                      A                      A
 Frequencies --   1409.1173              1412.5621              1421.2616
 Red. masses --      1.4193                 1.7017                 1.7058
 Frc consts  --      1.6605                 2.0006                 2.0301
 IR Inten    --     41.5288               109.4530                27.3618

                     91                     92                     93
                      A                      A                      A
 Frequencies --   1465.8744              1503.4024              1508.6497
 Red. masses --      1.9610                 1.0886                 1.0905
 Frc consts  --      2.4827                 1.4496                 1.4624
 IR Inten    --    225.5062                 0.3168                 6.9797

                     94                     95                     96
                      A                      A                      A
 Frequencies --   1508.7026              1510.3669              1517.1566
 Red. masses --      1.0907                 1.1014                 1.0894
 Frc consts  --      1.4628                 1.4803                 1.4774
 IR Inten    --      2.0851                 1.9900                10.9179

                     97                     98                     99
                      A                      A                      A
 Frequencies --   1522.6633              1527.2228              1527.8203
 Red. masses --      1.0867                 1.1180                 1.0997
 Frc consts  --      1.4844                 1.5364                 1.5124
 IR Inten    --      9.6044                 5.1153               250.6774

                    100                    101                    102
                      A                      A                      A
 Frequencies --   1530.1931              1558.8420              1603.2931
 Red. masses --      1.1009                 1.2752                 1.4976
 Frc consts  --      1.5188                 1.8257                 2.2681
 IR Inten    --      1.7167               169.7436               514.2651

                    103                    104                    105
                      A                      A                      A
 Frequencies --   1667.1526              1707.0179              3028.1931
 Red. masses --      6.5197                 7.5281                 1.0683
 Frc consts  --     10.6764                12.9244                 5.7717
 IR Inten    --     11.9153               102.4367                40.3745

                    106                    107                    108
                      A                      A                      A
 Frequencies --   3036.7941              3039.3768              3040.5375
 Red. masses --      1.0680                 1.0686                 1.0634
 Frc consts  --      5.8028                 5.8164                 5.7922
 IR Inten    --     34.5608                51.6654                12.2467

                    109                    110                    111
                      A                      A                      A
 Frequencies --   3041.1213              3043.6794              3057.4234
 Red. masses --      1.0826                 1.0614                 1.0702
 Frc consts  --      5.8992                 5.7932                 5.8942
 IR Inten    --     13.5609               100.3613                50.1191

                    112                    113                    114
                      A                      A                      A
 Frequencies --   3072.3262              3079.3627              3084.6836
 Red. masses --      1.0682                 1.0699                 1.0617
 Frc consts  --      5.9409                 5.9777                 5.9521
 IR Inten    --     22.8738                71.3446                45.9050

                    115                    116                    117
                      A                      A                      A
 Frequencies --   3085.8010              3086.7184              3090.2147
 Red. masses --      1.0960                 1.0967                 1.0962
 Frc consts  --      6.1487                 6.1564                 6.1676
 IR Inten    --    110.4723               122.6100                49.2052

                    118                    119                    120
                      A                      A                      A
 Frequencies --   3091.4837              3096.8267              3118.0631
 Red. masses --      1.1003                 1.0969                 1.0870
 Frc consts  --      6.1957                 6.1980                 6.2264
 IR Inten    --    109.2317                54.0433                43.9571

                    121                    122                    123
                      A                      A                      A
 Frequencies --   3121.8758              3131.7863              3146.8849
 Red. masses --      1.0987                 1.1045                 1.0959
 Frc consts  --      6.3093                 6.3824                 6.3942
 IR Inten    --     25.7079                48.9590                27.8391

                    124                    125                    126
                      A                      A                      A
 Frequencies --   3170.7759              3280.9481              3312.4515
 Red. masses --      1.0941                 1.0546                 1.0920
 Frc consts  --      6.4812                 6.6884                 7.0598
 IR Inten    --     24.8062               465.5998               321.3788

                    127                    128                    129
                      A                      A                      A
 Frequencies --   3315.9924              3347.4369              3592.6874
 Red. masses --      1.1011                 1.1007                 1.0756
 Frc consts  --      7.1335                 7.2667                 8.1796
 IR Inten    --      6.8889                12.9822                85.8828

 - Thermochemistry -
 -------------------
 Temperature   298.150 Kelvin.  Pressure   1.00000 Atm.
 Atom     1 has atomic number 16 and mass  31.97207

 Molecular mass:   293.17999 amu.
 Principal axes and moments of inertia in atomic units:
                           1         2         3
     Eigenvalues --  2828.14784********************
           X            0.99990  -0.01393   0.00103
           Y            0.01394   0.99985  -0.01023
           Z           -0.00088   0.01024   0.99995
 This molecule is an asymmetric top.
 Rotational symmetry number  1.
 Warning -- assumption of classical behavior for rotation
           may cause significant error
 Rotational temperatures (Kelvin)      0.03063     0.00582     0.00531
 Rotational constants (GHZ):           0.63814     0.12124     0.11065
 Zero-point vibrational energy    1053912.4 (Joules/Mol)
                                  251.89111 (Kcal/Mol)
 Warning -- explicit consideration of  29 degrees of freedom as
           vibrations may cause significant error
 Vibrational temperatures:     23.96    44.64    62.17    72.83    77.90
          (Kelvin)            120.76   132.71   168.64   225.18   293.34
                              306.70   313.09   333.49   375.62   419.65
                              474.46   505.69   524.57   555.96   614.93
                              628.38   645.36   666.12   683.00   688.14
                              744.83   786.63   858.34   869.82   913.80
                              955.08  1020.29  1032.16  1072.03  1127.03
                             1154.53  1164.75  1188.98  1231.88  1237.90
                             1265.03  1283.26  1305.53  1318.76  1337.28
                             1350.95  1355.53  1387.26  1395.11  1401.73
                             1437.13  1460.03  1478.16  1497.69  1499.43
                             1536.80  1571.09  1597.37  1601.77  1621.29
                             1627.26  1687.82  1701.71  1704.32  1717.78
                             1747.71  1749.31  1775.96  1811.24  1821.74
                             1844.87  1854.98  1862.03  1875.94  1893.75
                             1902.32  1922.68  1926.12  1946.04  1951.62
                             1960.46  1970.01  1988.16  1995.42  2001.93
                             2008.87  2017.00  2027.41  2032.36  2044.88
                             2109.07  2163.06  2170.61  2170.69  2173.08
                             2182.85  2190.77  2197.33  2198.19  2201.61
                             2242.83  2306.78  2398.66  2456.02  4356.89
                             4369.27  4372.99  4374.66  4375.50  4379.18
                             4398.95  4420.39  4430.52  4438.17  4439.78
                             4441.10  4446.13  4447.96  4455.64  4486.20
                             4491.68  4505.94  4527.67  4562.04  4720.55
                             4765.88  4770.97  4816.22  5169.08

 Zero-point correction=                           0.401414 (Hartree/Particle)
 Thermal correction to Energy=                    0.420320
 Thermal correction to Enthalpy=                  0.421264
 Thermal correction to Gibbs Free Energy=         0.351732
 Sum of electronic and zero-point Energies=          -1203.296434
 Sum of electronic and thermal Energies=             -1203.277528
 Sum of electronic and thermal Enthalpies=           -1203.276584
 Sum of electronic and thermal Free Energies=        -1203.346116

                     E (Thermal)             CV                S
                      KCal/Mol        Cal/Mol-Kelvin    Cal/Mol-Kelvin
 Total                  263.755             74.122            146.342
 Electronic               0.000              0.000              0.000
 Translational            0.889              2.981             42.924
 Rotational               0.889              2.981             34.884
 Vibrational            261.977             68.161             68.535
 Vibration     1          0.593              1.986              6.998
 Vibration     2          0.594              1.983              5.763
 Vibration     3          0.595              1.980              5.106
 Vibration     4          0.595              1.977              4.793
 Vibration     5          0.596              1.976              4.660
 Vibration     6          0.601              1.960              3.797
 Vibration     7          0.602              1.955              3.612
 Vibration     8          0.608              1.935              3.146
 Vibration     9          0.620              1.895              2.592
 Vibration    10          0.640              1.834              2.098
 Vibration    11          0.644              1.821              2.016
 Vibration    12          0.646              1.814              1.979
 Vibration    13          0.653              1.792              1.865
 Vibration    14          0.669              1.744              1.655
 Vibration    15          0.687              1.689              1.464
 Vibration    16          0.713              1.616              1.261
 Vibration    17          0.728              1.572              1.160
 Vibration    18          0.738              1.545              1.102
 Vibration    19          0.755              1.499              1.014
 Vibration    20          0.789              1.411              0.867
 Vibration    21          0.797              1.390              0.837
 Vibration    22          0.808              1.364              0.800
 Vibration    23          0.821              1.332              0.757
 Vibration    24          0.831              1.306              0.724
 Vibration    25          0.835              1.298              0.715
 Vibration    26          0.873              1.211              0.615
 Vibration    27          0.902              1.147              0.551
 Vibration    28          0.954              1.039              0.456
 Vibration    29          0.963              1.022              0.442

                           ! Non-Optimized Parameters !
 Normal termination of Gaussian 16 at Sun Jul 18 14:48:28 2021.

 ----------------------------------------------------------------------
 #p b3lyp/6-31G(d) scrf=(iefpcm,read,solvent=water) geom=allcheck guess
 =read
 ----------------------------------------------------------------------

 Structure from the checkpoint file:  "SET_328_BBB227_conf1.geo_075_180_240.chk"
 ---------------------------------------------
 SET_328_BBB227_conf1.geo_075_180_240 geometry
 ---------------------------------------------
 Charge =  1 Multiplicity = 1

 SCF Done:  E(RB3LYP) =  -1203.69784770     A.U. after    1 cycles
 Normal termination of Gaussian 16 at Sun Jul 18 14:48:44 2021.

 -----------------------------
 #p B3LYP/6-31G* geom=allcheck
 -----------------------------

 Structure from the checkpoint file:  "SET_328_BBB227_conf1.geo_075_180_240.chk"
 ---------------------------------------------
 SET_328_BBB227_conf1.geo_075_180_240 geometry
 ---------------------------------------------
 Charge =  1 Multiplicity = 1

 SCF Done:  E(RB3LYP) =  -1203.56092352     A.U. after   24 cycles
 Normal termination of Gaussian 16 at Sun Jul 18 14:50:26 2021.
 Gaussian 16:  ES64L-G16RevB.01 20-Dec-2017

 --------------------------------------------------------
 #p mp2/aug-cc-pVDZ scf=tight maxdisk=180GB geom=allcheck
 --------------------------------------------------------

 Structure from the checkpoint file:  "SET_328_BBB227_conf1.geo_075_180_240.chk"
 ---------------------------------------------
 SET_328_BBB227_conf1.geo_075_180_240 geometry
 ---------------------------------------------
 Charge =  1 Multiplicity = 1

                         Standard orientation:
 ---------------------------------------------------------------------
 Center     Atomic      Atomic             Coordinates (Angstroms)
 Number     Number       Type             X           Y           Z
 ---------------------------------------------------------------------
      1         16           0        1.689321    2.489628    0.850020
      2          6           0        1.059702    1.190677   -0.084177
      3          7           0        1.817531    0.123319   -0.420589
      4          6           0        3.232973   -0.073558   -0.105880
      5          6           0        3.412229   -0.926742    1.160499
      6          6           0        4.896636   -1.180236    1.458895
      7          6           0        5.611538   -1.810921    0.257338
      8          6           0        5.428800   -0.961293   -1.006065
      9          6           0        3.945904   -0.707856   -1.308577
     10          1           0        3.457927   -1.661303   -1.555185
     11          1           0        3.835706   -0.057794   -2.183190
     12          1           0        5.902717   -1.447465   -1.865865
     13          1           0        5.938598    0.001833   -0.871097
     14          1           0        5.203345   -2.815111    0.079840
     15          1           0        6.677729   -1.938938    0.474997
     16          1           0        4.993346   -1.821848    2.341687
     17          1           0        5.382485   -0.227637    1.709628
     18          1           0        2.897568   -1.886164    1.015157
     19          1           0        2.926844   -0.426490    2.004745
     20          1           0        3.645658    0.920881    0.077118
     21          1           0        1.346467   -0.708962   -0.757263
     22          7           0       -0.219963    1.208424   -0.535292
     23          6           0       -0.766877    0.285816   -1.536881
     24          6           0       -1.782083   -0.676720   -0.904809
     25          1           0       -2.415364   -1.082289   -1.699363
     26          1           0       -1.273550   -1.519268   -0.430217
     27          1           0       -1.262553    0.899224   -2.295752
     28          1           0        0.033478   -0.243675   -2.050493
     29          6           0       -1.212197    2.168045   -0.021231
     30          1           0       -1.141204    3.119975   -0.560771
     31          1           0       -0.967682    2.365354    1.022690
     32          6           0       -2.634547    1.591247   -0.143537
     33          1           0       -3.043111    1.773821   -1.143610
     34          1           0       -3.274904    2.128605    0.560344
     35          6           0       -2.644673    0.084378    0.150795
     36          1           0       -2.185387   -0.073167    1.135837
     37          6           0       -4.022815   -0.483926    0.223318
     38          6           0       -5.212351    0.104150    0.034008
     39          1           0       -5.513863    1.108554   -0.205424
     40          7           0       -6.235245   -0.923478    0.209104
     41          1           0       -6.819671   -1.061450   -0.643036
     42          6           0       -5.434784   -2.124492    0.514828
     43          1           0       -5.941321   -3.059454    0.699322
     44          7           0       -4.190404   -1.877499    0.522646
     45          1           0       -6.900554   -0.708036    0.977357
 ---------------------------------------------------------------------

 SCF Done:  E(RHF) =  -1197.74022227     A.U. after   15 cycles
 E2 =    -0.2970113828D+01 EUMP2 =    -0.12007103360991D+04

 The electronic state is 1-A.
 Alpha  occ. eigenvalues --  -91.94889 -15.91763 -15.79529 -15.69046 -15.67312
 Alpha  occ. eigenvalues --  -11.54131 -11.48300 -11.47053 -11.44845 -11.39499
 Alpha  occ. eigenvalues --  -11.38543 -11.36739 -11.36677 -11.36294 -11.33123
 Alpha  occ. eigenvalues --  -11.29088 -11.28455 -11.28201 -11.27926 -11.27768
 Alpha  occ. eigenvalues --   -8.95124  -6.63368  -6.63066  -6.63000  -1.57941
 Alpha  occ. eigenvalues --   -1.42916  -1.40122  -1.31661  -1.26712  -1.20013
 Alpha  occ. eigenvalues --   -1.17020  -1.14604  -1.09699  -1.06619  -1.06214
 Alpha  occ. eigenvalues --   -1.04516  -1.02059  -0.98897  -0.97792  -0.97422
 Alpha  occ. eigenvalues --   -0.94725  -0.91498  -0.89711  -0.88632  -0.84270
 Alpha  occ. eigenvalues --   -0.84078  -0.82526  -0.80917  -0.80567  -0.80132
 Alpha  occ. eigenvalues --   -0.75207  -0.73504  -0.72160  -0.70943  -0.69579
 Alpha  occ. eigenvalues --   -0.68465  -0.67854  -0.66940  -0.66134  -0.65983
 Alpha  occ. eigenvalues --   -0.65160  -0.64407  -0.63529  -0.61915  -0.60939
 Alpha  occ. eigenvalues --   -0.60451  -0.59478  -0.58690  -0.56171  -0.55608
 Alpha  occ. eigenvalues --   -0.54874  -0.54524  -0.54248  -0.51599  -0.50387
 Alpha  occ. eigenvalues --   -0.49750  -0.44754  -0.38095  -0.37617
 Alpha virt. eigenvalues --   -0.11258  -0.09875  -0.07932  -0.07273  -0.06104
 Alpha virt. eigenvalues --   -0.04804  -0.04138  -0.03800  -0.03126  -0.02949
 Alpha virt. eigenvalues --   -0.01486  -0.01361  -0.01114  -0.00652  -0.00354

 Mulliken charges:
               1
     1  S   -0.233397
     2  C   -0.264862
     3  N    0.054679
     4  C   -1.074255
     5  C    0.597262
     6  C    0.398205
     7  C    0.436555
     8  C    0.428122
     9  C    0.774171
    10  H   -0.203518
    11  H   -0.186472
    12  H   -0.100627
    13  H   -0.101259
    14  H   -0.113599
    15  H   -0.137730
    16  H   -0.120678
    17  H   -0.102482
    18  H   -0.138143
    19  H   -0.120956
    20  H   -0.373546
    21  H   -0.110252
    22  N   -0.391137
    23  C    1.005168
    24  C    0.608021
    25  H   -0.175058
    26  H   -0.185939
    27  H   -0.216025
    28  H   -0.331158
    29  C    1.027679
    30  H   -0.174227
    31  H   -0.250504
    32  C    0.349005
    33  H   -0.072635
    34  H   -0.213905
    35  C    0.058110
    36  H   -0.125391
    37  C    0.145741
    38  C    1.175651
    39  H   -0.295689
    40  N   -0.819302
    41  H    0.249644
    42  C    0.958015
    43  H   -0.175694
    44  N   -0.711789
    45  H    0.254203
 Sum of Mulliken charges =   1.00000

 Dipole moment (field-independent basis, Debye):
    X=            -28.0257    Y=             -7.4912    Z=             -2.0634  Tot=             29.0830
 Quadrupole moment (field-independent basis, Debye-Ang):
   XX=             58.1926   YY=           -127.9475   ZZ=           -126.1760
   XY=             14.7868   XZ=             -7.6730   YZ=             -4.5001

 Normal termination of Gaussian 16 at Sun Jul 18 16:09:45 2021.
