 Gaussian 16, Revision B.01,

 -----------------------------------------------------------
 #p b3lyp/6-31G(d) opt freq scrf=(iefpcm,read,solvent=water)
 -----------------------------------------------------------

 ---------------------------------------------
 SET_328_BBB321_conf1.geo_330_345_315 geometry
 ---------------------------------------------
 Symbolic Z-matrix:
 Charge =  1 Multiplicity = 1

 SCF Done:  E(RB3LYP) =  -1212.39346851     A.U. after   18 cycles
 SCF Done:  E(RB3LYP) =  -1212.53462960     A.U. after   15 cycles
 SCF Done:  E(RB3LYP) =  -1212.67177262     A.U. after   15 cycles
 SCF Done:  E(RB3LYP) =  -1212.71471112     A.U. after   12 cycles
 SCF Done:  E(RB3LYP) =  -1212.76432575     A.U. after   13 cycles
 SCF Done:  E(RB3LYP) =  -1212.77978692     A.U. after   11 cycles
 SCF Done:  E(RB3LYP) =  -1212.79762710     A.U. after   13 cycles
 SCF Done:  E(RB3LYP) =  -1212.80406812     A.U. after   11 cycles
 SCF Done:  E(RB3LYP) =  -1212.80755870     A.U. after   14 cycles
 SCF Done:  E(RB3LYP) =  -1212.81260908     A.U. after   11 cycles
 SCF Done:  E(RB3LYP) =  -1212.81734333     A.U. after    9 cycles
 SCF Done:  E(RB3LYP) =  -1212.81734362     A.U. after    7 cycles
 SCF Done:  E(RB3LYP) =  -1212.81735003     A.U. after    9 cycles
 SCF Done:  E(RB3LYP) =  -1212.81734313     A.U. after    9 cycles
 SCF Done:  E(RB3LYP) =  -1212.81734328     A.U. after    8 cycles
 SCF Done:  E(RB3LYP) =  -1212.81734983     A.U. after    8 cycles
 Optimization completed.
    -- Stationary point found.
 Normal termination of Gaussian 16 at Sun Jul 18 17:10:34 2021.

 --------------------------------------------------------------------
 #P Geom=AllCheck Guess=TCheck SCRF=Check GenChk RB3LYP/6-31G(d) Freq
 --------------------------------------------------------------------

 Structure from the checkpoint file:  "SET_328_BBB321_conf1.geo_330_345_315.chk"
 ---------------------------------------------
 SET_328_BBB321_conf1.geo_330_345_315 geometry
 ---------------------------------------------
 Charge =  1 Multiplicity = 1

 SCF Done:  E(RB3LYP) =  -1212.81734983     A.U. after    1 cycles

  Exact polarizability: 363.515   8.200 305.105  -1.089   9.545 102.402
 Approx polarizability: 387.655   2.372 351.085  -0.245  10.037 120.640

                      1                      2                      3
                      A                      A                      A
 Frequencies --     27.2268                54.7909                55.4418
 Red. masses --      6.4388                 5.5224                 5.7007
 Frc consts  --      0.0028                 0.0098                 0.0103
 IR Inten    --      3.0927                25.6542                16.0240

                      4                      5                      6
                      A                      A                      A
 Frequencies --     71.6925                76.1369                89.2465
 Red. masses --      3.2968                 1.1737                 3.7105
 Frc consts  --      0.0100                 0.0040                 0.0174
 IR Inten    --      9.5700                 0.5150                 0.8090

                      7                      8                      9
                      A                      A                      A
 Frequencies --     97.6505               106.7171               137.4127
 Red. masses --      4.7032                 5.5489                 5.6632
 Frc consts  --      0.0264                 0.0372                 0.0630
 IR Inten    --      1.6038                 2.8753                 0.5768

                     10                     11                     12
                      A                      A                      A
 Frequencies --    190.6519               244.9788               252.2402
 Red. masses --      5.7069                 3.3513                 1.5011
 Frc consts  --      0.1222                 0.1185                 0.0563
 IR Inten    --      5.4551                91.3673               306.5222

                     13                     14                     15
                      A                      A                      A
 Frequencies --    260.3053               270.7542               283.5007
 Red. masses --      4.0554                 5.9895                 5.6189
 Frc consts  --      0.1619                 0.2587                 0.2661
 IR Inten    --     44.0669                 2.5342                12.6910

                     16                     17                     18
                      A                      A                      A
 Frequencies --    296.3864               343.6399               370.5387
 Red. masses --      5.6536                 4.8201                 5.6020
 Frc consts  --      0.2926                 0.3354                 0.4532
 IR Inten    --      7.4384                 4.6554                 4.2720

                     19                     20                     21
                      A                      A                      A
 Frequencies --    397.8617               451.4297               462.3276
 Red. masses --      5.2673                 1.8954                 1.4278
 Frc consts  --      0.4912                 0.2276                 0.1798
 IR Inten    --      0.7817                 7.6748                19.6942

                     22                     23                     24
                      A                      A                      A
 Frequencies --    485.6416               512.9710               539.2492
 Red. masses --      3.9198                 1.1731                 3.8019
 Frc consts  --      0.5447                 0.1819                 0.6514
 IR Inten    --      3.2560               182.9077                44.0118

                     25                     26                     27
                      A                      A                      A
 Frequencies --    546.9871               559.9371               573.0061
 Red. masses --      2.6941                 2.8664                 2.1286
 Frc consts  --      0.4749                 0.5295                 0.4118
 IR Inten    --     79.7458                41.7852                47.2009

                     28                     29                     30
                      A                      A                      A
 Frequencies --    583.0840               602.1963               616.2512
 Red. masses --      1.5477                 3.3733                 1.2254
 Frc consts  --      0.3100                 0.7207                 0.2742
 IR Inten    --    245.3710                11.0490                63.6892

                     31                     32                     33
                      A                      A                      A
 Frequencies --    642.8499               653.4045               671.3568
 Red. masses --      1.6072                 5.3628                 4.4649
 Frc consts  --      0.3913                 1.3490                 1.1857
 IR Inten    --     38.7680                17.1921                71.6157

                     34                     35                     36
                      A                      A                      A
 Frequencies --    678.4450               699.0482               700.6471
 Red. masses --      5.2330                 3.5489                 2.9385
 Frc consts  --      1.4192                 1.0218                 0.8499
 IR Inten    --      4.1791                23.8697                20.9679

                     37                     38                     39
                      A                      A                      A
 Frequencies --    706.5220               749.6215               757.0994
 Red. masses --      2.2360                 2.2713                 4.1334
 Frc consts  --      0.6576                 0.7520                 1.3959
 IR Inten    --      6.1688                67.7705                27.2049

                     40                     41                     42
                      A                      A                      A
 Frequencies --    807.5816               833.9978               892.9726
 Red. masses --      1.8112                 6.9464                 4.5917
 Frc consts  --      0.6960                 2.8467                 2.1573
 IR Inten    --     34.6278                46.6275                 4.0588

                     43                     44                     45
                      A                      A                      A
 Frequencies --    899.1235               954.3139               963.2191
 Red. masses --      1.4295                 1.3911                 4.6543
 Frc consts  --      0.6809                 0.7464                 2.5442
 IR Inten    --      1.4019                23.0387                 4.3812

                     46                     47                     48
                      A                      A                      A
 Frequencies --    973.6943               978.4428              1012.4179
 Red. masses --      4.3850                 1.2751                 5.8027
 Frc consts  --      2.4494                 0.7192                 3.5043
 IR Inten    --      5.4009                 0.7879                 0.9429

                     49                     50                     51
                      A                      A                      A
 Frequencies --   1035.2030              1048.8054              1065.5188
 Red. masses --      1.8327                 2.8255                 1.6909
 Frc consts  --      1.1572                 1.8312                 1.1310
 IR Inten    --     30.6150                 2.6637                20.3021

                     52                     53                     54
                      A                      A                      A
 Frequencies --   1088.8803              1099.1627              1117.2415
 Red. masses --      1.3628                 1.9280                 1.5618
 Frc consts  --      0.9520                 1.3724                 1.1486
 IR Inten    --      6.8141                40.4191                13.9866

                     55                     56                     57
                      A                      A                      A
 Frequencies --   1135.1275              1195.7342              1202.6327
 Red. masses --      1.5517                 1.1513                 1.7402
 Frc consts  --      1.1780                 0.9699                 1.4829
 IR Inten    --      9.7554                 7.8074                21.7891

                     58                     59                     60
                      A                      A                      A
 Frequencies --   1267.6267              1299.3083              1302.0250
 Red. masses --      2.4996                 2.1612                 2.3642
 Frc consts  --      2.3665                 2.1497                 2.3615
 IR Inten    --     48.0621               324.7431                57.3548

                     61                     62                     63
                      A                      A                      A
 Frequencies --   1312.9360              1363.0267              1376.9672
 Red. masses --      3.7517                 2.9258                 6.3756
 Frc consts  --      3.8104                 3.2026                 7.1222
 IR Inten    --    167.3666                10.4305                81.2835

                     64                     65                     66
                      A                      A                      A
 Frequencies --   1424.2518              1434.5588              1456.5996
 Red. masses --      1.2623                 1.6071                 3.3277
 Frc consts  --      1.5087                 1.9487                 4.1599
 IR Inten    --     33.5111               155.3740               292.4694

                     67                     68                     69
                      A                      A                      A
 Frequencies --   1489.3645              1512.3268              1525.9245
 Red. masses --      1.0791                 1.0962                 2.3499
 Frc consts  --      1.4104                 1.4771                 3.2238
 IR Inten    --     15.3353                24.9299                30.6703

                     70                     71                     72
                      A                      A                      A
 Frequencies --   1554.3964              1567.6745              1579.5042
 Red. masses --      3.8936                 2.4807                 2.2796
 Frc consts  --      5.5428                 3.5920                 3.3508
 IR Inten    --    256.4873               221.1527                75.7594

                     73                     74                     75
                      A                      A                      A
 Frequencies --   1590.6959              1609.8150              1638.8852
 Red. masses --      2.3521                 2.2655                 1.4247
 Frc consts  --      3.5065                 3.4591                 2.2546
 IR Inten    --    309.1283               778.8120               588.6006

                     76                     77                     78
                      A                      A                      A
 Frequencies --   1644.9602              1663.1945              1700.8564
 Red. masses --      5.9521                 4.6487                 3.3347
 Frc consts  --      9.4892                 7.5765                 5.6839
 IR Inten    --    168.5962                54.7682              1019.5816

                     79                     80                     81
                      A                      A                      A
 Frequencies --   1740.3111              3080.7565              3149.9680
 Red. masses --      6.6576                 1.0389                 1.0980
 Frc consts  --     11.8802                 5.8094                 6.4192
 IR Inten    --    375.3853                 7.2064                15.0411

                     82                     83                     84
                      A                      A                      A
 Frequencies --   3178.7451              3199.8614              3214.4497
 Red. masses --      1.1047                 1.0889                 1.0896
 Frc consts  --      6.5768                 6.5691                 6.6335
 IR Inten    --     20.3701                11.9018                26.8313

                     85                     86                     87
                      A                      A                      A
 Frequencies --   3228.3016              3294.4157              3305.9540
 Red. masses --      1.0959                 1.0897                 1.0946
 Frc consts  --      6.7295                 6.9678                 7.0484
 IR Inten    --     36.7159                 9.3536                 3.9387

                     88                     89                     90
                      A                      A                      A
 Frequencies --   3513.7956              3527.6821              3538.2204
 Red. masses --      1.0466                 1.0633                 1.0622
 Frc consts  --      7.6138                 7.7959                 7.8350
 IR Inten    --    360.7432               225.2233               388.6455

                     91                     92                     93
                      A                      A                      A
 Frequencies --   3580.7838              3616.4659              3643.4631
 Red. masses --      1.0789                 1.1050                 1.1091
 Frc consts  --      8.1509                 8.5150                 8.6747
 IR Inten    --    102.9632               234.6629               254.4883

 - Thermochemistry -
 -------------------
 Temperature   298.150 Kelvin.  Pressure   1.00000 Atm.
 Atom     1 has atomic number  6 and mass  12.00000

 Molecular mass:   276.09191 amu.
 Principal axes and moments of inertia in atomic units:
                           1         2         3
     Eigenvalues --  3222.34698********************
           X            1.00000   0.00284  -0.00077
           Y           -0.00284   0.99999   0.00308
           Z            0.00077  -0.00308   0.99999
 This molecule is an asymmetric top.
 Rotational symmetry number  1.
 Warning -- assumption of classical behavior for rotation
           may cause significant error
 Rotational temperatures (Kelvin)      0.02688     0.00793     0.00618
 Rotational constants (GHZ):           0.56007     0.16515     0.12878
 Zero-point vibrational energy     683375.1 (Joules/Mol)
                                  163.33056 (Kcal/Mol)
 Warning -- explicit consideration of  30 degrees of freedom as
           vibrations may cause significant error
 Vibrational temperatures:     39.17    78.83    79.77   103.15   109.54
          (Kelvin)            128.41   140.50   153.54   197.71   274.31
                              352.47   362.92   374.52   389.55   407.89
                              426.43   494.42   533.12   572.43   649.51
                              665.19   698.73   738.05   775.86   786.99
                              805.62   824.43   838.93   866.43   886.65
                              924.92   940.10   965.93   976.13  1005.77
                             1008.07  1016.53  1078.54  1089.30  1161.93
                             1199.94  1284.79  1293.64  1373.04  1385.86
                             1400.93  1407.76  1456.64  1489.43  1509.00
                             1533.04  1566.66  1581.45  1607.46  1633.20
                             1720.39  1730.32  1823.83  1869.41  1873.32
                             1889.02  1961.09  1981.15  2049.18  2064.01
                             2095.72  2142.86  2175.90  2195.47  2236.43
                             2255.53  2272.55  2288.66  2316.16  2357.99
                             2366.73  2392.97  2447.15  2503.92  4432.52
                             4532.10  4573.51  4603.89  4624.88  4644.81
                             4739.93  4756.53  5055.57  5075.55  5090.71
                             5151.95  5203.29  5242.13

 Zero-point correction=                           0.260284 (Hartree/Particle)
 Thermal correction to Energy=                    0.278503
 Thermal correction to Enthalpy=                  0.279448
 Thermal correction to Gibbs Free Energy=         0.212746
 Sum of electronic and zero-point Energies=          -1212.557066
 Sum of electronic and thermal Energies=             -1212.538846
 Sum of electronic and thermal Enthalpies=           -1212.537902
 Sum of electronic and thermal Free Energies=        -1212.604604

                     E (Thermal)             CV                S
                      KCal/Mol        Cal/Mol-Kelvin    Cal/Mol-Kelvin
 Total                  174.764             69.353            140.386
 Electronic               0.000              0.000              0.000
 Translational            0.889              2.981             42.745
 Rotational               0.889              2.981             34.555
 Vibrational            172.986             63.391             63.086
 Vibration     1          0.593              1.984              6.022
 Vibration     2          0.596              1.976              4.637
 Vibration     3          0.596              1.975              4.613
 Vibration     4          0.598              1.968              4.106
 Vibration     5          0.599              1.965              3.988
 Vibration     6          0.602              1.957              3.677
 Vibration     7          0.603              1.951              3.501
 Vibration     8          0.606              1.944              3.328
 Vibration     9          0.614              1.916              2.840
 Vibration    10          0.634              1.853              2.221
 Vibration    11          0.660              1.771              1.766
 Vibration    12          0.664              1.759              1.715
 Vibration    13          0.668              1.745              1.660
 Vibration    14          0.674              1.727              1.591
 Vibration    15          0.682              1.704              1.512
 Vibration    16          0.690              1.680              1.437
 Vibration    17          0.722              1.588              1.195
 Vibration    18          0.743              1.533              1.078
 Vibration    19          0.764              1.475              0.971
 Vibration    20          0.810              1.358              0.791
 Vibration    21          0.820              1.334              0.759
 Vibration    22          0.842              1.282              0.695
 Vibration    23          0.868              1.221              0.626
 Vibration    24          0.894              1.163              0.567
 Vibration    25          0.902              1.146              0.550
 Vibration    26          0.916              1.118              0.524
 Vibration    27          0.929              1.090              0.498
 Vibration    28          0.940              1.068              0.480
 Vibration    29          0.961              1.027              0.446
 Vibration    30          0.976              0.998              0.423

                           ! Non-Optimized Parameters !
 Normal termination of Gaussian 16 at Sun Jul 18 17:23:38 2021.

 ----------------------------------------------------------------------
 #p b3lyp/6-31G(d) scrf=(iefpcm,read,solvent=water) geom=allcheck guess
 =read
 ----------------------------------------------------------------------

 Structure from the checkpoint file:  "SET_328_BBB321_conf1.geo_330_345_315.chk"
 ---------------------------------------------
 SET_328_BBB321_conf1.geo_330_345_315 geometry
 ---------------------------------------------
 Charge =  1 Multiplicity = 1

 SCF Done:  E(RB3LYP) =  -1212.81734983     A.U. after    2 cycles
 Normal termination of Gaussian 16 at Sun Jul 18 17:23:55 2021.

 -----------------------------
 #p B3LYP/6-31G* geom=allcheck
 -----------------------------

 Structure from the checkpoint file:  "SET_328_BBB321_conf1.geo_330_345_315.chk"
 ---------------------------------------------
 SET_328_BBB321_conf1.geo_330_345_315 geometry
 ---------------------------------------------
 Charge =  1 Multiplicity = 1

 SCF Done:  E(RB3LYP) =  -1212.68503977     A.U. after   17 cycles
 Normal termination of Gaussian 16 at Sun Jul 18 17:24:59 2021.
 Gaussian 16:  ES64L-G16RevB.01 20-Dec-2017

 --------------------------------------------------------
 #p mp2/aug-cc-pVDZ scf=tight maxdisk=180GB geom=allcheck
 --------------------------------------------------------

 Structure from the checkpoint file:  "SET_328_BBB321_conf1.geo_330_345_315.chk"
 ---------------------------------------------
 SET_328_BBB321_conf1.geo_330_345_315 geometry
 ---------------------------------------------
 Charge =  1 Multiplicity = 1

                         Standard orientation:
 ---------------------------------------------------------------------
 Center     Atomic      Atomic             Coordinates (Angstroms)
 Number     Number       Type             X           Y           Z
 ---------------------------------------------------------------------
      1          6           0        5.076177   -2.918987    0.110065
      2          1           0        4.888796   -3.831679   -0.457374
      3          1           0        5.251434   -3.201863    1.153271
      4          1           0        5.976890   -2.433017   -0.269635
      5          6           0        3.845240   -2.035063    0.034121
      6          8           0        2.708970   -2.511034    0.006773
      7          7           0        4.113769   -0.692026    0.030482
      8          1           0        5.094936   -0.436772    0.059157
      9          6           0        3.221008    0.396617    0.013950
     10          6           0        3.780592    1.683296    0.028761
     11          6           0        2.953802    2.802696    0.009842
     12          6           0        1.569117    2.663364   -0.023859
     13          1           0        0.936821    3.543875   -0.038284
     14          1           0        3.396913    3.792606    0.022159
     15          1           0        4.858709    1.803872    0.055694
     16          6           0        1.827825    0.250165   -0.018536
     17          1           0        1.392343   -0.736724   -0.028607
     18          6           0        0.998792    1.381297   -0.037742
     19          6           0       -0.465687    1.204693   -0.071926
     20          7           0       -0.998706   -0.075924   -0.052491
     21          6           0       -1.397252    2.207097   -0.107572
     22          1           0       -1.244680    3.274509   -0.095666
     23         16           0       -3.006491    1.560845   -0.128201
     24          6           0       -2.297613   -0.049556   -0.070854
     25          7           0       -3.027533   -1.229947   -0.157046
     26          6           0       -4.350282   -1.419841    0.082534
     27          7           0       -4.928345   -2.496727   -0.426853
     28          1           0       -4.448744   -3.065009   -1.119231
     29          1           0       -5.884733   -2.731774   -0.177254
     30          7           0       -5.049232   -0.523833    0.784526
     31          1           0       -4.586394    0.007996    1.517146
     32          1           0       -6.041539   -0.701425    0.923890
     33          1           0       -2.498643   -2.035313   -0.491268
 ---------------------------------------------------------------------

 SCF Done:  E(RHF) =  -1207.14688863     A.U. after   17 cycles
 E2 =    -0.2817401355D+01 EUMP2 =    -0.12099642899806D+04

 The electronic state is 1-A.
 Alpha  occ. eigenvalues --  -92.12849 -20.60609 -15.80792 -15.80722 -15.80003
 Alpha  occ. eigenvalues --  -15.70651 -15.68757 -11.61230 -11.49825 -11.44088
 Alpha  occ. eigenvalues --  -11.40138 -11.38185 -11.37534 -11.34362 -11.32710
 Alpha  occ. eigenvalues --  -11.32434 -11.32333 -11.31633 -11.31367  -9.13012
 Alpha  occ. eigenvalues --   -6.81172  -6.81071  -6.80879  -1.55305  -1.45665
 Alpha  occ. eigenvalues --   -1.44949  -1.40005  -1.38073  -1.33544  -1.23701
 Alpha  occ. eigenvalues --   -1.19419  -1.16107  -1.11109  -1.09943  -1.06366
 Alpha  occ. eigenvalues --   -1.05176  -0.99278  -0.98118  -0.94294  -0.93833
 Alpha  occ. eigenvalues --   -0.90524  -0.88819  -0.87272  -0.86020  -0.84803
 Alpha  occ. eigenvalues --   -0.81944  -0.80330  -0.79194  -0.76070  -0.74931
 Alpha  occ. eigenvalues --   -0.72377  -0.71531  -0.69859  -0.69311  -0.68846
 Alpha  occ. eigenvalues --   -0.67459  -0.65862  -0.64208  -0.63287  -0.63064
 Alpha  occ. eigenvalues --   -0.62145  -0.61870  -0.59898  -0.58901  -0.57689
 Alpha  occ. eigenvalues --   -0.56234  -0.52665  -0.51207  -0.49551  -0.46666
 Alpha  occ. eigenvalues --   -0.40324  -0.38238
 Alpha virt. eigenvalues --   -0.09055  -0.06621  -0.05909  -0.05305  -0.03975
 Alpha virt. eigenvalues --   -0.03501  -0.02828  -0.02437  -0.01885  -0.01488
 Alpha virt. eigenvalues --   -0.00897  -0.00647  -0.00246   0.00102   0.00413

 Mulliken charges:
               1
     1  C    0.507747
     2  H   -0.003752
     3  H    0.072374
     4  H   -0.105890
     5  C    0.434055
     6  O   -0.877572
     7  N   -0.677566
     8  H   -0.045531
     9  C   -0.064456
    10  C    1.173720
    11  C   -0.018818
    12  C    0.457678
    13  H   -0.642504
    14  H   -0.506337
    15  H   -0.718046
    16  C    0.737069
    17  H   -0.754724
    18  C    2.079395
    19  C   -0.499899
    20  N   -0.653937
    21  C    0.619849
    22  H   -0.611514
    23  S    0.451667
    24  C    0.435417
    25  N   -0.697079
    26  C    1.183498
    27  N   -0.253541
    28  H    0.030567
    29  H    0.035161
    30  N   -0.153566
    31  H    0.076546
    32  H    0.040662
    33  H   -0.050674
 Sum of Mulliken charges =   1.00000

 Dipole moment (field-independent basis, Debye):
    X=            -15.0211    Y=             -3.9965    Z=              0.6168  Tot=             15.5559
 Quadrupole moment (field-independent basis, Debye-Ang):
   XX=             29.5860   YY=            -86.8349   ZZ=           -117.8124
   XY=             32.7077   XZ=             -4.3577   YZ=              4.9250

 Normal termination of Gaussian 16 at Sun Jul 18 18:03:49 2021.
