 Gaussian 16, Revision B.01,

 -----------------------------------------------------------
 #p b3lyp/6-31G(d) opt freq scrf=(iefpcm,read,solvent=water)
 -----------------------------------------------------------

 ---------------------------------------------
 SET_328_BBB321_conf1.geo_165_210_060 geometry
 ---------------------------------------------
 Symbolic Z-matrix:
 Charge =  1 Multiplicity = 1

 SCF Done:  E(RB3LYP) =  -1212.45097683     A.U. after   17 cycles
 SCF Done:  E(RB3LYP) =  -1212.60792097     A.U. after   12 cycles
 SCF Done:  E(RB3LYP) =  -1212.69147650     A.U. after   13 cycles
 SCF Done:  E(RB3LYP) =  -1212.74725107     A.U. after   12 cycles
 SCF Done:  E(RB3LYP) =  -1212.78530543     A.U. after   12 cycles
 SCF Done:  E(RB3LYP) =  -1212.80267602     A.U. after   11 cycles
 SCF Done:  E(RB3LYP) =  -1212.81555923     A.U. after   14 cycles
 SCF Done:  E(RB3LYP) =  -1212.81834241     A.U. after   11 cycles
 SCF Done:  E(RB3LYP) =  -1212.82032724     A.U. after   11 cycles
 SCF Done:  E(RB3LYP) =  -1212.82183450     A.U. after   13 cycles
 SCF Done:  E(RB3LYP) =  -1212.82280842     A.U. after    7 cycles
 SCF Done:  E(RB3LYP) =  -1212.82280917     A.U. after    7 cycles
 SCF Done:  E(RB3LYP) =  -1212.82280836     A.U. after    7 cycles
 SCF Done:  E(RB3LYP) =  -1212.82280839     A.U. after    6 cycles
 SCF Done:  E(RB3LYP) =  -1212.82280916     A.U. after    7 cycles
 SCF Done:  E(RB3LYP) =  -1212.82280853     A.U. after    7 cycles
 Optimization completed.
    -- Stationary point found.
 Normal termination of Gaussian 16 at Sun Jul 18 16:14:20 2021.

 --------------------------------------------------------------------
 #P Geom=AllCheck Guess=TCheck SCRF=Check GenChk RB3LYP/6-31G(d) Freq
 --------------------------------------------------------------------

 Structure from the checkpoint file:  "SET_328_BBB321_conf1.geo_165_210_060.chk"
 ---------------------------------------------
 SET_328_BBB321_conf1.geo_165_210_060 geometry
 ---------------------------------------------
 Charge =  1 Multiplicity = 1

 SCF Done:  E(RB3LYP) =  -1212.82280853     A.U. after    1 cycles

  Exact polarizability: 361.825  -4.263 310.832  -0.048  -0.541  90.986
 Approx polarizability: 369.270  -8.664 373.858  -0.529  -0.565 109.029

                      1                      2                      3
                      A                      A                      A
 Frequencies --      9.2285                43.7240                53.2170
 Red. masses --      4.7881                 5.2921                 4.7397
 Frc consts  --      0.0002                 0.0060                 0.0079
 IR Inten    --      7.1851                 0.7584                24.7127

                      4                      5                      6
                      A                      A                      A
 Frequencies --     67.2024                71.9446                73.8830
 Red. masses --      5.5054                 1.4751                 3.0759
 Frc consts  --      0.0146                 0.0045                 0.0099
 IR Inten    --      9.4410                12.1578                19.8539

                      7                      8                      9
                      A                      A                      A
 Frequencies --     89.0235               108.8948               114.8823
 Red. masses --      2.9988                 4.1609                 5.9056
 Frc consts  --      0.0140                 0.0291                 0.0459
 IR Inten    --      0.3566                 4.3513                15.2753

                     10                     11                     12
                      A                      A                      A
 Frequencies --    184.2310               212.7967               221.0966
 Red. masses --      1.1647                 5.0598                 1.7062
 Frc consts  --      0.0233                 0.1350                 0.0491
 IR Inten    --    290.2533                11.2506               260.3741

                     13                     14                     15
                      A                      A                      A
 Frequencies --    260.1200               263.3779               266.9843
 Red. masses --      4.0044                 4.6766                 4.7623
 Frc consts  --      0.1596                 0.1911                 0.2000
 IR Inten    --     36.9073                 9.7178                 6.7304

                     16                     17                     18
                      A                      A                      A
 Frequencies --    287.4896               329.8516               347.0943
 Red. masses --      3.4180                 7.0069                 4.4438
 Frc consts  --      0.1664                 0.4492                 0.3154
 IR Inten    --     93.7395                24.8575                 1.7815

                     19                     20                     21
                      A                      A                      A
 Frequencies --    356.0394               386.9052               399.8578
 Red. masses --      7.9251                 3.8115                 1.1393
 Frc consts  --      0.5919                 0.3362                 0.1073
 IR Inten    --      3.3825                 7.7481                97.5808

                     22                     23                     24
                      A                      A                      A
 Frequencies --    455.5117               495.7219               527.8819
 Red. masses --      3.3165                 5.3405                 2.1840
 Frc consts  --      0.4054                 0.7732                 0.3586
 IR Inten    --      2.3442                 0.8903                71.3074

                     25                     26                     27
                      A                      A                      A
 Frequencies --    540.6971               546.6872               562.1015
 Red. masses --      3.8315                 2.4805                 1.9168
 Frc consts  --      0.6600                 0.4368                 0.3568
 IR Inten    --     38.3464                 1.7405               183.9662

                     28                     29                     30
                      A                      A                      A
 Frequencies --    581.3410               604.9241               619.4460
 Red. masses --      1.7919                 2.3347                 9.6161
 Frc consts  --      0.3568                 0.5034                 2.1740
 IR Inten    --      0.7267                44.1440                 1.3655

                     31                     32                     33
                      A                      A                      A
 Frequencies --    632.8263               637.0268               674.0993
 Red. masses --      1.3428                 1.5379                 5.7638
 Frc consts  --      0.3168                 0.3677                 1.5431
 IR Inten    --      6.2446                32.2792                 5.1416

                     34                     35                     36
                      A                      A                      A
 Frequencies --    691.2579               696.4596               701.6885
 Red. masses --      6.3007                 3.9546                 2.7612
 Frc consts  --      1.7739                 1.1302                 0.8010
 IR Inten    --     21.4340                 1.2541                 2.8175

                     37                     38                     39
                      A                      A                      A
 Frequencies --    708.5124               747.3285               815.3678
 Red. masses --      2.3084                 1.7218                 1.6833
 Frc consts  --      0.6827                 0.5666                 0.6594
 IR Inten    --      1.8130                92.5038                27.4082

                     40                     41                     42
                      A                      A                      A
 Frequencies --    825.3300               866.2302               894.7988
 Red. masses --      6.8863                 6.2193                 4.9279
 Frc consts  --      2.7637                 2.7495                 2.3247
 IR Inten    --     39.7046                24.2570                15.3035

                     43                     44                     45
                      A                      A                      A
 Frequencies --    908.0531               921.4274               971.6191
 Red. masses --      1.4227                 1.4431                 6.0890
 Frc consts  --      0.6912                 0.7219                 3.3868
 IR Inten    --      7.3714                19.4333                10.2654

                     46                     47                     48
                      A                      A                      A
 Frequencies --    984.7370               988.9901              1010.8413
 Red. masses --      1.2778                 3.1041                 5.1238
 Frc consts  --      0.7300                 1.7888                 3.0847
 IR Inten    --      1.2294                 2.4103                12.3038

                     49                     50                     51
                      A                      A                      A
 Frequencies --   1014.3008              1040.6474              1066.7838
 Red. masses --      6.0265                 1.7455                 1.6875
 Frc consts  --      3.6530                 1.1137                 1.1315
 IR Inten    --      2.6237                68.7860                18.9559

                     52                     53                     54
                      A                      A                      A
 Frequencies --   1088.6412              1104.5478              1127.6556
 Red. masses --      1.5184                 1.6011                 1.7081
 Frc consts  --      1.0602                 1.1509                 1.2798
 IR Inten    --     10.0328                14.7973                15.6191

                     55                     56                     57
                      A                      A                      A
 Frequencies --   1139.2438              1201.9209              1219.4978
 Red. masses --      1.6298                 1.1276                 1.7235
 Frc consts  --      1.2463                 0.9597                 1.5101
 IR Inten    --      3.9756                 2.3598                15.1815

                     58                     59                     60
                      A                      A                      A
 Frequencies --   1257.6110              1270.9816              1301.1765
 Red. masses --      3.0820                 3.4167                 2.3623
 Frc consts  --      2.8719                 3.2519                 2.3565
 IR Inten    --    272.3419                10.0755               225.7758

                     61                     62                     63
                      A                      A                      A
 Frequencies --   1322.3598              1341.4470              1375.5788
 Red. masses --      1.9407                 3.6140                 3.3673
 Frc consts  --      1.9994                 3.8317                 3.7541
 IR Inten    --     78.5150                51.8971                36.1195

                     64                     65                     66
                      A                      A                      A
 Frequencies --   1424.9797              1474.6334              1492.2327
 Red. masses --      1.2828                 2.9017                 1.1701
 Frc consts  --      1.5347                 3.7176                 1.5352
 IR Inten    --     34.2294               425.6612                52.0764

                     67                     68                     69
                      A                      A                      A
 Frequencies --   1508.1944              1516.4780              1518.7894
 Red. masses --      1.1053                 2.4869                 1.8722
 Frc consts  --      1.4814                 3.3697                 2.5444
 IR Inten    --     11.3287               174.8557               122.6765

                     70                     71                     72
                      A                      A                      A
 Frequencies --   1537.2430              1567.2557              1588.6891
 Red. masses --      1.7756                 3.8654                 3.0849
 Frc consts  --      2.4722                 5.5941                 4.5875
 IR Inten    --    285.8498                43.5437                78.8330

                     73                     74                     75
                      A                      A                      A
 Frequencies --   1598.4472              1632.8154              1643.9704
 Red. masses --      2.2698                 2.4294                 2.3469
 Frc consts  --      3.4169                 3.8162                 3.7371
 IR Inten    --    594.5638              1162.6608                36.4199

                     76                     77                     78
                      A                      A                      A
 Frequencies --   1645.4738              1666.0767              1722.7970
 Red. masses --      1.7939                 4.3250                 2.8935
 Frc consts  --      2.8617                 7.0734                 5.0599
 IR Inten    --    297.8353                94.3787               848.7149

                     79                     80                     81
                      A                      A                      A
 Frequencies --   1742.4936              3081.2650              3150.2843
 Red. masses --      6.1507                 1.0385                 1.0987
 Frc consts  --     11.0031                 5.8094                 6.4245
 IR Inten    --    353.2186                 6.5469                14.5853

                     82                     83                     84
                      A                      A                      A
 Frequencies --   3181.1735              3205.1550              3219.6667
 Red. masses --      1.1044                 1.0873                 1.0942
 Frc consts  --      6.5851                 6.5813                 6.6829
 IR Inten    --     18.4080                13.3997                36.4055

                     85                     86                     87
                      A                      A                      A
 Frequencies --   3255.7016              3276.3599              3305.2076
 Red. masses --      1.0908                 1.0904                 1.0943
 Frc consts  --      6.8122                 6.8964                 7.0434
 IR Inten    --      7.9076                 5.1144                 8.5582

                     88                     89                     90
                      A                      A                      A
 Frequencies --   3488.6511              3533.9685              3558.6226
 Red. masses --      1.0494                 1.0477                 1.0791
 Frc consts  --      7.5249                 7.7094                 8.0516
 IR Inten    --    468.2828               238.9817               328.3359

                     91                     92                     93
                      A                      A                      A
 Frequencies --   3613.5978              3618.3596              3645.6043
 Red. masses --      1.0781                 1.1045                 1.1095
 Frc consts  --      8.2944                 8.5204                 8.6881
 IR Inten    --    112.7741               478.0263               253.1379

 - Thermochemistry -
 -------------------
 Temperature   298.150 Kelvin.  Pressure   1.00000 Atm.
 Atom     1 has atomic number  6 and mass  12.00000

 Molecular mass:   276.09191 amu.
 Principal axes and moments of inertia in atomic units:
                           1         2         3
     Eigenvalues --  2277.00923********************
           X            0.99998   0.00597   0.00036
           Y           -0.00597   0.99998   0.00006
           Z           -0.00036  -0.00007   1.00000
 This molecule is an asymmetric top.
 Rotational symmetry number  1.
 Warning -- assumption of classical behavior for rotation
           may cause significant error
 Rotational temperatures (Kelvin)      0.03804     0.00703     0.00594
 Rotational constants (GHZ):           0.79259     0.14655     0.12379
 Zero-point vibrational energy     682142.6 (Joules/Mol)
                                  163.03599 (Kcal/Mol)
 Warning -- explicit consideration of  30 degrees of freedom as
           vibrations may cause significant error
 Vibrational temperatures:     13.28    62.91    76.57    96.69   103.51
          (Kelvin)            106.30   128.09   156.68   165.29   265.07
                              306.17   318.11   374.25   378.94   384.13
                              413.63   474.58   499.39   512.26   556.67
                              575.31   655.38   713.23   759.50   777.94
                              786.56   808.74   836.42   870.35   891.24
                              910.50   916.54   969.88   994.57  1002.05
                             1009.57  1019.39  1075.24  1173.13  1187.47
                             1246.31  1287.42  1306.49  1325.73  1397.94
                             1416.82  1422.94  1454.38  1459.35  1497.26
                             1534.86  1566.31  1589.20  1622.44  1639.12
                             1729.30  1754.59  1809.42  1828.66  1872.10
                             1902.58  1930.04  1979.15  2050.23  2121.67
                             2146.99  2169.96  2181.87  2185.20  2211.75
                             2254.93  2285.77  2299.81  2349.26  2365.31
                             2367.47  2397.11  2478.72  2507.06  4433.25
                             4532.56  4577.00  4611.50  4632.38  4684.23
                             4713.95  4755.46  5019.39  5084.59  5120.06
                             5199.16  5206.01  5245.21

 Zero-point correction=                           0.259814 (Hartree/Particle)
 Thermal correction to Energy=                    0.278587
 Thermal correction to Enthalpy=                  0.279531
 Thermal correction to Gibbs Free Energy=         0.210338
 Sum of electronic and zero-point Energies=          -1212.562994
 Sum of electronic and thermal Energies=             -1212.544222
 Sum of electronic and thermal Enthalpies=           -1212.543278
 Sum of electronic and thermal Free Energies=        -1212.612470

                     E (Thermal)             CV                S
                      KCal/Mol        Cal/Mol-Kelvin    Cal/Mol-Kelvin
 Total                  174.816             70.032            145.628
 Electronic               0.000              0.000              0.000
 Translational            0.889              2.981             42.745
 Rotational               0.889              2.981             34.368
 Vibrational            173.038             64.070             68.515
 Vibration     1          0.593              1.987              8.171
 Vibration     2          0.595              1.980              5.083
 Vibration     3          0.596              1.976              4.694
 Vibration     4          0.598              1.970              4.234
 Vibration     5          0.598              1.967              4.099
 Vibration     6          0.599              1.966              4.047
 Vibration     7          0.602              1.957              3.681
 Vibration     8          0.606              1.942              3.289
 Vibration     9          0.608              1.937              3.185
 Vibration    10          0.631              1.861              2.285
 Vibration    11          0.644              1.821              2.020
 Vibration    12          0.648              1.809              1.950
 Vibration    13          0.668              1.746              1.661
 Vibration    14          0.670              1.740              1.639
 Vibration    15          0.672              1.734              1.616
 Vibration    16          0.685              1.697              1.489
 Vibration    17          0.713              1.616              1.261
 Vibration    18          0.725              1.581              1.179
 Vibration    19          0.732              1.563              1.139
 Vibration    20          0.755              1.498              1.012
 Vibration    21          0.766              1.470              0.963
 Vibration    22          0.814              1.349              0.779
 Vibration    23          0.851              1.260              0.669
 Vibration    24          0.883              1.188              0.592
 Vibration    25          0.896              1.160              0.564
 Vibration    26          0.902              1.147              0.551
 Vibration    27          0.918              1.113              0.520
 Vibration    28          0.938              1.072              0.483
 Vibration    29          0.963              1.021              0.441
 Vibration    30          0.979              0.991              0.417

 Optimization completed on the basis of negligible forces.
    -- Stationary point found.
 Normal termination of Gaussian 16 at Sun Jul 18 16:25:32 2021.

 ----------------------------------------------------------------------
 #p b3lyp/6-31G(d) scrf=(iefpcm,read,solvent=water) geom=allcheck guess
 =read
 ----------------------------------------------------------------------

 Structure from the checkpoint file:  "SET_328_BBB321_conf1.geo_165_210_060.chk"
 ---------------------------------------------
 SET_328_BBB321_conf1.geo_165_210_060 geometry
 ---------------------------------------------
 Charge =  1 Multiplicity = 1

 SCF Done:  E(RB3LYP) =  -1212.82280853     A.U. after    1 cycles
 Normal termination of Gaussian 16 at Sun Jul 18 16:25:42 2021.

 -----------------------------
 #p B3LYP/6-31G* geom=allcheck
 -----------------------------

 Structure from the checkpoint file:  "SET_328_BBB321_conf1.geo_165_210_060.chk"
 ---------------------------------------------
 SET_328_BBB321_conf1.geo_165_210_060 geometry
 ---------------------------------------------
 Charge =  1 Multiplicity = 1

 SCF Done:  E(RB3LYP) =  -1212.69778284     A.U. after   17 cycles

 The electronic state is 1-A.
 Alpha  occ. eigenvalues --  -89.04978 -19.19179 -14.57532 -14.55999 -14.54551
 Alpha  occ. eigenvalues --  -14.47792 -14.45733 -10.52149 -10.43665 -10.36971
 Alpha  occ. eigenvalues --  -10.35156 -10.33740 -10.32582 -10.29905 -10.28211
 Alpha  occ. eigenvalues --  -10.28154 -10.28030 -10.27525 -10.26035  -8.11103
 Alpha  occ. eigenvalues --   -6.07536  -6.07137  -6.06766  -1.21321  -1.13071
 Alpha  occ. eigenvalues --   -1.10887  -1.08675  -1.07775  -1.02202  -0.94593
 Alpha  occ. eigenvalues --   -0.93469  -0.89893  -0.85640  -0.84351  -0.81811
 Alpha  occ. eigenvalues --   -0.80022  -0.78339  -0.78224  -0.73630  -0.71748
 Alpha  occ. eigenvalues --   -0.71033  -0.69061  -0.67896  -0.67080  -0.65658
 Alpha  occ. eigenvalues --   -0.64016  -0.63563  -0.61736  -0.58409  -0.56394
 Alpha  occ. eigenvalues --   -0.55997  -0.55327  -0.54129  -0.52768  -0.52570
 Alpha  occ. eigenvalues --   -0.51211  -0.49457  -0.48963  -0.48111  -0.47238
 Alpha  occ. eigenvalues --   -0.47126  -0.46192  -0.45831  -0.44131  -0.43858
 Alpha  occ. eigenvalues --   -0.42471  -0.41569  -0.39200  -0.37010  -0.32510
 Alpha  occ. eigenvalues --   -0.32423  -0.30495
 Alpha virt. eigenvalues --   -0.17692  -0.13654  -0.13512  -0.11246  -0.10316
 Alpha virt. eigenvalues --   -0.09146  -0.07526  -0.05379  -0.04696  -0.04521
 Alpha virt. eigenvalues --   -0.02959  -0.01718  -0.00668   0.00182   0.02613

 Mulliken charges:
               1
     1  C   -0.548669
     2  H    0.196455
     3  H    0.162006
     4  H    0.204957
     5  C    0.601303
     6  O   -0.495446
     7  N   -0.709272
     8  H    0.340261
     9  C    0.362115
    10  C   -0.183166
    11  C   -0.134987
    12  C   -0.161504
    13  H    0.116134
    14  H    0.148574
    15  H    0.146125
    16  C   -0.225054
    17  H    0.192739
    18  C    0.111295
    19  C    0.306784
    20  N   -0.561749
    21  C   -0.403623
    22  H    0.238815
    23  S    0.314028
    24  C    0.342916
    25  N   -0.689105
    26  C    0.850245
    27  N   -0.757471
    28  H    0.381874
    29  H    0.446101
    30  N   -0.760683
    31  H    0.393996
    32  H    0.391698
    33  H    0.382309
 Sum of Mulliken charges =   1.00000

 Dipole moment (field-independent basis, Debye):
    X=             16.3178    Y=              4.0498    Z=              0.0828  Tot=             16.8130
 Quadrupole moment (field-independent basis, Debye-Ang):
   XX=             40.5559   YY=            -91.9981   ZZ=           -119.9745
   XY=             -1.5364   XZ=              1.3141   YZ=             -0.3473

 Normal termination of Gaussian 16 at Sun Jul 18 16:26:34 2021.
 Gaussian 16:  ES64L-G16RevB.01 20-Dec-2017

 --------------------------------------------------------
 #p mp2/aug-cc-pVDZ scf=tight maxdisk=180GB geom=allcheck
 --------------------------------------------------------

 Structure from the checkpoint file:  "SET_328_BBB321_conf1.geo_165_210_060.chk"
 ---------------------------------------------
 SET_328_BBB321_conf1.geo_165_210_060 geometry
 ---------------------------------------------
 Charge =  1 Multiplicity = 1

                         Standard orientation:
 ---------------------------------------------------------------------
 Center     Atomic      Atomic             Coordinates (Angstroms)
 Number     Number       Type             X           Y           Z
 ---------------------------------------------------------------------
      1          6           0       -6.358622   -0.819641   -0.057963
      2          1           0       -6.689000   -0.781930   -1.101379
      3          1           0       -6.836079    0.002031    0.479452
      4          1           0       -6.682093   -1.770214    0.367726
      5          6           0       -4.844366   -0.753161   -0.008554
      6          8           0       -4.150542   -1.771132   -0.033531
      7          7           0       -4.336084    0.518576    0.033694
      8          1           0       -5.017333    1.268063    0.043020
      9          6           0       -2.992482    0.942392    0.025155
     10          6           0       -2.757070    2.328988    0.023395
     11          6           0       -1.453001    2.811897    0.015867
     12          6           0       -0.368934    1.934774    0.010976
     13          1           0        0.644959    2.312775    0.004966
     14          1           0       -1.280531    3.883086    0.013489
     15          1           0       -3.594648    3.019058    0.026838
     16          6           0       -1.907076    0.059221    0.022062
     17          1           0       -2.105118   -1.002102    0.024332
     18          6           0       -0.591572    0.551244    0.014858
     19          6           0        0.553912   -0.378508    0.013326
     20          7           0        1.844829    0.138973    0.001937
     21          6           0        0.495161   -1.745157    0.024702
     22          1           0       -0.369643   -2.390254    0.036269
     23         16           0        2.086423   -2.438446    0.020973
     24          6           0        2.737369   -0.807186    0.005075
     25          7           0        4.108128   -0.613705   -0.002419
     26          6           0        4.759438    0.587538   -0.022825
     27          7           0        4.086613    1.726936   -0.045847
     28          1           0        4.590512    2.608104   -0.061774
     29          1           0        3.068046    1.708411   -0.050201
     30          7           0        6.089189    0.567287   -0.032434
     31          1           0        6.610795    1.437181    0.010030
     32          1           0        6.596295   -0.308247    0.051585
     33          1           0        4.700145   -1.442644    0.007365
 ---------------------------------------------------------------------

 SCF Done:  E(RHF) =  -1207.15952854     A.U. after   18 cycles
