 Gaussian 16, Revision B.01,

 -----------------------------------------------------------
 #p b3lyp/6-31G(d) opt freq scrf=(iefpcm,read,solvent=water)
 -----------------------------------------------------------

 ---------------------------------------------
 SET_328_BBB301_conf1.geo_090_285_090 geometry
 ---------------------------------------------
 Symbolic Z-matrix:
 Charge =  1 Multiplicity = 1

 SCF Done:  E(RB3LYP) =  -788.788078695     A.U. after   12 cycles
 SCF Done:  E(RB3LYP) =  -788.853006454     A.U. after   12 cycles
 SCF Done:  E(RB3LYP) =  -788.849128155     A.U. after   12 cycles
 SCF Done:  E(RB3LYP) =  -788.898159886     A.U. after   11 cycles
 SCF Done:  E(RB3LYP) =  -788.908794107     A.U. after   11 cycles
 SCF Done:  E(RB3LYP) =  -788.914132848     A.U. after   10 cycles
 SCF Done:  E(RB3LYP) =  -788.918247110     A.U. after   12 cycles
 SCF Done:  E(RB3LYP) =  -788.919000807     A.U. after   11 cycles
 SCF Done:  E(RB3LYP) =  -788.919848228     A.U. after   10 cycles
 SCF Done:  E(RB3LYP) =  -788.920085919     A.U. after   10 cycles
 SCF Done:  E(RB3LYP) =  -788.924758146     A.U. after    8 cycles
 SCF Done:  E(RB3LYP) =  -788.924757987     A.U. after    7 cycles
 SCF Done:  E(RB3LYP) =  -788.924760388     A.U. after    7 cycles
 SCF Done:  E(RB3LYP) =  -788.924757758     A.U. after    6 cycles
 SCF Done:  E(RB3LYP) =  -788.924758487     A.U. after    7 cycles
 SCF Done:  E(RB3LYP) =  -788.924758638     A.U. after    6 cycles
 Optimization completed.
    -- Stationary point found.
 Normal termination of Gaussian 16 at Sun Jul 18 15:20:40 2021.

 --------------------------------------------------------------------
 #P Geom=AllCheck Guess=TCheck SCRF=Check GenChk RB3LYP/6-31G(d) Freq
 --------------------------------------------------------------------

 Structure from the checkpoint file:  "SET_328_BBB301_conf1.geo_090_285_090.chk"
 ---------------------------------------------
 SET_328_BBB301_conf1.geo_090_285_090 geometry
 ---------------------------------------------
 Charge =  1 Multiplicity = 1

 SCF Done:  E(RB3LYP) =  -788.924758638     A.U. after    1 cycles

  Exact polarizability: 220.606  22.532 200.865 -33.004  21.390 179.750
 Approx polarizability: 231.473  26.456 222.316 -39.353  25.186 197.833

                      1                      2                      3
                      A                      A                      A
 Frequencies --     22.7064                29.4553                42.5362
 Red. masses --      4.7352                 4.4836                 4.6775
 Frc consts  --      0.0014                 0.0023                 0.0050
 IR Inten    --      0.0714                 0.4602                 0.5065

                      4                      5                      6
                      A                      A                      A
 Frequencies --     53.2035                78.4972               125.5746
 Red. masses --      2.9730                 4.4132                 4.8400
 Frc consts  --      0.0050                 0.0160                 0.0450
 IR Inten    --      2.3746                11.3096                 4.4314

                      7                      8                      9
                      A                      A                      A
 Frequencies --    133.7237               138.6144               179.5987
 Red. masses --      3.1493                 3.2651                 3.5585
 Frc consts  --      0.0332                 0.0370                 0.0676
 IR Inten    --     30.4203                 7.7834                11.6558

                     10                     11                     12
                      A                      A                      A
 Frequencies --    190.5480               242.1882               244.3930
 Red. masses --      3.3356                 1.1347                 1.1646
 Frc consts  --      0.0714                 0.0392                 0.0410
 IR Inten    --     10.3606                52.3635               145.5724

                     13                     14                     15
                      A                      A                      A
 Frequencies --    275.0618               281.0236               286.3176
 Red. masses --      1.6774                 1.4905                 1.1428
 Frc consts  --      0.0748                 0.0694                 0.0552
 IR Inten    --      0.9370                 6.1313                 2.9319

                     16                     17                     18
                      A                      A                      A
 Frequencies --    304.8213               317.4079               335.8915
 Red. masses --      2.4874                 1.2266                 2.9431
 Frc consts  --      0.1362                 0.0728                 0.1956
 IR Inten    --      1.4964               196.4384                12.8789

                     19                     20                     21
                      A                      A                      A
 Frequencies --    340.3066               352.5333               373.2430
 Red. masses --      2.0996                 2.4653                 4.1563
 Frc consts  --      0.1433                 0.1805                 0.3411
 IR Inten    --      7.7739                11.2475                 1.3437

                     22                     23                     24
                      A                      A                      A
 Frequencies --    402.4118               409.8274               433.0424
 Red. masses --      1.0836                 3.8699                 2.5011
 Frc consts  --      0.1034                 0.3830                 0.2763
 IR Inten    --    191.4651                12.4628                 8.7964

                     25                     26                     27
                      A                      A                      A
 Frequencies --    453.4109               477.5006               490.4522
 Red. masses --      2.3282                 2.8723                 3.4746
 Frc consts  --      0.2820                 0.3859                 0.4924
 IR Inten    --      7.4866                 2.4421                 4.2009

                     28                     29                     30
                      A                      A                      A
 Frequencies --    504.7666               535.7123               579.9317
 Red. masses --      3.5419                 3.9235                 3.7276
 Frc consts  --      0.5317                 0.6634                 0.7386
 IR Inten    --     16.4893                10.3923                 7.1690

                     31                     32                     33
                      A                      A                      A
 Frequencies --    612.5611               670.6849               731.8461
 Red. masses --      4.9360                 5.2099                 3.9050
 Frc consts  --      1.0912                 1.3808                 1.2323
 IR Inten    --     19.0183                12.9194                17.0504

                     34                     35                     36
                      A                      A                      A
 Frequencies --    761.8408               787.4742               801.3795
 Red. masses --      4.7022                 3.9628                 2.9797
 Frc consts  --      1.6080                 1.4479                 1.1274
 IR Inten    --     14.8009                16.5324                14.8989

                     37                     38                     39
                      A                      A                      A
 Frequencies --    829.2495               842.0644               891.9220
 Red. masses --      1.3180                 1.6308                 2.6923
 Frc consts  --      0.5340                 0.6813                 1.2619
 IR Inten    --     30.1495                24.0965                22.5005

                     40                     41                     42
                      A                      A                      A
 Frequencies --    907.3009               940.7914               950.6102
 Red. masses --      3.0015                 1.4651                 1.6452
 Frc consts  --      1.4557                 0.7640                 0.8759
 IR Inten    --     10.7892                15.3466                 0.2099

                     43                     44                     45
                      A                      A                      A
 Frequencies --    955.3434               957.5567               961.3129
 Red. masses --      1.6857                 1.3111                 2.5072
 Frc consts  --      0.9064                 0.7083                 1.3651
 IR Inten    --      3.0486                 3.9107                23.3201

                     46                     47                     48
                      A                      A                      A
 Frequencies --    988.6073              1004.0618              1017.4723
 Red. masses --      1.2455                 1.7641                 1.9457
 Frc consts  --      0.7172                 1.0478                 1.1868
 IR Inten    --      0.8015                 8.7019                13.5944

                     49                     50                     51
                      A                      A                      A
 Frequencies --   1039.5070              1046.9900              1081.5635
 Red. masses --      4.1690                 2.4543                 1.5521
 Frc consts  --      2.6542                 1.5851                 1.0697
 IR Inten    --     95.7522                22.7061                 8.7914

                     52                     53                     54
                      A                      A                      A
 Frequencies --   1087.8385              1121.4227              1138.5482
 Red. masses --      2.2358                 2.5277                 2.0047
 Frc consts  --      1.5589                 1.8729                 1.5311
 IR Inten    --     32.3913                55.2615               171.1292

                     55                     56                     57
                      A                      A                      A
 Frequencies --   1188.1552              1207.5149              1213.9255
 Red. masses --      1.5465                 1.3058                 1.3609
 Frc consts  --      1.2863                 1.1218                 1.1815
 IR Inten    --      1.0271                54.0450                40.9601

                     58                     59                     60
                      A                      A                      A
 Frequencies --   1230.1069              1232.1160              1252.2571
 Red. masses --      2.0077                 1.2957                 1.2522
 Frc consts  --      1.7899                 1.1589                 1.1569
 IR Inten    --    115.4138               144.9026                29.8748

                     61                     62                     63
                      A                      A                      A
 Frequencies --   1262.3932              1263.1703              1286.7188
 Red. masses --      1.8933                 1.2325                 1.6776
 Frc consts  --      1.7777                 1.1587                 1.6365
 IR Inten    --     48.5768                20.9614                36.1267

                     64                     65                     66
                      A                      A                      A
 Frequencies --   1314.0841              1329.5008              1342.4149
 Red. masses --      3.1827                 1.6923                 1.6025
 Frc consts  --      3.2382                 1.7624                 1.7015
 IR Inten    --    162.1188                44.1320                20.1479

                     67                     68                     69
                      A                      A                      A
 Frequencies --   1354.0345              1390.5248              1396.8041
 Red. masses --      1.5517                 2.1486                 1.5081
 Frc consts  --      1.6762                 2.4478                 1.7336
 IR Inten    --    127.4775                64.9222                43.0012

                     70                     71                     72
                      A                      A                      A
 Frequencies --   1422.7894              1433.9815              1438.2951
 Red. masses --      1.2600                 1.2624                 1.2673
 Frc consts  --      1.5028                 1.5295                 1.5446
 IR Inten    --     12.6388                37.6643                17.2696

                     73                     74                     75
                      A                      A                      A
 Frequencies --   1452.2227              1460.3735              1462.2569
 Red. masses --      1.3582                 1.2934                 1.7058
 Frc consts  --      1.6877                 1.6252                 2.1489
 IR Inten    --     61.4674                68.5656                52.1315

                     76                     77                     78
                      A                      A                      A
 Frequencies --   1485.1167              1490.0939              1502.8415
 Red. masses --      1.2071                 2.5062                 1.0452
 Frc consts  --      1.5686                 3.2787                 1.3908
 IR Inten    --     57.5555                74.1129                 0.9707

                     79                     80                     81
                      A                      A                      A
 Frequencies --   1507.5760              1510.2176              1521.9104
 Red. masses --      1.0455                 1.0533                 1.0740
 Frc consts  --      1.4000                 1.4154                 1.4656
 IR Inten    --      0.3020                 3.3048                 9.9188

                     82                     83                     84
                      A                      A                      A
 Frequencies --   1530.6839              1536.7601              1537.1945
 Red. masses --      1.0651                 1.0660                 1.0983
 Frc consts  --      1.4703                 1.4832                 1.5291
 IR Inten    --      2.7418                26.4871                 4.0908

                     85                     86                     87
                      A                      A                      A
 Frequencies --   1545.5725              1562.3386              1633.4688
 Red. masses --      1.0996                 2.5840                 1.0718
 Frc consts  --      1.5476                 3.7161                 1.6849
 IR Inten    --     15.4307                80.9470               122.4111

                     88                     89                     90
                      A                      A                      A
 Frequencies --   1655.5234              1673.3252              3024.1977
 Red. masses --      5.9183                 6.1601                 1.0604
 Frc consts  --      9.5569                10.1624                 5.7137
 IR Inten    --     18.9736                70.6910               103.0325

                     91                     92                     93
                      A                      A                      A
 Frequencies --   3052.7568              3066.7087              3069.5737
 Red. masses --      1.0847                 1.0372                 1.1026
 Frc consts  --      5.9557                 5.7471                 6.1208
 IR Inten    --     54.8701                24.2861                71.2765

                     94                     95                     96
                      A                      A                      A
 Frequencies --   3073.2990              3078.9288              3136.3136
 Red. masses --      1.0359                 1.0375                 1.1032
 Frc consts  --      5.7648                 5.7946                 6.3933
 IR Inten    --     26.8518                 2.8031                30.7068

                     97                     98                     99
                      A                      A                      A
 Frequencies --   3140.9709              3145.8151              3148.3836
 Red. masses --      1.0679                 1.1024                 1.0962
 Frc consts  --      6.2072                 6.4278                 6.4022
 IR Inten    --      1.5341                26.0850                38.9751

                    100                    101                    102
                      A                      A                      A
 Frequencies --   3151.5625              3156.9425              3159.8869
 Red. masses --      1.1020                 1.1015                 1.1015
 Frc consts  --      6.4490                 6.4677                 6.4799
 IR Inten    --     11.7697                25.4562                54.8788

                    103                    104                    105
                      A                      A                      A
 Frequencies --   3201.0186              3203.9736              3216.4422
 Red. masses --      1.0918                 1.1045                 1.0945
 Frc consts  --      6.5915                 6.6801                 6.6713
 IR Inten    --     33.2876                 3.0037                29.7232

                    106                    107                    108
                      A                      A                      A
 Frequencies --   3224.3619              3367.2730              3421.1532
 Red. masses --      1.0897                 1.0576                 1.0917
 Frc consts  --      6.6748                 7.0651                 7.5283
 IR Inten    --      4.6044               118.8133               160.6452

                    109                    110                    111
                      A                      A                      A
 Frequencies --   3688.4487              3717.1187              3722.3803
 Red. masses --      1.0663                 1.0666                 1.0661
 Frc consts  --      8.5469                 8.6830                 8.7038
 IR Inten    --    214.7998               138.9509                63.4195

 - Thermochemistry -
 -------------------
 Temperature   298.150 Kelvin.  Pressure   1.00000 Atm.
 Atom     1 has atomic number  6 and mass  12.00000

 Molecular mass:   240.15997 amu.
 Principal axes and moments of inertia in atomic units:
                           1         2         3
     Eigenvalues --  2258.980818458.203738762.35025
           X            0.99999  -0.00485   0.00085
           Y            0.00481   0.99909   0.04237
           Z           -0.00105  -0.04237   0.99910
 This molecule is an asymmetric top.
 Rotational symmetry number  1.
 Warning -- assumption of classical behavior for rotation
           may cause significant error
 Rotational temperatures (Kelvin)      0.03834     0.01024     0.00988
 Rotational constants (GHZ):           0.79892     0.21337     0.20597
 Zero-point vibrational energy     906508.7 (Joules/Mol)
                                  216.66079 (Kcal/Mol)
 Warning -- explicit consideration of  31 degrees of freedom as
           vibrations may cause significant error
 Vibrational temperatures:     32.67    42.38    61.20    76.55   112.94
          (Kelvin)            180.67   192.40   199.44   258.40   274.16
                              348.45   351.63   395.75   404.33   411.95
                              438.57   456.68   483.27   489.63   507.22
                              537.01   578.98   589.65   623.05   652.36
                              687.02   705.65   726.25   770.77   834.39
                              881.34   964.97  1052.96  1096.12  1133.00
                             1153.01  1193.11  1211.54  1283.28  1305.40
                             1353.59  1367.72  1374.53  1377.71  1383.11
                             1422.39  1444.62  1463.92  1495.62  1506.39
                             1556.13  1565.16  1613.48  1638.12  1709.49
                             1737.34  1746.57  1769.85  1772.74  1801.72
                             1816.30  1817.42  1851.30  1890.67  1912.86
                             1931.44  1948.15  2000.65  2009.69  2047.08
                             2063.18  2069.39  2089.42  2101.15  2103.86
                             2136.75  2143.91  2162.25  2169.07  2172.87
                             2189.69  2202.31  2211.06  2211.68  2223.73
                             2247.86  2350.20  2381.93  2407.54  4351.15
                             4392.24  4412.31  4416.43  4421.79  4429.89
                             4512.46  4519.16  4526.13  4529.82  4534.40
                             4542.14  4546.37  4605.55  4609.80  4627.74
                             4639.14  4844.75  4922.28  5306.85  5348.10
                             5355.67

 Zero-point correction=                           0.345271 (Hartree/Particle)
 Thermal correction to Energy=                    0.363959
 Thermal correction to Enthalpy=                  0.364903
 Thermal correction to Gibbs Free Energy=         0.297666
 Sum of electronic and zero-point Energies=           -788.579488
 Sum of electronic and thermal Energies=              -788.560800
 Sum of electronic and thermal Enthalpies=            -788.559855
 Sum of electronic and thermal Free Energies=         -788.627093

                     E (Thermal)             CV                S
                      KCal/Mol        Cal/Mol-Kelvin    Cal/Mol-Kelvin
 Total                  228.388             71.088            141.513
 Electronic               0.000              0.000              0.000
 Translational            0.889              2.981             42.330
 Rotational               0.889              2.981             33.481
 Vibrational            226.610             65.126             65.702
 Vibration     1          0.593              1.985              6.382
 Vibration     2          0.593              1.984              5.866
 Vibration     3          0.595              1.980              5.137
 Vibration     4          0.596              1.976              4.695
 Vibration     5          0.600              1.964              3.928
 Vibration     6          0.611              1.927              3.013
 Vibration     7          0.613              1.920              2.892
 Vibration     8          0.614              1.915              2.823
 Vibration     9          0.629              1.867              2.333
 Vibration    10          0.634              1.853              2.222
 Vibration    11          0.658              1.776              1.787
 Vibration    12          0.660              1.772              1.771
 Vibration    13          0.677              1.719              1.564
 Vibration    14          0.681              1.709              1.527
 Vibration    15          0.684              1.699              1.496
 Vibration    16          0.696              1.665              1.390
 Vibration    17          0.704              1.640              1.323
 Vibration    18          0.717              1.604              1.232
 Vibration    19          0.720              1.595              1.211
 Vibration    20          0.729              1.570              1.155
 Vibration    21          0.745              1.527              1.066
 Vibration    22          0.768              1.465              0.954
 Vibration    23          0.774              1.449              0.927
 Vibration    24          0.794              1.398              0.849
 Vibration    25          0.812              1.353              0.786
 Vibration    26          0.834              1.300              0.717
 Vibration    27          0.846              1.271              0.682
 Vibration    28          0.860              1.239              0.646
 Vibration    29          0.891              1.171              0.575
 Vibration    30          0.937              1.075              0.485
 Vibration    31          0.972              1.005              0.429

                           ! Non-Optimized Parameters !
 Normal termination of Gaussian 16 at Sun Jul 18 15:34:02 2021.

 ----------------------------------------------------------------------
 #p b3lyp/6-31G(d) scrf=(iefpcm,read,solvent=water) geom=allcheck guess
 =read
 ----------------------------------------------------------------------

 Structure from the checkpoint file:  "SET_328_BBB301_conf1.geo_090_285_090.chk"
 ---------------------------------------------
 SET_328_BBB301_conf1.geo_090_285_090 geometry
 ---------------------------------------------
 Charge =  1 Multiplicity = 1

 SCF Done:  E(RB3LYP) =  -788.924758638     A.U. after    1 cycles
 Normal termination of Gaussian 16 at Sun Jul 18 15:34:15 2021.

 -----------------------------
 #p B3LYP/6-31G* geom=allcheck
 -----------------------------

 Structure from the checkpoint file:  "SET_328_BBB301_conf1.geo_090_285_090.chk"
 ---------------------------------------------
 SET_328_BBB301_conf1.geo_090_285_090 geometry
 ---------------------------------------------
 Charge =  1 Multiplicity = 1

 SCF Done:  E(RB3LYP) =  -788.812066754     A.U. after   13 cycles

 The electronic state is 1-A.
 Alpha  occ. eigenvalues --  -19.30274 -19.27804 -19.21631 -14.60888 -10.41259
 Alpha  occ. eigenvalues --  -10.39681 -10.39511 -10.35591 -10.33446 -10.33362
 Alpha  occ. eigenvalues --  -10.33316 -10.31721 -10.30973 -10.30866 -10.29874
 Alpha  occ. eigenvalues --  -10.29835 -10.29361  -1.18307  -1.15843  -1.15688
 Alpha  occ. eigenvalues --   -1.08625  -0.97729  -0.96433  -0.91391  -0.87161
 Alpha  occ. eigenvalues --   -0.86284  -0.85477  -0.84443  -0.78414  -0.77095
 Alpha  occ. eigenvalues --   -0.75078  -0.74094  -0.72597  -0.69460  -0.66567
 Alpha  occ. eigenvalues --   -0.65309  -0.64765  -0.62888  -0.61965  -0.59666
 Alpha  occ. eigenvalues --   -0.59292  -0.58875  -0.58417  -0.57829  -0.55991
 Alpha  occ. eigenvalues --   -0.54343  -0.54072  -0.54042  -0.53108  -0.53045
 Alpha  occ. eigenvalues --   -0.52464  -0.50904  -0.50468  -0.50108  -0.50016
 Alpha  occ. eigenvalues --   -0.49620  -0.48036  -0.46574  -0.44839  -0.44386
 Alpha  occ. eigenvalues --   -0.42794  -0.41026  -0.35933  -0.34162  -0.32720
 Alpha virt. eigenvalues --   -0.11831  -0.11348  -0.10099  -0.07812  -0.06178
 Alpha virt. eigenvalues --   -0.05538  -0.04069  -0.02735  -0.02388  -0.01845
 Alpha virt. eigenvalues --   -0.00334   0.00035   0.00387   0.01186   0.01422

 Mulliken charges:
               1
     1  C   -0.463420
     2  H    0.207111
     3  H    0.179946
     4  H    0.171104
     5  C    0.133326
     6  C   -0.469155
     7  H    0.176364
     8  H    0.176099
     9  H    0.207678
    10  C   -0.461769
    11  H    0.179592
    12  H    0.205344
    13  H    0.174131
    14  N   -0.606809
    15  H    0.397365
    16  C   -0.194220
    17  H    0.198009
    18  H    0.214991
    19  C    0.046658
    20  O   -0.617496
    21  H    0.417449
    22  H    0.189168
    23  C    0.087088
    24  C   -0.243310
    25  H    0.166018
    26  C    0.128369
    27  C   -0.096066
    28  O   -0.602910
    29  H    0.402762
    30  H    0.151521
    31  H    0.123972
    32  C    0.331047
    33  O   -0.621768
    34  H    0.422232
    35  C   -0.187775
    36  H    0.148513
    37  C   -0.201526
    38  H    0.134588
    39  H    0.395778
 Sum of Mulliken charges =   1.00000

 Dipole moment (field-independent basis, Debye):
    X=            -10.2541    Y=              1.4221    Z=             -0.4573  Tot=             10.3624
 Quadrupole moment (field-independent basis, Debye-Ang):
   XX=            -52.9359   YY=            -83.6341   ZZ=            -85.6775
   XY=              8.7299   XZ=             -3.9142   YZ=              2.1508

 Normal termination of Gaussian 16 at Sun Jul 18 15:35:01 2021.
 Gaussian 16:  ES64L-G16RevB.01 20-Dec-2017

 --------------------------------------------------------
 #p mp2/aug-cc-pVDZ scf=tight maxdisk=180GB geom=allcheck
 --------------------------------------------------------

 Structure from the checkpoint file:  "SET_328_BBB301_conf1.geo_090_285_090.chk"
 ---------------------------------------------
 SET_328_BBB301_conf1.geo_090_285_090 geometry
 ---------------------------------------------
 Charge =  1 Multiplicity = 1

                         Standard orientation:
 ---------------------------------------------------------------------
 Center     Atomic      Atomic             Coordinates (Angstroms)
 Number     Number       Type             X           Y           Z
 ---------------------------------------------------------------------
      1          6           0       -4.629267   -0.533731   -0.198400
      2          1           0       -5.582175   -0.168355   -0.587881
      3          1           0       -4.705862   -0.565049    0.890860
      4          1           0       -4.478751   -1.552090   -0.570802
      5          6           0       -3.515342    0.402529   -0.671911
      6          6           0       -3.457859    0.452913   -2.202187
      7          1           0       -3.318766   -0.544948   -2.630175
      8          1           0       -2.646483    1.099368   -2.548587
      9          1           0       -4.398281    0.856859   -2.581893
     10          6           0       -3.667293    1.807131   -0.085534
     11          1           0       -3.719940    1.795868    1.006622
     12          1           0       -4.598904    2.240910   -0.457266
     13          1           0       -2.846514    2.461813   -0.392303
     14          7           0       -2.165828   -0.176610   -0.227462
     15          1           0       -1.417335    0.408859   -0.627932
     16          6           0       -1.906082   -0.342279    1.237040
     17          1           0       -2.743628   -0.893866    1.661708
     18          1           0       -1.854689    0.643987    1.695227
     19          6           0       -0.596779   -1.123494    1.444311
     20          8           0       -0.658931   -2.358980    0.742386
     21          1           0       -1.291924   -2.933404    1.209765
     22          1           0       -0.518983   -1.301047    2.523813
     23          6           0        0.623752   -0.346760    0.982677
     24          6           0        1.476450   -0.832114   -0.012596
     25          1           0        1.261250   -1.790913   -0.471624
     26          6           0        2.600878   -0.119671   -0.437042
     27          6           0        3.517638   -0.678198   -1.491926
     28          8           0        4.635317   -1.305706   -0.849226
     29          1           0        5.248925   -1.573018   -1.554488
     30          1           0        3.859689    0.131362   -2.147682
     31          1           0        2.965887   -1.403531   -2.105774
     32          6           0        2.881753    1.118304    0.166306
     33          8           0        3.981612    1.794023   -0.267573
     34          1           0        4.051108    2.646291    0.202336
     35          6           0        2.038312    1.619224    1.164413
     36          1           0        2.257006    2.576445    1.627001
     37          6           0        0.924001    0.889369    1.565519
     38          1           0        0.284666    1.292825    2.344358
     39          1           0       -2.050464   -1.106130   -0.661756
 ---------------------------------------------------------------------

 SCF Done:  E(RHF) =  -784.029150560     A.U. after   15 cycles
