 Gaussian 16, Revision B.01,

 -----------------------------------------------------------
 #p b3lyp/6-31G(d) opt freq scrf=(iefpcm,read,solvent=water)
 -----------------------------------------------------------

 ---------------------------------------------
 SET_328_BBB321_conf1.geo_030_210_300 geometry
 ---------------------------------------------
 Symbolic Z-matrix:
 Charge =  1 Multiplicity = 1

 SCF Done:  E(RB3LYP) =  -1212.45920623     A.U. after   17 cycles
 SCF Done:  E(RB3LYP) =  -1212.60000725     A.U. after   13 cycles
 SCF Done:  E(RB3LYP) =  -1212.68308666     A.U. after   13 cycles
 SCF Done:  E(RB3LYP) =  -1212.73714937     A.U. after   11 cycles
 SCF Done:  E(RB3LYP) =  -1212.78744397     A.U. after   14 cycles
 SCF Done:  E(RB3LYP) =  -1212.80160004     A.U. after   11 cycles
 SCF Done:  E(RB3LYP) =  -1212.80927068     A.U. after   11 cycles
 SCF Done:  E(RB3LYP) =  -1212.81110820     A.U. after   11 cycles
 SCF Done:  E(RB3LYP) =  -1212.81153517     A.U. after   13 cycles
 SCF Done:  E(RB3LYP) =  -1212.81374726     A.U. after   10 cycles
 SCF Done:  E(RB3LYP) =  -1212.81738066     A.U. after    7 cycles
 SCF Done:  E(RB3LYP) =  -1212.81738190     A.U. after    7 cycles
 SCF Done:  E(RB3LYP) =  -1212.81738461     A.U. after    7 cycles
 SCF Done:  E(RB3LYP) =  -1212.81738463     A.U. after    7 cycles
 SCF Done:  E(RB3LYP) =  -1212.81738436     A.U. after    6 cycles
 SCF Done:  E(RB3LYP) =  -1212.81738437     A.U. after    6 cycles
 Optimization completed.
    -- Stationary point found.
 Normal termination of Gaussian 16 at Sun Jul 18 16:12:27 2021.

 --------------------------------------------------------------------
 #P Geom=AllCheck Guess=TCheck SCRF=Check GenChk RB3LYP/6-31G(d) Freq
 --------------------------------------------------------------------

 Structure from the checkpoint file:  "SET_328_BBB321_conf1.geo_030_210_300.chk"
 ---------------------------------------------
 SET_328_BBB321_conf1.geo_030_210_300 geometry
 ---------------------------------------------
 Charge =  1 Multiplicity = 1

 SCF Done:  E(RB3LYP) =  -1212.81738437     A.U. after    1 cycles

  Exact polarizability: 379.653   7.562 294.271   3.290   0.393  98.700
 Approx polarizability: 383.516  12.683 360.375   3.947   4.768 117.157

                      1                      2                      3
                      A                      A                      A
 Frequencies --     27.8410                43.2370                53.9665
 Red. masses --      4.7663                 4.8970                 1.5069
 Frc consts  --      0.0022                 0.0054                 0.0026
 IR Inten    --      6.6056                25.3699                 1.2594

                      4                      5                      6
                      A                      A                      A
 Frequencies --     56.3157                65.5919                92.8218
 Red. masses --      5.3915                 4.4247                 5.2525
 Frc consts  --      0.0101                 0.0112                 0.0267
 IR Inten    --      8.7831                 5.7666                 3.7821

                      7                      8                      9
                      A                      A                      A
 Frequencies --     98.7660               119.9354               130.0035
 Red. masses --      3.9030                 2.8144                 5.3036
 Frc consts  --      0.0224                 0.0239                 0.0528
 IR Inten    --      2.2214                 1.3756                 4.7789

                     10                     11                     12
                      A                      A                      A
 Frequencies --    186.6418               242.2027               249.2416
 Red. masses --      5.8615                 5.9177                 5.6638
 Frc consts  --      0.1203                 0.2045                 0.2073
 IR Inten    --      1.3224                 9.2975                 5.9742

                     13                     14                     15
                      A                      A                      A
 Frequencies --    268.1849               281.0549               330.9808
 Red. masses --      4.2404                 5.5088                 1.2459
 Frc consts  --      0.1797                 0.2564                 0.0804
 IR Inten    --      0.2933                 2.8330               477.2901

                     16                     17                     18
                      A                      A                      A
 Frequencies --    342.4277               353.0070               362.7544
 Red. masses --      5.4897                 4.5553                 5.5186
 Frc consts  --      0.3793                 0.3345                 0.4279
 IR Inten    --     14.7624                 1.8404                 0.6898

                     19                     20                     21
                      A                      A                      A
 Frequencies --    387.2302               446.4459               459.0837
 Red. masses --      4.8876                 1.3391                 2.3042
 Frc consts  --      0.4318                 0.1572                 0.2861
 IR Inten    --      1.6553                61.8436                28.2501

                     22                     23                     24
                      A                      A                      A
 Frequencies --    477.3728               485.8488               544.6463
 Red. masses --      1.1869                 3.9164                 3.8364
 Frc consts  --      0.1594                 0.5447                 0.6705
 IR Inten    --    156.0233                 6.9868                17.5858

                     25                     26                     27
                      A                      A                      A
 Frequencies --    547.1710               559.0548               571.4810
 Red. masses --      2.8903                 2.0123                 1.8668
 Frc consts  --      0.5098                 0.3706                 0.3592
 IR Inten    --     52.4222               104.2903                75.8741

                     28                     29                     30
                      A                      A                      A
 Frequencies --    581.3787               598.3971               612.1470
 Red. masses --      1.6509                 3.5379                 1.1670
 Frc consts  --      0.3288                 0.7464                 0.2577
 IR Inten    --    201.6028                 1.4757                45.8589

                     31                     32                     33
                      A                      A                      A
 Frequencies --    640.9796               651.4644               672.2362
 Red. masses --      1.9433                 6.3893                 4.5317
 Frc consts  --      0.4704                 1.5977                 1.2066
 IR Inten    --     21.6658                10.8922                41.2735

                     34                     35                     36
                      A                      A                      A
 Frequencies --    679.3049               698.6109               701.4282
 Red. masses --      5.5566                 3.7216                 3.3229
 Frc consts  --      1.5107                 1.0702                 0.9632
 IR Inten    --     17.7267                19.9588                24.7024

                     37                     38                     39
                      A                      A                      A
 Frequencies --    707.2926               748.1521               754.7732
 Red. masses --      2.0980                 2.1413                 5.5468
 Frc consts  --      0.6184                 0.7062                 1.8618
 IR Inten    --      6.1659                75.9727                16.3729

                     40                     41                     42
                      A                      A                      A
 Frequencies --    816.4273               836.2285               890.9431
 Red. masses --      1.6752                 6.4284                 5.2285
 Frc consts  --      0.6579                 2.6485                 2.4453
 IR Inten    --     35.4367                33.9644                17.0411

                     43                     44                     45
                      A                      A                      A
 Frequencies --    913.2577               924.1891               965.4664
 Red. masses --      1.4001                 1.4408                 5.0671
 Frc consts  --      0.6880                 0.7250                 2.7828
 IR Inten    --      4.6136                21.5540                15.6546

                     46                     47                     48
                      A                      A                      A
 Frequencies --    978.1235               991.2877              1013.6993
 Red. masses --      4.9335                 1.2775                 6.0920
 Frc consts  --      2.7809                 0.7396                 3.6883
 IR Inten    --      0.3023                 1.1955                 1.5448

                     49                     50                     51
                      A                      A                      A
 Frequencies --   1045.0778              1055.9459              1069.4371
 Red. masses --      2.4221                 1.9421                 1.6659
 Frc consts  --      1.5586                 1.2759                 1.1226
 IR Inten    --      3.7291                48.8186                16.0078

                     52                     53                     54
                      A                      A                      A
 Frequencies --   1091.8021              1093.3991              1125.8778
 Red. masses --      1.5726                 1.5478                 1.5507
 Frc consts  --      1.1044                 1.0902                 1.1581
 IR Inten    --     21.1016                 1.5909                16.0644

                     55                     56                     57
                      A                      A                      A
 Frequencies --   1135.9973              1193.9538              1213.0118
 Red. masses --      1.5706                 1.1129                 1.6468
 Frc consts  --      1.1942                 0.9347                 1.4276
 IR Inten    --     15.4148                 0.2609                 3.4124

                     58                     59                     60
                      A                      A                      A
 Frequencies --   1267.6023              1304.0878              1314.9799
 Red. masses --      3.2986                 2.5401                 4.0810
 Frc consts  --      3.1228                 2.5452                 4.1577
 IR Inten    --     31.5544                42.8695               519.4530

                     61                     62                     63
                      A                      A                      A
 Frequencies --   1321.6119              1340.8034              1374.0667
 Red. masses --      1.9208                 3.8805                 3.7596
 Frc consts  --      1.9767                 4.1103                 4.1823
 IR Inten    --      3.3566                45.0862                47.3521

                     64                     65                     66
                      A                      A                      A
 Frequencies --   1432.6616              1444.5725              1478.8433
 Red. masses --      1.2254                 1.6370                 3.8141
 Frc consts  --      1.4819                 2.0127                 4.9146
 IR Inten    --     65.8634               236.4351               316.7296

                     67                     68                     69
                      A                      A                      A
 Frequencies --   1496.5034              1512.9668              1522.7963
 Red. masses --      1.0495                 2.3428                 1.2270
 Frc consts  --      1.3848                 3.1597                 1.6764
 IR Inten    --     12.9930                61.4706               124.8933

                     70                     71                     72
                      A                      A                      A
 Frequencies --   1560.2878              1569.6705              1581.0439
 Red. masses --      3.5094                 3.2212                 2.1181
 Frc consts  --      5.0338                 4.6761                 3.1195
 IR Inten    --      8.5493               109.4502               126.4211

                     73                     74                     75
                      A                      A                      A
 Frequencies --   1601.1764              1616.6205              1641.7999
 Red. masses --      2.1817                 2.0182                 1.4495
 Frc consts  --      3.2955                 3.1077                 2.3021
 IR Inten    --    415.8798               667.1710               640.1968

                     76                     77                     78
                      A                      A                      A
 Frequencies --   1644.5554              1667.0061              1702.4780
 Red. masses --      4.8839                 4.2158                 3.2154
 Frc consts  --      7.7824                 6.9025                 5.4909
 IR Inten    --    183.5648                73.6491              1053.0101

                     79                     80                     81
                      A                      A                      A
 Frequencies --   1742.5250              3090.7072              3156.5362
 Red. masses --      5.4664                 1.0362                 1.1012
 Frc consts  --      9.7793                 5.8322                 6.4647
 IR Inten    --    338.8468                 9.1950                10.0970

                     82                     83                     84
                      A                      A                      A
 Frequencies --   3180.7854              3203.3929              3218.6211
 Red. masses --      1.1037                 1.0881                 1.0939
 Frc consts  --      6.5794                 6.5790                 6.6769
 IR Inten    --     25.4942                14.7452                42.8186

                     85                     86                     87
                      A                      A                      A
 Frequencies --   3248.8664              3273.3990              3305.6782
 Red. masses --      1.0920                 1.0902                 1.0946
 Frc consts  --      6.7911                 6.8829                 7.0473
 IR Inten    --      8.4036                 4.7868                 6.1227

                     88                     89                     90
                      A                      A                      A
 Frequencies --   3524.8079              3529.8084              3541.1527
 Red. masses --      1.0458                 1.0650                 1.0625
 Frc consts  --      7.6557                 7.8183                 7.8500
 IR Inten    --    415.4862               236.7786               273.2489

                     91                     92                     93
                      A                      A                      A
 Frequencies --   3578.1297              3629.0148              3647.8898
 Red. masses --      1.0782                 1.1052                 1.1075
 Frc consts  --      8.1335                 8.5754                 8.6829
 IR Inten    --    117.3948               239.6897               272.7557

 - Thermochemistry -
 -------------------
 Temperature   298.150 Kelvin.  Pressure   1.00000 Atm.
 Atom     1 has atomic number  6 and mass  12.00000

 Molecular mass:   276.09191 amu.
 Principal axes and moments of inertia in atomic units:
                           1         2         3
     Eigenvalues --  2026.30063********************
           X            0.99999  -0.00357  -0.00036
           Y            0.00357   0.99997  -0.00686
           Z            0.00038   0.00686   0.99998
 This molecule is an asymmetric top.
 Rotational symmetry number  1.
 Warning -- assumption of classical behavior for rotation
           may cause significant error
 Rotational temperatures (Kelvin)      0.04274     0.00640     0.00560
 Rotational constants (GHZ):           0.89066     0.13336     0.11677
 Zero-point vibrational energy     684569.3 (Joules/Mol)
                                  163.61599 (Kcal/Mol)
 Warning -- explicit consideration of  30 degrees of freedom as
           vibrations may cause significant error
 Vibrational temperatures:     40.06    62.21    77.65    81.03    94.37
          (Kelvin)            133.55   142.10   172.56   187.05   268.54
                              348.48   358.60   385.86   404.38   476.21
                              492.68   507.90   521.92   557.14   642.34
                              660.52   686.83   699.03   783.62   787.26
                              804.36   822.23   836.47   860.96   880.74
                              922.23   937.31   967.20   977.37  1005.15
                             1009.20  1017.64  1076.42  1085.95  1174.66
                             1203.15  1281.87  1313.97  1329.70  1389.09
                             1407.30  1426.24  1458.49  1503.63  1519.27
                             1538.68  1570.86  1573.16  1619.89  1634.45
                             1717.83  1745.25  1823.80  1876.29  1891.96
                             1901.50  1929.12  1976.98  2061.28  2078.42
                             2127.73  2153.13  2176.82  2190.96  2244.91
                             2258.41  2274.77  2303.74  2325.96  2362.18
                             2366.15  2398.45  2449.49  2507.10  4446.84
                             4541.55  4576.44  4608.97  4630.88  4674.39
                             4709.69  4756.13  5071.41  5078.61  5094.93
                             5148.13  5221.34  5248.50

 Zero-point correction=                           0.260739 (Hartree/Particle)
 Thermal correction to Energy=                    0.278932
 Thermal correction to Enthalpy=                  0.279876
 Thermal correction to Gibbs Free Energy=         0.212943
 Sum of electronic and zero-point Energies=          -1212.556646
 Sum of electronic and thermal Energies=             -1212.538453
 Sum of electronic and thermal Enthalpies=           -1212.537509
 Sum of electronic and thermal Free Energies=        -1212.604441

                     E (Thermal)             CV                S
                      KCal/Mol        Cal/Mol-Kelvin    Cal/Mol-Kelvin
 Total                  175.032             69.231            140.871
 Electronic               0.000              0.000              0.000
 Translational            0.889              2.981             42.745
 Rotational               0.889              2.981             34.404
 Vibrational            173.255             63.270             63.722
 Vibration     1          0.593              1.984              5.978
 Vibration     2          0.595              1.980              5.105
 Vibration     3          0.596              1.976              4.666
 Vibration     4          0.596              1.975              4.582
 Vibration     5          0.597              1.971              4.281
 Vibration     6          0.602              1.954              3.600
 Vibration     7          0.604              1.950              3.479
 Vibration     8          0.609              1.933              3.101
 Vibration     9          0.612              1.923              2.946
 Vibration    10          0.632              1.858              2.261
 Vibration    11          0.658              1.776              1.787
 Vibration    12          0.662              1.764              1.736
 Vibration    13          0.673              1.732              1.608
 Vibration    14          0.681              1.709              1.527
 Vibration    15          0.713              1.614              1.255
 Vibration    16          0.722              1.591              1.201
 Vibration    17          0.729              1.569              1.153
 Vibration    18          0.737              1.549              1.110
 Vibration    19          0.756              1.497              1.011
 Vibration    20          0.806              1.369              0.807
 Vibration    21          0.817              1.341              0.769
 Vibration    22          0.834              1.300              0.717
 Vibration    23          0.842              1.281              0.694
 Vibration    24          0.900              1.151              0.555
 Vibration    25          0.902              1.146              0.550
 Vibration    26          0.915              1.120              0.526
 Vibration    27          0.928              1.093              0.501
 Vibration    28          0.938              1.072              0.483
 Vibration    29          0.956              1.035              0.452
 Vibration    30          0.971              1.006              0.429

 Optimization completed.
    -- Stationary point found.
 Normal termination of Gaussian 16 at Sun Jul 18 16:22:42 2021.

 ----------------------------------------------------------------------
 #p b3lyp/6-31G(d) scrf=(iefpcm,read,solvent=water) geom=allcheck guess
 =read
 ----------------------------------------------------------------------

 Structure from the checkpoint file:  "SET_328_BBB321_conf1.geo_030_210_300.chk"
 ---------------------------------------------
 SET_328_BBB321_conf1.geo_030_210_300 geometry
 ---------------------------------------------
 Charge =  1 Multiplicity = 1

 SCF Done:  E(RB3LYP) =  -1212.81738437     A.U. after    1 cycles
 Normal termination of Gaussian 16 at Sun Jul 18 16:22:53 2021.

 -----------------------------
 #p B3LYP/6-31G* geom=allcheck
 -----------------------------

 Structure from the checkpoint file:  "SET_328_BBB321_conf1.geo_030_210_300.chk"
 ---------------------------------------------
 SET_328_BBB321_conf1.geo_030_210_300 geometry
 ---------------------------------------------
 Charge =  1 Multiplicity = 1

 SCF Done:  E(RB3LYP) =  -1212.68521087     A.U. after   17 cycles
 Normal termination of Gaussian 16 at Sun Jul 18 16:23:39 2021.
 Gaussian 16:  ES64L-G16RevB.01 20-Dec-2017

 --------------------------------------------------------
 #p mp2/aug-cc-pVDZ scf=tight maxdisk=180GB geom=allcheck
 --------------------------------------------------------

 Structure from the checkpoint file:  "SET_328_BBB321_conf1.geo_030_210_300.chk"
 ---------------------------------------------
 SET_328_BBB321_conf1.geo_030_210_300 geometry
 ---------------------------------------------
 Charge =  1 Multiplicity = 1

                         Standard orientation:
 ---------------------------------------------------------------------
 Center     Atomic      Atomic             Coordinates (Angstroms)
 Number     Number       Type             X           Y           Z
 ---------------------------------------------------------------------
      1          6           0        6.277246   -1.527345    0.112483
      2          1           0        6.937970   -0.661398    0.054475
      3          1           0        6.516460   -2.216535   -0.700773
      4          1           0        6.465702   -2.051686    1.052729
      5          6           0        4.803626   -1.182135    0.039079
      6          8           0        3.944533   -2.064183   -0.013810
      7          7           0        4.523364    0.156958    0.049241
      8          1           0        5.323481    0.780397    0.092636
      9          6           0        3.270772    0.803090    0.024018
     10          6           0        3.273981    2.209193    0.060768
     11          6           0        2.072387    2.908669    0.049477
     12          6           0        0.855789    2.230590    0.000611
     13          1           0       -0.081532    2.771732   -0.006926
     14          1           0        2.086076    3.992935    0.079661
     15          1           0        4.215349    2.746969    0.101212
     16          6           0        2.050345    0.118503   -0.028329
     17          1           0        2.060235   -0.961374   -0.049260
     18          6           0        0.840436    0.830295   -0.041950
     19          6           0       -0.450174    0.117705   -0.101320
     20          7           0       -1.623020    0.846349    0.032876
     21          6           0       -0.633697   -1.227771   -0.273248
     22          1           0        0.103695   -2.006702   -0.385436
     23         16           0       -2.322542   -1.628137   -0.282204
     24          6           0       -2.669357    0.078586   -0.033306
     25          7           0       -3.942496    0.633646   -0.003630
     26          6           0       -5.141220    0.018961    0.154586
     27          7           0       -6.231688    0.684844   -0.194224
     28          1           0       -6.166526    1.547544   -0.727600
     29          1           0       -7.150069    0.299169    0.003986
     30          7           0       -5.210382   -1.234194    0.616252
     31          1           0       -6.135273   -1.646882    0.712229
     32          1           0       -4.519279   -1.553040    1.290134
     33          1           0       -3.963153    1.639264   -0.172139
 ---------------------------------------------------------------------

 SCF Done:  E(RHF) =  -1207.14700588     A.U. after   17 cycles
 E2 =    -0.2817465256D+01 EUMP2 =    -0.12099644711336D+04

 The electronic state is 1-A.
 Alpha  occ. eigenvalues --  -92.12943 -20.60314 -15.81159 -15.80949 -15.80134
 Alpha  occ. eigenvalues --  -15.70793 -15.68756 -11.61448 -11.49994 -11.43889
 Alpha  occ. eigenvalues --  -11.40065 -11.38079 -11.37594 -11.34289 -11.32602
 Alpha  occ. eigenvalues --  -11.32461 -11.31947 -11.31896 -11.31075  -9.13099
 Alpha  occ. eigenvalues --   -6.81261  -6.81157  -6.80967  -1.55556  -1.45491
 Alpha  occ. eigenvalues --   -1.45214  -1.40199  -1.38252  -1.33421  -1.23629
 Alpha  occ. eigenvalues --   -1.19445  -1.16176  -1.10922  -1.10212  -1.05905
 Alpha  occ. eigenvalues --   -1.05479  -0.99455  -0.98343  -0.95054  -0.92844
 Alpha  occ. eigenvalues --   -0.90606  -0.88771  -0.87505  -0.85622  -0.85323
 Alpha  occ. eigenvalues --   -0.82272  -0.80481  -0.79178  -0.75858  -0.75079
 Alpha  occ. eigenvalues --   -0.71923  -0.71584  -0.69707  -0.69306  -0.69097
 Alpha  occ. eigenvalues --   -0.67156  -0.65584  -0.64409  -0.63259  -0.62964
 Alpha  occ. eigenvalues --   -0.62279  -0.61861  -0.60485  -0.58374  -0.57509
 Alpha  occ. eigenvalues --   -0.56413  -0.52613  -0.51018  -0.49381  -0.46759
 Alpha  occ. eigenvalues --   -0.40129  -0.38323
 Alpha virt. eigenvalues --   -0.09287  -0.06965  -0.06075  -0.05381  -0.04068
 Alpha virt. eigenvalues --   -0.03470  -0.02845  -0.02321  -0.01968  -0.01653
 Alpha virt. eigenvalues --   -0.00950  -0.00594   0.00265   0.00283   0.00960

 Mulliken charges:
               1
     1  C    0.640259
     2  H   -0.190682
     3  H    0.039292
     4  H    0.054995
     5  C    0.380857
     6  O   -0.897401
     7  N   -0.591137
     8  H   -0.041022
     9  C   -0.685274
    10  C    1.120095
    11  C    0.268407
    12  C    0.654802
    13  H   -0.671181
    14  H   -0.488137
    15  H   -0.724769
    16  C    1.120702
    17  H   -0.658897
    18  C    1.633258
    19  C   -0.230712
    20  N   -0.775401
    21  C    0.554831
    22  H   -0.621432
    23  S    0.525499
    24  C    0.465909
    25  N   -0.790584
    26  C    1.180876
    27  N   -0.250660
    28  H    0.030763
    29  H    0.034945
    30  N   -0.159138
    31  H    0.042147
    32  H    0.074344
    33  H   -0.045555
 Sum of Mulliken charges =   1.00000

 Dipole moment (field-independent basis, Debye):
    X=            -18.7226    Y=              2.0990    Z=              0.9109  Tot=             18.8619
 Quadrupole moment (field-independent basis, Debye-Ang):
   XX=             69.9976   YY=           -104.2110   ZZ=           -120.1768
   XY=              7.9577   XZ=             -3.1450   YZ=             -5.2244

 Normal termination of Gaussian 16 at Sun Jul 18 16:51:58 2021.
