 Gaussian 16, Revision B.01,

 -----------------------------------------------------------
 #p b3lyp/6-31G(d) opt freq scrf=(iefpcm,read,solvent=water)
 -----------------------------------------------------------

 ---------------------------------------------
 SET_328_BBB292_conf1.geo_270_300_120 geometry
 ---------------------------------------------
 Symbolic Z-matrix:
 Charge =  1 Multiplicity = 1

 SCF Done:  E(RB3LYP) =  -705.617251645     A.U. after   13 cycles
 SCF Done:  E(RB3LYP) =  -705.673758629     A.U. after   12 cycles
 SCF Done:  E(RB3LYP) =  -705.699651088     A.U. after   12 cycles
 SCF Done:  E(RB3LYP) =  -705.703971970     A.U. after   11 cycles
 SCF Done:  E(RB3LYP) =  -705.704748698     A.U. after   11 cycles
 SCF Done:  E(RB3LYP) =  -705.705085268     A.U. after   10 cycles
 SCF Done:  E(RB3LYP) =  -705.705104268     A.U. after   10 cycles
 SCF Done:  E(RB3LYP) =  -705.705206006     A.U. after   10 cycles
 SCF Done:  E(RB3LYP) =  -705.705208334     A.U. after    9 cycles
 SCF Done:  E(RB3LYP) =  -705.705212188     A.U. after   10 cycles
 SCF Done:  E(RB3LYP) =  -705.705228861     A.U. after    9 cycles
 SCF Done:  E(RB3LYP) =  -705.705225652     A.U. after    8 cycles
 SCF Done:  E(RB3LYP) =  -705.705230350     A.U. after    8 cycles
 SCF Done:  E(RB3LYP) =  -705.705229761     A.U. after    7 cycles
 SCF Done:  E(RB3LYP) =  -705.705228348     A.U. after    7 cycles
 Optimization completed.
    -- Stationary point found.
 Normal termination of Gaussian 16 at Sun Jul 18 13:58:54 2021.

 --------------------------------------------------------------------
 #P Geom=AllCheck Guess=TCheck SCRF=Check GenChk RB3LYP/6-31G(d) Freq
 --------------------------------------------------------------------

 Structure from the checkpoint file:  "SET_328_BBB292_conf1.geo_270_300_120.chk"
 ---------------------------------------------
 SET_328_BBB292_conf1.geo_270_300_120 geometry
 ---------------------------------------------
 Charge =  1 Multiplicity = 1

 SCF Done:  E(RB3LYP) =  -705.705228348     A.U. after    1 cycles

  Exact polarizability: 173.353   2.838 157.676  31.911   3.901 101.190
 Approx polarizability: 192.669   6.699 188.627  40.659   7.272 119.169

 ******    1 imaginary frequencies (negative Signs) ******

                      1                      2                      3
                      A                      A                      A
 Frequencies --   -102.6349                46.4122                55.8410
 Red. masses --      1.1623                 5.7265                 7.3794
 Frc consts  --      0.0072                 0.0073                 0.0136
 IR Inten    --    327.9368                20.5268                36.2693

                      4                      5                      6
                      A                      A                      A
 Frequencies --     75.3586               115.4016               149.4571
 Red. masses --      6.3132                 5.8646                 5.8095
 Frc consts  --      0.0211                 0.0460                 0.0765
 IR Inten    --      6.4529                11.2432                 7.0976

                      7                      8                      9
                      A                      A                      A
 Frequencies --    195.9186               232.8973               256.9479
 Red. masses --      5.9554                 4.2609                 4.0327
 Frc consts  --      0.1347                 0.1362                 0.1569
 IR Inten    --     30.8067                12.6008                67.3292

                     10                     11                     12
                      A                      A                      A
 Frequencies --    296.0407               338.5015               359.6382
 Red. masses --      2.8935                 3.8189                 1.7322
 Frc consts  --      0.1494                 0.2578                 0.1320
 IR Inten    --      9.1718                12.5493                27.9985

                     13                     14                     15
                      A                      A                      A
 Frequencies --    366.7177               411.8473               447.9427
 Red. masses --      1.4501                 3.2483                 3.6084
 Frc consts  --      0.1149                 0.3246                 0.4266
 IR Inten    --      9.3335                17.7713                 2.5321

                     16                     17                     18
                      A                      A                      A
 Frequencies --    472.5522               475.5364               495.5417
 Red. masses --      2.1436                 1.3441                 1.6514
 Frc consts  --      0.2820                 0.1791                 0.2389
 IR Inten    --     36.6429                72.1960                85.8248

                     19                     20                     21
                      A                      A                      A
 Frequencies --    508.4510               552.9394               586.0893
 Red. masses --      4.1673                 4.0681                 4.9015
 Frc consts  --      0.6347                 0.7328                 0.9920
 IR Inten    --     15.6240                28.1823                 0.4964

                     22                     23                     24
                      A                      A                      A
 Frequencies --    604.9500               647.8048               707.8140
 Red. masses --      3.7329                 4.4600                 5.2662
 Frc consts  --      0.8049                 1.1027                 1.5545
 IR Inten    --     18.0991                 4.8985                 2.5098

                     25                     26                     27
                      A                      A                      A
 Frequencies --    727.1681               774.0946               789.4479
 Red. masses --      4.9768                 4.4007                 5.3115
 Frc consts  --      1.5505                 1.5537                 1.9503
 IR Inten    --      2.7718                32.7043                40.7478

                     28                     29                     30
                      A                      A                      A
 Frequencies --    834.4563               850.4095               895.1137
 Red. masses --      1.8915                 2.0879                 1.8849
 Frc consts  --      0.7760                 0.8896                 0.8898
 IR Inten    --     16.5195                25.6790                46.4000

                     31                     32                     33
                      A                      A                      A
 Frequencies --    901.8827               934.4350               954.4928
 Red. masses --      1.7512                 2.5324                 1.2910
 Frc consts  --      0.8392                 1.3028                 0.6930
 IR Inten    --     17.6503                29.3313                 1.0138

                     34                     35                     36
                      A                      A                      A
 Frequencies --    983.7871              1051.5299              1112.7018
 Red. masses --      2.3395                 2.3232                 1.4058
 Frc consts  --      1.3341                 1.5135                 1.0255
 IR Inten    --     16.5864                33.9893                58.5168

                     37                     38                     39
                      A                      A                      A
 Frequencies --   1126.3009              1137.5726              1179.9225
 Red. masses --      1.6438                 1.5121                 1.9678
 Frc consts  --      1.2286                 1.1529                 1.6141
 IR Inten    --    101.9510                15.6135                60.4444

                     40                     41                     42
                      A                      A                      A
 Frequencies --   1185.3818              1219.9717              1237.1368
 Red. masses --      1.1933                 1.7786                 1.5279
 Frc consts  --      0.9879                 1.5597                 1.3777
 IR Inten    --     90.9103               327.9870                79.6153

                     43                     44                     45
                      A                      A                      A
 Frequencies --   1266.2906              1282.3347              1310.2703
 Red. masses --      2.7978                 1.2941                 1.6255
 Frc consts  --      2.6432                 1.2538                 1.6442
 IR Inten    --    122.2816                70.3542               109.9900

                     46                     47                     48
                      A                      A                      A
 Frequencies --   1324.7681              1334.6887              1352.1497
 Red. masses --      1.6762                 2.6807                 2.1883
 Frc consts  --      1.7333                 2.8136                 2.3573
 IR Inten    --    105.3106               142.7814               263.4729

                     49                     50                     51
                      A                      A                      A
 Frequencies --   1402.2998              1402.7920              1430.6553
 Red. masses --      2.2802                 1.4462                 1.4627
 Frc consts  --      2.6418                 1.6768                 1.7639
 IR Inten    --     13.8708               110.3488                43.8210

                     52                     53                     54
                      A                      A                      A
 Frequencies --   1494.2363              1506.6222              1548.2068
 Red. masses --      3.4819                 1.0982                 1.1715
 Frc consts  --      4.5804                 1.4688                 1.6545
 IR Inten    --     49.6533                37.7068               229.0667

                     55                     56                     57
                      A                      A                      A
 Frequencies --   1553.8757              1639.4200              1651.3189
 Red. masses --      3.3535                 6.0909                 1.0508
 Frc consts  --      4.7708                 9.6453                 1.6882
 IR Inten    --    272.1720                71.4909                75.0265

                     58                     59                     60
                      A                      A                      A
 Frequencies --   1663.8377              1670.7931              1828.8608
 Red. masses --      1.0414                 6.3900                 9.4552
 Frc consts  --      1.6985                10.5098                18.6329
 IR Inten    --     97.8010                11.4395               395.9762

                     61                     62                     63
                      A                      A                      A
 Frequencies --   3097.2117              3149.2759              3153.0384
 Red. masses --      1.0635                 1.1015                 1.0877
 Frc consts  --      6.0108                 6.4368                 6.3713
 IR Inten    --     26.0993                 5.0951                 6.3544

                     64                     65                     66
                      A                      A                      A
 Frequencies --   3204.2801              3209.3498              3218.8787
 Red. masses --      1.0880                 1.0908                 1.0948
 Frc consts  --      6.5817                 6.6197                 6.6835
 IR Inten    --     10.2102                16.4900                13.9990

                     67                     68                     69
                      A                      A                      A
 Frequencies --   3357.1077              3426.8933              3461.8715
 Red. masses --      1.0451                 1.0864                 1.0893
 Frc consts  --      6.9396                 7.5168                 7.6915
 IR Inten    --    143.5869               311.2220               270.1937

                     70                     71                     72
                      A                      A                      A
 Frequencies --   3708.1448              3708.5115              3749.7164
 Red. masses --      1.0666                 1.0656                 1.0663
 Frc consts  --      8.6410                 8.6350                 8.8330
 IR Inten    --    153.4165               237.2621               179.8212

 - Thermochemistry -
 -------------------
 Temperature   298.150 Kelvin.  Pressure   1.00000 Atm.
 Atom     1 has atomic number  7 and mass  14.00307

 Molecular mass:   198.07663 amu.
 Principal axes and moments of inertia in atomic units:
                           1         2         3
     Eigenvalues --  1425.333304573.524375150.37944
           X            0.99980  -0.01981   0.00299
           Y            0.01977   0.99973   0.01222
           Z           -0.00323  -0.01216   0.99992
 This molecule is an asymmetric top.
 Rotational symmetry number  1.
 Warning -- assumption of classical behavior for rotation
           may cause significant error
 Rotational temperatures (Kelvin)      0.06077     0.01894     0.01682
 Rotational constants (GHZ):           1.26619     0.39461     0.35041
    1 imaginary frequencies ignored.
 Zero-point vibrational energy     558680.6 (Joules/Mol)
                                  133.52788 (Kcal/Mol)
 Warning -- explicit consideration of  21 degrees of freedom as
           vibrations may cause significant error
 Vibrational temperatures:     66.78    80.34   108.42   166.04   215.04
          (Kelvin)            281.88   335.09   369.69   425.94   487.03
                              517.44   527.62   592.56   644.49   679.90
                              684.19   712.97   731.55   795.56   843.25
                              870.39   932.05  1018.39  1046.23  1113.75
                             1135.84  1200.60  1223.55  1287.87  1297.61
                             1344.44  1373.30  1415.45  1512.92  1600.93
                             1620.50  1636.71  1697.65  1705.50  1755.27
                             1779.96  1821.91  1844.99  1885.19  1906.05
                             1920.32  1945.44  2017.60  2018.30  2058.39
                             2149.87  2167.69  2227.52  2235.68  2358.76
                             2375.88  2393.89  2403.90  2631.32  4456.20
                             4531.11  4536.52  4610.24  4617.54  4631.25
                             4830.13  4930.54  4980.86  5335.19  5335.72
                             5395.01

 Zero-point correction=                           0.212790 (Hartree/Particle)
 Thermal correction to Energy=                    0.225645
 Thermal correction to Enthalpy=                  0.226589
 Thermal correction to Gibbs Free Energy=         0.173075
 Sum of electronic and zero-point Energies=           -705.492438
 Sum of electronic and thermal Energies=              -705.479583
 Sum of electronic and thermal Enthalpies=            -705.478639
 Sum of electronic and thermal Free Energies=         -705.532154

                     E (Thermal)             CV                S
                      KCal/Mol        Cal/Mol-Kelvin    Cal/Mol-Kelvin
 Total                  141.595             49.496            112.631
 Electronic               0.000              0.000              0.000
 Translational            0.889              2.981             41.755
 Rotational               0.889              2.981             31.885
 Vibrational            139.817             43.535             38.991
 Vibration     1          0.595              1.979              4.965
 Vibration     2          0.596              1.975              4.599
 Vibration     3          0.599              1.965              4.008
 Vibration     4          0.608              1.937              3.176
 Vibration     5          0.618              1.903              2.679
 Vibration     6          0.636              1.846              2.171
 Vibration     7          0.654              1.791              1.857
 Vibration     8          0.667              1.751              1.682
 Vibration     9          0.690              1.681              1.439
 Vibration    10          0.719              1.599              1.219
 Vibration    11          0.734              1.555              1.124
 Vibration    12          0.740              1.541              1.093
 Vibration    13          0.776              1.445              0.920
 Vibration    14          0.807              1.365              0.802
 Vibration    15          0.829              1.311              0.730
 Vibration    16          0.832              1.304              0.722
 Vibration    17          0.851              1.260              0.669
 Vibration    18          0.864              1.231              0.637
 Vibration    19          0.908              1.133              0.538
 Vibration    20          0.943              1.061              0.474
 Vibration    21          0.963              1.021              0.441

                           ! Non-Optimized Parameters !
 Normal termination of Gaussian 16 at Sun Jul 18 14:05:34 2021.

 ----------------------------------------------------------------------
 #p b3lyp/6-31G(d) scrf=(iefpcm,read,solvent=water) geom=allcheck guess
 =read
 ----------------------------------------------------------------------

 Structure from the checkpoint file:  "SET_328_BBB292_conf1.geo_270_300_120.chk"
 ---------------------------------------------
 SET_328_BBB292_conf1.geo_270_300_120 geometry
 ---------------------------------------------
 Charge =  1 Multiplicity = 1

 SCF Done:  E(RB3LYP) =  -705.705228348     A.U. after    1 cycles
 Normal termination of Gaussian 16 at Sun Jul 18 14:05:41 2021.

 -----------------------------
 #p B3LYP/6-31G* geom=allcheck
 -----------------------------

 Structure from the checkpoint file:  "SET_328_BBB292_conf1.geo_270_300_120.chk"
 ---------------------------------------------
 SET_328_BBB292_conf1.geo_270_300_120 geometry
 ---------------------------------------------
 Charge =  1 Multiplicity = 1

 SCF Done:  E(RB3LYP) =  -705.550213408     A.U. after   15 cycles
 Normal termination of Gaussian 16 at Sun Jul 18 14:06:12 2021.
 Gaussian 16:  ES64L-G16RevB.01 20-Dec-2017

 --------------------------------------------------------
 #p mp2/aug-cc-pVDZ scf=tight maxdisk=180GB geom=allcheck
 --------------------------------------------------------

 Structure from the checkpoint file:  "SET_328_BBB292_conf1.geo_270_300_120.chk"
 ---------------------------------------------
 SET_328_BBB292_conf1.geo_270_300_120 geometry
 ---------------------------------------------
 Charge =  1 Multiplicity = 1

                         Standard orientation:
 ---------------------------------------------------------------------
 Center     Atomic      Atomic             Coordinates (Angstroms)
 Number     Number       Type             X           Y           Z
 ---------------------------------------------------------------------
      1          7           0       -2.029186    1.779069    0.811938
      2          1           0       -1.900064    2.711563    0.390306
      3          1           0       -1.142836    1.545159    1.293280
      4          6           0       -2.395895    0.787201   -0.254288
      5          6           0       -2.764354   -0.603564    0.274678
      6          8           0       -2.556519   -0.940972    1.549977
      7          1           0       -2.119803   -0.257818    2.090727
      8          8           0       -3.247064   -1.404269   -0.495617
      9          1           0       -3.303348    1.177796   -0.714884
     10          6           0       -1.287977    0.706089   -1.327739
     11          1           0       -1.186073    1.700465   -1.770997
     12          1           0       -1.682193    0.048788   -2.105242
     13          6           0        0.052574    0.204540   -0.834391
     14          6           0        1.060732    1.110696   -0.479600
     15          1           0        0.912074    2.180358   -0.587037
     16          6           0        2.301147    0.664896   -0.021842
     17          8           0        3.250678    1.592766    0.296607
     18          1           0        4.124544    1.163281    0.320195
     19          6           0        2.540025   -0.715276    0.107115
     20          8           0        3.762471   -1.188793    0.523502
     21          1           0        4.061474   -0.694162    1.307672
     22          6           0        1.548131   -1.620033   -0.264483
     23          1           0        1.758374   -2.681241   -0.176585
     24          6           0        0.315114   -1.169076   -0.736707
     25          1           0       -0.441078   -1.890380   -1.030010
     26          1           0       -2.770287    1.880007    1.526806
 ---------------------------------------------------------------------

 SCF Done:  E(RHF) =  -701.560166627     A.U. after   16 cycles
 E2 =    -0.2203533629D+01 EUMP2 =    -0.70376370025603D+03

 The electronic state is 1-A.
 Alpha  occ. eigenvalues --  -20.79587 -20.72497 -20.71934 -20.71371 -15.92096
 Alpha  occ. eigenvalues --  -11.56725 -11.50883 -11.43911 -11.43038 -11.41976
 Alpha  occ. eigenvalues --  -11.39298 -11.37932 -11.37026 -11.36905  -1.63431
 Alpha  occ. eigenvalues --   -1.54237  -1.53003  -1.52574  -1.51110  -1.29556
 Alpha  occ. eigenvalues --   -1.24263  -1.15996  -1.14332  -1.07390  -1.01102
 Alpha  occ. eigenvalues --   -0.99486  -0.98154  -0.97071  -0.95354  -0.91716
 Alpha  occ. eigenvalues --   -0.88425  -0.84756  -0.82676  -0.81688  -0.80951
 Alpha  occ. eigenvalues --   -0.78890  -0.77121  -0.75562  -0.74408  -0.72931
 Alpha  occ. eigenvalues --   -0.72176  -0.71259  -0.69645  -0.69157  -0.66551
 Alpha  occ. eigenvalues --   -0.65422  -0.62512  -0.61656  -0.61202  -0.60096
 Alpha  occ. eigenvalues --   -0.46639  -0.44047
 Alpha virt. eigenvalues --   -0.12198  -0.08627  -0.07521  -0.06233  -0.04669
 Alpha virt. eigenvalues --   -0.04076  -0.03580  -0.03419  -0.03031  -0.02191
 Alpha virt. eigenvalues --   -0.01827  -0.01410  -0.01101  -0.00423  -0.00145

 Mulliken charges:
               1
     1  N   -0.627135
     2  H    0.217980
     3  H    0.288354
     4  C    0.416570
     5  C    1.332877
     6  O   -0.670690
     7  H    0.189847
     8  O   -0.785399
     9  H   -0.032745
    10  C    0.446196
    11  H   -0.183289
    12  H   -0.084706
    13  C    0.901202
    14  C    0.721117
    15  H   -0.706149
    16  C    0.298630
    17  O   -0.899492
    18  H    0.171624
    19  C    0.614792
    20  O   -0.869465
    21  H    0.143060
    22  C    0.209033
    23  H   -0.474042
    24  C    0.872840
    25  H   -0.703725
    26  H    0.212715
 Sum of Mulliken charges =   1.00000

 Dipole moment (field-independent basis, Debye):
    X=             -4.9884    Y=              9.2477    Z=              4.6054  Tot=             11.4723
 Quadrupole moment (field-independent basis, Debye-Ang):
   XX=            -53.0103   YY=            -67.2662   ZZ=            -69.8611
   XY=            -24.7867   XZ=             -2.5873   YZ=              5.5512

 Normal termination of Gaussian 16 at Sun Jul 18 14:20:55 2021.
