 Gaussian 16, Revision B.01,

 -----------------------------------------------------------
 #p b3lyp/6-31G(d) opt freq scrf=(iefpcm,read,solvent=water)
 -----------------------------------------------------------

 ---------------------------------------------
 SET_328_BBB321_conf1.geo_180_030_300 geometry
 ---------------------------------------------
 Symbolic Z-matrix:
 Charge =  1 Multiplicity = 1

 SCF Done:  E(RB3LYP) =  -1212.49318967     A.U. after   17 cycles
 SCF Done:  E(RB3LYP) =  -1212.63164627     A.U. after   13 cycles
 SCF Done:  E(RB3LYP) =  -1212.74746775     A.U. after   14 cycles
 SCF Done:  E(RB3LYP) =  -1212.77932409     A.U. after   13 cycles
 SCF Done:  E(RB3LYP) =  -1212.79954513     A.U. after   13 cycles
 SCF Done:  E(RB3LYP) =  -1212.81177777     A.U. after   13 cycles
 SCF Done:  E(RB3LYP) =  -1212.81690619     A.U. after   11 cycles
 SCF Done:  E(RB3LYP) =  -1212.81596038     A.U. after   14 cycles
 SCF Done:  E(RB3LYP) =  -1212.82083333     A.U. after   11 cycles
 SCF Done:  E(RB3LYP) =  -1212.82146036     A.U. after   11 cycles
 SCF Done:  E(RB3LYP) =  -1212.82303310     A.U. after    7 cycles
 SCF Done:  E(RB3LYP) =  -1212.82302715     A.U. after    8 cycles
 SCF Done:  E(RB3LYP) =  -1212.82302712     A.U. after    6 cycles
 SCF Done:  E(RB3LYP) =  -1212.82303261     A.U. after    8 cycles
 SCF Done:  E(RB3LYP) =  -1212.82303311     A.U. after    7 cycles
 SCF Done:  E(RB3LYP) =  -1212.82302679     A.U. after    8 cycles
 Optimization completed.
    -- Stationary point found.
 Normal termination of Gaussian 16 at Sun Jul 18 16:19:41 2021.

 --------------------------------------------------------------------
 #P Geom=AllCheck Guess=TCheck SCRF=Check GenChk RB3LYP/6-31G(d) Freq
 --------------------------------------------------------------------

 Structure from the checkpoint file:  "SET_328_BBB321_conf1.geo_180_030_300.chk"
 ---------------------------------------------
 SET_328_BBB321_conf1.geo_180_030_300 geometry
 ---------------------------------------------
 Charge =  1 Multiplicity = 1

 SCF Done:  E(RB3LYP) =  -1212.82302679     A.U. after    1 cycles

  Exact polarizability: 344.373  -4.526 327.636  -2.595  -0.062  91.002
 Approx polarizability: 379.101  -7.354 363.448  -3.435   0.022 109.104

                      1                      2                      3
                      A                      A                      A
 Frequencies --     22.8173                47.4938                61.0768
 Red. masses --      6.0213                 6.1045                 2.5873
 Frc consts  --      0.0018                 0.0081                 0.0057
 IR Inten    --      7.0983                16.5739                 7.4586

                      4                      5                      6
                      A                      A                      A
 Frequencies --     68.5111                72.0084                76.7074
 Red. masses --      1.7685                 5.0904                 4.0001
 Frc consts  --      0.0049                 0.0156                 0.0139
 IR Inten    --      7.4225                 1.3727                12.5063

                      7                      8                      9
                      A                      A                      A
 Frequencies --     93.5722               111.1056               135.3334
 Red. masses --      3.0884                 5.2294                 5.5525
 Frc consts  --      0.0159                 0.0380                 0.0599
 IR Inten    --      0.4817                 0.4033                11.0931

                     10                     11                     12
                      A                      A                      A
 Frequencies --    166.5647               219.7810               248.9584
 Red. masses --      1.1591                 5.0225                 4.5966
 Frc consts  --      0.0189                 0.1429                 0.1679
 IR Inten    --    353.7111                 3.9142                 4.6647

                     13                     14                     15
                      A                      A                      A
 Frequencies --    261.5557               279.5421               280.2388
 Red. masses --      4.5657                 5.0946                 6.4728
 Frc consts  --      0.1840                 0.2346                 0.2995
 IR Inten    --      8.7911                 4.0342                 2.1620

                     16                     17                     18
                      A                      A                      A
 Frequencies --    321.0249               334.8969               348.7613
 Red. masses --      4.1511                 5.4241                 1.3273
 Frc consts  --      0.2521                 0.3584                 0.0951
 IR Inten    --     20.2286                31.2215               330.3353

                     19                     20                     21
                      A                      A                      A
 Frequencies --    354.5975               404.1893               407.2234
 Red. masses --      5.3020                 3.8881                 1.1357
 Frc consts  --      0.3928                 0.3742                 0.1110
 IR Inten    --     11.7831                 8.5719                60.1020

                     22                     23                     24
                      A                      A                      A
 Frequencies --    453.2240               498.0591               530.0920
 Red. masses --      3.3254                 5.1965                 2.1005
 Frc consts  --      0.4025                 0.7595                 0.3478
 IR Inten    --      7.8190                 2.2611                92.8463

                     25                     26                     27
                      A                      A                      A
 Frequencies --    538.7278               547.2880               565.3919
 Red. masses --      3.9720                 2.4896                 2.2227
 Frc consts  --      0.6792                 0.4394                 0.4186
 IR Inten    --     34.0152                 2.1957               158.6696

                     28                     29                     30
                      A                      A                      A
 Frequencies --    586.6645               605.2323               621.6839
 Red. masses --      1.8839                 2.4893                 9.2970
 Frc consts  --      0.3820                 0.5372                 2.1170
 IR Inten    --      0.7909                42.9439                 1.7083

                     31                     32                     33
                      A                      A                      A
 Frequencies --    641.2579               653.5435               669.5221
 Red. masses --      1.5651                 1.1672                 6.1588
 Frc consts  --      0.3792                 0.2937                 1.6266
 IR Inten    --     41.8684                 4.5519                 8.6927

                     34                     35                     36
                      A                      A                      A
 Frequencies --    692.6110               696.5558               702.3982
 Red. masses --      5.7960                 3.4375                 2.3104
 Frc consts  --      1.6382                 0.9827                 0.6716
 IR Inten    --     17.8187                 3.7489                 6.1573

                     37                     38                     39
                      A                      A                      A
 Frequencies --    710.3405               752.1525               806.5467
 Red. masses --      2.8167                 1.7124                 1.7171
 Frc consts  --      0.8374                 0.5708                 0.6581
 IR Inten    --      0.5588                92.7557                33.7039

                     40                     41                     42
                      A                      A                      A
 Frequencies --    820.3779               870.1295               897.9521
 Red. masses --      7.3389                 6.0916                 3.2933
 Frc consts  --      2.9101                 2.7174                 1.5646
 IR Inten    --     35.5083                39.0551                 0.8355

                     43                     44                     45
                      A                      A                      A
 Frequencies --    899.7700               929.1888               973.9153
 Red. masses --      1.6094                 1.4576                 6.0037
 Frc consts  --      0.7677                 0.7415                 3.3551
 IR Inten    --      2.7847                24.0932                 8.1346

                     46                     47                     48
                      A                      A                      A
 Frequencies --    979.3833               989.9937              1010.2375
 Red. masses --      1.2736                 3.2735                 5.0651
 Frc consts  --      0.7198                 1.8903                 3.0457
 IR Inten    --      0.9146                 4.5782                19.5333

                     49                     50                     51
                      A                      A                      A
 Frequencies --   1016.3428              1042.2542              1066.4737
 Red. masses --      6.1108                 1.6827                 1.6893
 Frc consts  --      3.7190                 1.0770                 1.1320
 IR Inten    --      0.8294                18.8913                19.0621

                     52                     53                     54
                      A                      A                      A
 Frequencies --   1090.1424              1110.3025              1129.3456
 Red. masses --      1.4245                 1.7972                 1.6418
 Frc consts  --      0.9974                 1.3054                 1.2337
 IR Inten    --     13.2586                40.0913                 0.6195

                     55                     56                     57
                      A                      A                      A
 Frequencies --   1133.7230              1203.7321              1205.9797
 Red. masses --      1.8095                 1.1294                 1.7499
 Frc consts  --      1.3703                 0.9641                 1.4995
 IR Inten    --     22.4455                15.0234                41.9576

                     58                     59                     60
                      A                      A                      A
 Frequencies --   1253.1844              1274.2401              1303.6011
 Red. masses --      2.9915                 2.6048                 2.2494
 Frc consts  --      2.7680                 2.4919                 2.2522
 IR Inten    --    238.1512                37.9630               252.3035

                     61                     62                     63
                      A                      A                      A
 Frequencies --   1312.5593              1364.9491              1375.6666
 Red. masses --      2.0914                 2.8003                 5.9063
 Frc consts  --      2.1229                 3.0739                 6.5855
 IR Inten    --     49.1672                16.6638                66.9410

                     64                     65                     66
                      A                      A                      A
 Frequencies --   1422.4163              1457.7397              1490.5448
 Red. masses --      1.2730                 3.2680                 1.0774
 Frc consts  --      1.5175                 4.0917                 1.4103
 IR Inten    --     27.6009               326.1975                16.1035

                     67                     68                     69
                      A                      A                      A
 Frequencies --   1506.6802              1514.1811              1532.6805
 Red. masses --      1.0778                 1.8073                 2.4638
 Frc consts  --      1.4415                 2.4414                 3.4100
 IR Inten    --     20.0226               102.8502                75.0318

                     70                     71                     72
                      A                      A                      A
 Frequencies --   1537.3365              1563.6321              1588.1716
 Red. masses --      1.8113                 4.7465                 3.2320
 Frc consts  --      2.5222                 6.8374                 4.8031
 IR Inten    --    362.4054                95.9571               259.3820

                     73                     74                     75
                      A                      A                      A
 Frequencies --   1605.2719              1625.5634              1639.6381
 Red. masses --      2.2452                 1.7679                 1.5326
 Frc consts  --      3.4088                 2.7525                 2.4276
 IR Inten    --    299.4108               788.6440               757.6238

                     76                     77                     78
                      A                      A                      A
 Frequencies --   1645.2514              1668.0209              1719.3954
 Red. masses --      5.5744                 4.0861                 3.2684
 Frc consts  --      8.8903                 6.6983                 5.6930
 IR Inten    --    122.5267                71.7115               894.1398

                     79                     80                     81
                      A                      A                      A
 Frequencies --   1741.4830              3082.8941              3152.6769
 Red. masses --      6.0088                 1.0388                 1.0980
 Frc consts  --     10.7368                 5.8172                 6.4300
 IR Inten    --    348.8924                 7.1150                15.0611

                     82                     83                     84
                      A                      A                      A
 Frequencies --   3181.7015              3207.3687              3220.8119
 Red. masses --      1.1048                 1.0865                 1.0906
 Frc consts  --      6.5892                 6.5854                 6.6658
 IR Inten    --     19.8392                 8.7137                31.1466

                     85                     86                     87
                      A                      A                      A
 Frequencies --   3230.3253              3299.7759              3328.2675
 Red. masses --      1.0954                 1.0947                 1.0887
 Frc consts  --      6.7347                 7.0228                 7.1053
 IR Inten    --     31.1179                 5.8086                21.3022

                     88                     89                     90
                      A                      A                      A
 Frequencies --   3488.8003              3549.0881              3557.1621
 Red. masses --      1.0510                 1.0543                 1.0722
 Frc consts  --      7.5372                 7.8241                 7.9933
 IR Inten    --    444.3232               166.3297               414.5259

                     91                     92                     93
                      A                      A                      A
 Frequencies --   3607.1158              3625.2744              3662.9541
 Red. masses --      1.0778                 1.1034                 1.1096
 Frc consts  --      8.2623                 8.5441                 8.7715
 IR Inten    --    107.2132               450.7719               248.2917

 - Thermochemistry -
 -------------------
 Temperature   298.150 Kelvin.  Pressure   1.00000 Atm.
 Atom     1 has atomic number  6 and mass  12.00000

 Molecular mass:   276.09191 amu.
 Principal axes and moments of inertia in atomic units:
                           1         2         3
     Eigenvalues --  4044.768418212.22626**********
           X            0.99996   0.00854   0.00048
           Y           -0.00853   0.99996  -0.00043
           Z           -0.00048   0.00042   1.00000
 This molecule is an asymmetric top.
 Rotational symmetry number  1.
 Warning -- assumption of classical behavior for rotation
           may cause significant error
 Rotational temperatures (Kelvin)      0.02141     0.01055     0.00707
 Rotational constants (GHZ):           0.44619     0.21976     0.14742
 Zero-point vibrational energy     683623.5 (Joules/Mol)
                                  163.38993 (Kcal/Mol)
 Warning -- explicit consideration of  29 degrees of freedom as
           vibrations may cause significant error
 Vibrational temperatures:     32.83    68.33    87.88    98.57   103.60
          (Kelvin)            110.36   134.63   159.86   194.71   239.65
                              316.22   358.20   376.32   402.20   403.20
                              461.88   481.84   501.79   510.19   581.54
                              585.90   652.09   716.60   762.68   775.11
                              787.43   813.47   844.08   870.79   894.46
                              922.63   940.30   963.29   996.51  1002.19
                             1010.59  1022.02  1082.18  1160.44  1180.34
                             1251.92  1291.95  1294.57  1336.90  1401.25
                             1409.11  1424.38  1453.51  1462.29  1499.57
                             1534.42  1568.47  1597.48  1624.88  1631.17
                             1731.90  1735.14  1803.05  1833.35  1875.59
                             1888.48  1963.86  1979.28  2046.54  2097.36
                             2144.56  2167.78  2178.57  2205.19  2211.88
                             2249.72  2285.02  2309.63  2338.82  2359.07
                             2367.15  2399.91  2473.83  2505.61  4435.60
                             4536.00  4577.76  4614.69  4634.03  4647.72
                             4747.64  4788.63  5019.61  5106.35  5117.96
                             5189.84  5215.96  5270.17

 Zero-point correction=                           0.260378 (Hartree/Particle)
 Thermal correction to Energy=                    0.278885
 Thermal correction to Enthalpy=                  0.279829
 Thermal correction to Gibbs Free Energy=         0.212270
 Sum of electronic and zero-point Energies=          -1212.562648
 Sum of electronic and thermal Energies=             -1212.544142
 Sum of electronic and thermal Enthalpies=           -1212.543197
 Sum of electronic and thermal Free Energies=        -1212.610757

                     E (Thermal)             CV                S
                      KCal/Mol        Cal/Mol-Kelvin    Cal/Mol-Kelvin
 Total                  175.003             69.717            142.191
 Electronic               0.000              0.000              0.000
 Translational            0.889              2.981             42.745
 Rotational               0.889              2.981             34.363
 Vibrational            173.226             63.756             65.083
 Vibration     1          0.593              1.985              6.373
 Vibration     2          0.595              1.979              4.919
 Vibration     3          0.597              1.973              4.422
 Vibration     4          0.598              1.969              4.196
 Vibration     5          0.598              1.967              4.098
 Vibration     6          0.599              1.965              3.973
 Vibration     7          0.603              1.954              3.584
 Vibration     8          0.607              1.940              3.250
 Vibration     9          0.613              1.918              2.869
 Vibration    10          0.624              1.884              2.474
 Vibration    11          0.647              1.811              1.961
 Vibration    12          0.662              1.764              1.738
 Vibration    13          0.669              1.743              1.651
 Vibration    14          0.680              1.711              1.536
 Vibration    15          0.680              1.710              1.532
 Vibration    16          0.706              1.633              1.305
 Vibration    17          0.716              1.606              1.236
 Vibration    18          0.726              1.578              1.172
 Vibration    19          0.730              1.566              1.146
 Vibration    20          0.769              1.461              0.947
 Vibration    21          0.772              1.455              0.936
 Vibration    22          0.812              1.354              0.786
 Vibration    23          0.854              1.254              0.663
 Vibration    24          0.885              1.183              0.587
 Vibration    25          0.894              1.164              0.568
 Vibration    26          0.902              1.146              0.550
 Vibration    27          0.921              1.106              0.513
 Vibration    28          0.944              1.060              0.473
 Vibration    29          0.964              1.021              0.441

                           ! Non-Optimized Parameters !
 Normal termination of Gaussian 16 at Sun Jul 18 16:30:40 2021.

 ----------------------------------------------------------------------
 #p b3lyp/6-31G(d) scrf=(iefpcm,read,solvent=water) geom=allcheck guess
 =read
 ----------------------------------------------------------------------

 Structure from the checkpoint file:  "SET_328_BBB321_conf1.geo_180_030_300.chk"
 ---------------------------------------------
 SET_328_BBB321_conf1.geo_180_030_300 geometry
 ---------------------------------------------
 Charge =  1 Multiplicity = 1

 SCF Done:  E(RB3LYP) =  -1212.82302679     A.U. after    2 cycles
 Normal termination of Gaussian 16 at Sun Jul 18 16:30:54 2021.

 -----------------------------
 #p B3LYP/6-31G* geom=allcheck
 -----------------------------

 Structure from the checkpoint file:  "SET_328_BBB321_conf1.geo_180_030_300.chk"
 ---------------------------------------------
 SET_328_BBB321_conf1.geo_180_030_300 geometry
 ---------------------------------------------
 Charge =  1 Multiplicity = 1

 SCF Done:  E(RB3LYP) =  -1212.70329136     A.U. after   17 cycles
 Normal termination of Gaussian 16 at Sun Jul 18 16:31:44 2021.
 Gaussian 16:  ES64L-G16RevB.01 20-Dec-2017

 --------------------------------------------------------
 #p mp2/aug-cc-pVDZ scf=tight maxdisk=180GB geom=allcheck
 --------------------------------------------------------

 Structure from the checkpoint file:  "SET_328_BBB321_conf1.geo_180_030_300.chk"
 ---------------------------------------------
 SET_328_BBB321_conf1.geo_180_030_300 geometry
 ---------------------------------------------
 Charge =  1 Multiplicity = 1

                         Standard orientation:
 ---------------------------------------------------------------------
 Center     Atomic      Atomic             Coordinates (Angstroms)
 Number     Number       Type             X           Y           Z
 ---------------------------------------------------------------------
      1          6           0       -4.488554    2.940883   -0.072672
      2          1           0       -4.202395    3.849383    0.458529
      3          1           0       -5.408291    2.541024    0.357765
      4          1           0       -4.684255    3.207025   -1.116398
      5          6           0       -3.333494    1.961760   -0.018963
      6          8           0       -2.162572    2.345561   -0.028892
      7          7           0       -3.705345    0.643927    0.010549
      8          1           0       -4.702648    0.461042    0.011321
      9          6           0       -2.886776   -0.502231    0.017078
     10          6           0       -3.516632   -1.756396    0.043762
     11          6           0       -2.747154   -2.917545    0.053475
     12          6           0       -1.355851   -2.854336    0.037480
     13          1           0       -0.774871   -3.769489    0.048376
     14          1           0       -3.241844   -3.882844    0.074957
     15          1           0       -4.599781   -1.820863    0.057607
     16          6           0       -1.488537   -0.433953    0.000225
     17          1           0       -1.010162    0.529291   -0.021876
     18          6           0       -0.718245   -1.603900    0.010338
     19          6           0        0.751674   -1.490989   -0.008484
     20          7           0        1.334629   -0.228637    0.002176
     21          6           0        1.645347   -2.525658   -0.038427
     22          1           0        1.453799   -3.587686   -0.055617
     23         16           0        3.279225   -1.938636   -0.052362
     24          6           0        2.632931   -0.303902   -0.017661
     25          7           0        3.495999    0.778598   -0.011941
     26          6           0        3.144857    2.098399    0.034795
     27          7           0        4.126072    2.995132    0.024056
     28          1           0        3.911553    3.985746    0.071531
     29          1           0        5.098239    2.705107    0.004902
     30          7           0        1.874338    2.464572    0.086848
     31          1           0        1.145466    1.753282    0.077110
     32          1           0        1.635786    3.451053    0.111267
     33          1           0        4.495128    0.583686   -0.038039
 ---------------------------------------------------------------------

 SCF Done:  E(RHF) =  -1207.16607318     A.U. after   18 cycles
 E2 =    -0.2816331768D+01 EUMP2 =    -0.12099824049464D+04

 The electronic state is 1-A.
 Alpha  occ. eigenvalues --  -92.12796 -20.62424 -15.80746 -15.79168 -15.77402
 Alpha  occ. eigenvalues --  -15.71210 -15.70147 -11.59652 -11.50690 -11.45794
 Alpha  occ. eigenvalues --  -11.40663 -11.38562 -11.38559 -11.35293 -11.33570
 Alpha  occ. eigenvalues --  -11.33335 -11.33146 -11.32706 -11.32649  -9.12964
 Alpha  occ. eigenvalues --   -6.81127  -6.81022  -6.80827  -1.54219  -1.47531
 Alpha  occ. eigenvalues --   -1.44616  -1.38495  -1.37862  -1.34898  -1.24608
 Alpha  occ. eigenvalues --   -1.19747  -1.16653  -1.12165  -1.10620  -1.07271
 Alpha  occ. eigenvalues --   -1.04677  -0.98759  -0.97898  -0.94842  -0.94365
 Alpha  occ. eigenvalues --   -0.90836  -0.87535  -0.87111  -0.84779  -0.84487
 Alpha  occ. eigenvalues --   -0.82418  -0.81006  -0.80405  -0.77101  -0.76561
 Alpha  occ. eigenvalues --   -0.73112  -0.71467  -0.70817  -0.70684  -0.69401
 Alpha  occ. eigenvalues --   -0.68491  -0.67509  -0.64464  -0.64138  -0.63812
 Alpha  occ. eigenvalues --   -0.62548  -0.60866  -0.60190  -0.59965  -0.58770
 Alpha  occ. eigenvalues --   -0.57253  -0.53703  -0.52009  -0.51259  -0.47184
 Alpha  occ. eigenvalues --   -0.41202  -0.39027
 Alpha virt. eigenvalues --   -0.08449  -0.06210  -0.04441  -0.04018  -0.03569
 Alpha virt. eigenvalues --   -0.03289  -0.02817  -0.02343  -0.01926  -0.01604
 Alpha virt. eigenvalues --   -0.01279  -0.00745  -0.00522  -0.00161   0.00316

 Mulliken charges:
               1
     1  C    0.525516
     2  H   -0.008773
     3  H   -0.101859
     4  H    0.077459
     5  C    0.434911
     6  O   -0.905177
     7  N   -0.682456
     8  H   -0.041001
     9  C   -0.412084
    10  C    1.061511
    11  C   -0.101577
    12  C    0.495203
    13  H   -0.646374
    14  H   -0.489760
    15  H   -0.687406
    16  C    1.426094
    17  H   -0.659509
    18  C    2.111083
    19  C   -1.393681
    20  N   -0.605297
    21  C    0.736380
    22  H   -0.591700
    23  S    0.456634
    24  C    0.603364
    25  N   -0.710963
    26  C    1.337192
    27  N   -0.261767
    28  H    0.026974
    29  H   -0.005661
    30  N   -0.087944
    31  H    0.095381
    32  H    0.015048
    33  H   -0.009759
 Sum of Mulliken charges =   1.00000

 Dipole moment (field-independent basis, Debye):
    X=              9.0826    Y=              6.2480    Z=              0.1084  Tot=             11.0247
 Quadrupole moment (field-independent basis, Debye-Ang):
   XX=            -14.8303   YY=            -67.4961   ZZ=           -124.5685
   XY=             26.6542   XZ=              0.3933   YZ=              0.6970

 Normal termination of Gaussian 16 at Sun Jul 18 17:06:16 2021.
