 Gaussian 16, Revision B.01,

 -----------------------------------------------------------
 #p b3lyp/6-31G(d) opt freq scrf=(iefpcm,read,solvent=water)
 -----------------------------------------------------------

 ---------------------------------------------
 SET_328_BBB301_conf1.geo_090_105_105 geometry
 ---------------------------------------------
 Symbolic Z-matrix:
 Charge =  1 Multiplicity = 1

 SCF Done:  E(RB3LYP) =  -788.841243301     A.U. after   12 cycles
 SCF Done:  E(RB3LYP) =  -788.882013604     A.U. after   11 cycles
 SCF Done:  E(RB3LYP) =  -788.905326408     A.U. after   11 cycles
 SCF Done:  E(RB3LYP) =  -788.913520808     A.U. after   11 cycles
 SCF Done:  E(RB3LYP) =  -788.917826765     A.U. after   10 cycles
 SCF Done:  E(RB3LYP) =  -788.921039244     A.U. after   11 cycles
 SCF Done:  E(RB3LYP) =  -788.921709412     A.U. after   10 cycles
 SCF Done:  E(RB3LYP) =  -788.922099065     A.U. after    9 cycles
 SCF Done:  E(RB3LYP) =  -788.922502800     A.U. after   10 cycles
 SCF Done:  E(RB3LYP) =  -788.922626720     A.U. after   10 cycles
 SCF Done:  E(RB3LYP) =  -788.924833794     A.U. after    9 cycles
 SCF Done:  E(RB3LYP) =  -788.924830097     A.U. after    9 cycles
 SCF Done:  E(RB3LYP) =  -788.924849907     A.U. after    8 cycles
 SCF Done:  E(RB3LYP) =  -788.924848195     A.U. after    8 cycles
 SCF Done:  E(RB3LYP) =  -788.924852341     A.U. after    8 cycles
 SCF Done:  E(RB3LYP) =  -788.924850477     A.U. after    7 cycles
 Optimization completed.
    -- Stationary point found.
 Normal termination of Gaussian 16 at Sun Jul 18 15:14:26 2021.

 --------------------------------------------------------------------
 #P Geom=AllCheck Guess=TCheck SCRF=Check GenChk RB3LYP/6-31G(d) Freq
 --------------------------------------------------------------------

 Structure from the checkpoint file:  "SET_328_BBB301_conf1.geo_090_105_105.chk"
 ---------------------------------------------
 SET_328_BBB301_conf1.geo_090_105_105 geometry
 ---------------------------------------------
 Charge =  1 Multiplicity = 1

 SCF Done:  E(RB3LYP) =  -788.924850477     A.U. after    1 cycles

  Exact polarizability: 224.025  19.677 202.008 -27.536  24.925 172.418
 Approx polarizability: 237.914  24.421 223.599 -33.826  29.006 191.049

 ******    1 imaginary frequencies (negative Signs) ******

                      1                      2                      3
                      A                      A                      A
 Frequencies --    -14.7946                34.7554                45.7745
 Red. masses --      4.5093                 3.9151                 3.3756
 Frc consts  --      0.0006                 0.0028                 0.0042
 IR Inten    --      4.6269                 1.1470                 5.8020

                      4                      5                      6
                      A                      A                      A
 Frequencies --     85.3754               106.1726               125.6613
 Red. masses --      3.4900                 3.8118                 3.4341
 Frc consts  --      0.0150                 0.0253                 0.0319
 IR Inten    --     14.0844                 8.0271                 3.0707

                      7                      8                      9
                      A                      A                      A
 Frequencies --    141.0719               161.6341               196.3217
 Red. masses --      3.6821                 4.3485                 2.2215
 Frc consts  --      0.0432                 0.0669                 0.0504
 IR Inten    --      4.0722                14.2192                 4.7397

                     10                     11                     12
                      A                      A                      A
 Frequencies --    202.5662               231.5425               260.4270
 Red. masses --      3.3741                 1.2084                 2.9140
 Frc consts  --      0.0816                 0.0382                 0.1164
 IR Inten    --      6.7556                 0.4416                 9.4058

                     13                     14                     15
                      A                      A                      A
 Frequencies --    267.7142               285.7564               307.1443
 Red. masses --      1.1396                 1.1297                 3.3375
 Frc consts  --      0.0481                 0.0544                 0.1855
 IR Inten    --      2.4810                 2.2980                11.5168

                     16                     17                     18
                      A                      A                      A
 Frequencies --    321.7927               332.2916               340.1460
 Red. masses --      3.5737                 2.3827                 2.2657
 Frc consts  --      0.2180                 0.1550                 0.1544
 IR Inten    --      1.5686                 3.3292                 5.4522

                     19                     20                     21
                      A                      A                      A
 Frequencies --    370.2794               377.9791               407.3850
 Red. masses --      2.4041                 1.3382                 2.9394
 Frc consts  --      0.1942                 0.1126                 0.2874
 IR Inten    --    115.4855               202.2869                42.6623

                     22                     23                     24
                      A                      A                      A
 Frequencies --    423.6464               431.1822               438.0317
 Red. masses --      1.2107                 2.4075                 1.9931
 Frc consts  --      0.1280                 0.2637                 0.2253
 IR Inten    --    128.8424                60.2986                95.4937

                     25                     26                     27
                      A                      A                      A
 Frequencies --    443.7948               468.1055               476.8388
 Red. masses --      1.7665                 2.4393                 2.7477
 Frc consts  --      0.2050                 0.3149                 0.3681
 IR Inten    --     42.8425                47.3205                12.8458

                     28                     29                     30
                      A                      A                      A
 Frequencies --    478.1647               562.9367               570.8016
 Red. masses --      2.8708                 3.5383                 4.5768
 Frc consts  --      0.3867                 0.6606                 0.8786
 IR Inten    --     14.2719                13.7997                24.1929

                     31                     32                     33
                      A                      A                      A
 Frequencies --    630.2608               683.3565               713.7593
 Red. masses --      4.8423                 4.9826                 3.9612
 Frc consts  --      1.1333                 1.3709                 1.1890
 IR Inten    --     19.2059                11.2144                 4.0802

                     34                     35                     36
                      A                      A                      A
 Frequencies --    756.6525               780.9569               801.1984
 Red. masses --      3.9774                 4.1891                 2.9965
 Frc consts  --      1.3417                 1.5053                 1.1333
 IR Inten    --     19.2403                17.3744                23.3702

                     37                     38                     39
                      A                      A                      A
 Frequencies --    824.9220               837.2251               891.2508
 Red. masses --      1.3482                 1.5519                 2.6535
 Frc consts  --      0.5406                 0.6409                 1.2418
 IR Inten    --     17.0523                28.2202                22.2446

                     40                     41                     42
                      A                      A                      A
 Frequencies --    899.7412               924.0196               950.1344
 Red. masses --      3.9515                 1.4723                 2.4460
 Frc consts  --      1.8847                 0.7407                 1.3010
 IR Inten    --      5.5049                 4.9077                13.8018

                     43                     44                     45
                      A                      A                      A
 Frequencies --    953.8530               962.6440               972.5577
 Red. masses --      1.6328                 1.5577                 1.3372
 Frc consts  --      0.8753                 0.8505                 0.7452
 IR Inten    --      3.0963                 0.0761                 9.2556

                     46                     47                     48
                      A                      A                      A
 Frequencies --    988.9338               998.4627              1013.8105
 Red. masses --      1.6273                 1.3561                 2.3281
 Frc consts  --      0.9377                 0.7965                 1.4099
 IR Inten    --     39.1320                 4.5615                49.3719

                     49                     50                     51
                      A                      A                      A
 Frequencies --   1046.8133              1051.0066              1083.7147
 Red. masses --      4.2267                 2.2200                 1.5178
 Frc consts  --      2.7289                 1.4448                 1.0503
 IR Inten    --     71.4690                73.5823                15.4517

                     52                     53                     54
                      A                      A                      A
 Frequencies --   1093.9650              1120.7592              1140.3075
 Red. masses --      2.0874                 2.2471                 2.1992
 Frc consts  --      1.4719                 1.6630                 1.6849
 IR Inten    --     48.0565                56.3523               180.8505

                     55                     56                     57
                      A                      A                      A
 Frequencies --   1181.3799              1216.5292              1222.4720
 Red. masses --      1.4029                 1.1558                 1.5071
 Frc consts  --      1.1536                 1.0078                 1.3270
 IR Inten    --     31.7734               136.5167               113.8200

                     58                     59                     60
                      A                      A                      A
 Frequencies --   1230.6608              1247.7801              1271.3701
 Red. masses --      2.1112                 1.5163                 1.9253
 Frc consts  --      1.8839                 1.3910                 1.8336
 IR Inten    --     95.3821                38.5114                16.3057

                     61                     62                     63
                      A                      A                      A
 Frequencies --   1272.5931              1291.4116              1298.9522
 Red. masses --      2.0275                 1.9719                 2.9537
 Frc consts  --      1.9346                 1.9376                 2.9363
 IR Inten    --      8.6464                58.7691               130.4842

                     64                     65                     66
                      A                      A                      A
 Frequencies --   1331.6577              1343.5762              1361.7000
 Red. masses --      1.6271                 1.4685                 1.6940
 Frc consts  --      1.7000                 1.5619                 1.8507
 IR Inten    --      9.6440                34.3394                58.5132

                     67                     68                     69
                      A                      A                      A
 Frequencies --   1385.8548              1388.2154              1403.3096
 Red. masses --      1.6553                 1.7680                 1.3139
 Frc consts  --      1.8731                 2.0075                 1.5245
 IR Inten    --     46.5035                44.4918                25.9566

                     70                     71                     72
                      A                      A                      A
 Frequencies --   1431.2960              1437.2429              1441.7703
 Red. masses --      1.3428                 1.2102                 1.2560
 Frc consts  --      1.6207                 1.4729                 1.5383
 IR Inten    --     30.1517               181.4440                29.4147

                     73                     74                     75
                      A                      A                      A
 Frequencies --   1444.8320              1463.0006              1475.5332
 Red. masses --      1.2449                 1.2265                 2.8749
 Frc consts  --      1.5311                 1.5467                 3.6878
 IR Inten    --     44.4503                36.4680                29.2751

                     76                     77                     78
                      A                      A                      A
 Frequencies --   1484.1017              1502.8716              1506.6289
 Red. masses --      1.1006                 1.0452                 1.0469
 Frc consts  --      1.4282                 1.3908                 1.4001
 IR Inten    --     12.5265                 0.6254                 1.0668

                     79                     80                     81
                      A                      A                      A
 Frequencies --   1513.4880              1517.0962              1520.7316
 Red. masses --      1.0617                 1.0960                 1.0709
 Frc consts  --      1.4329                 1.4863                 1.4592
 IR Inten    --      7.2280                 0.8176                15.2975

                     82                     83                     84
                      A                      A                      A
 Frequencies --   1525.4708              1535.1349              1544.5711
 Red. masses --      1.0695                 1.0702                 1.1106
 Frc consts  --      1.4663                 1.4859                 1.5611
 IR Inten    --     55.1729                 6.0686                45.7761

                     85                     86                     87
                      A                      A                      A
 Frequencies --   1555.3795              1590.0728              1620.1705
 Red. masses --      2.6884                 1.1342                 1.0716
 Frc consts  --      3.8320                 1.6896                 1.6573
 IR Inten    --     89.3154                57.1266               117.0472

                     88                     89                     90
                      A                      A                      A
 Frequencies --   1654.4485              1670.0311              3017.0011
 Red. masses --      6.0905                 6.0370                 1.0694
 Frc consts  --      9.8222                 9.9202                 5.7351
 IR Inten    --     11.1878                62.5642                97.7310

                     91                     92                     93
                      A                      A                      A
 Frequencies --   3066.9306              3076.1805              3078.7071
 Red. masses --      1.0845                 1.0352                 1.0355
 Frc consts  --      6.0103                 5.7718                 5.7830
 IR Inten    --     38.6578                23.0075                25.0294

                     94                     95                     96
                      A                      A                      A
 Frequencies --   3085.1319              3112.3768              3149.7211
 Red. masses --      1.0370                 1.0946                 1.1022
 Frc consts  --      5.8156                 6.2473                 6.4428
 IR Inten    --      1.9081                54.7038                 8.7890

                     97                     98                     99
                      A                      A                      A
 Frequencies --   3150.1839              3151.9958              3152.9767
 Red. masses --      1.1014                 1.1026                 1.0997
 Frc consts  --      6.4399                 6.4539                 6.4410
 IR Inten    --     35.0277                 6.6552                35.2456

                    100                    101                    102
                      A                      A                      A
 Frequencies --   3158.3747              3161.7383              3164.2726
 Red. masses --      1.0963                 1.0874                 1.0847
 Frc consts  --      6.4431                 6.4046                 6.3988
 IR Inten    --      1.5864                50.2085                44.4776

                    103                    104                    105
                      A                      A                      A
 Frequencies --   3191.8949              3209.5957              3220.9602
 Red. masses --      1.0891                 1.0897                 1.1080
 Frc consts  --      6.5373                 6.6137                 6.7725
 IR Inten    --     32.3365                14.7361                12.6464

                    106                    107                    108
                      A                      A                      A
 Frequencies --   3230.7716              3369.8045              3415.1741
 Red. masses --      1.0921                 1.0546                 1.0946
 Frc consts  --      6.7164                 7.0561                 7.5217
 IR Inten    --     13.6914                99.9209               165.2966

                    109                    110                    111
                      A                      A                      A
 Frequencies --   3697.6202              3703.0691              3705.8816
 Red. masses --      1.0659                 1.0660                 1.0666
 Frc consts  --      8.5867                 8.6126                 8.6304
 IR Inten    --    225.5406               101.4805                80.8643

 - Thermochemistry -
 -------------------
 Temperature   298.150 Kelvin.  Pressure   1.00000 Atm.
 Atom     1 has atomic number  6 and mass  12.00000

 Molecular mass:   240.15997 amu.
 Principal axes and moments of inertia in atomic units:
                           1         2         3
     Eigenvalues --  2673.961907291.926118779.05234
           X            0.99988  -0.01524   0.00256
           Y            0.01521   0.99981   0.01248
           Z           -0.00275  -0.01244   0.99992
 This molecule is an asymmetric top.
 Rotational symmetry number  1.
 Warning -- assumption of classical behavior for rotation
           may cause significant error
 Rotational temperatures (Kelvin)      0.03239     0.01188     0.00987
 Rotational constants (GHZ):           0.67493     0.24750     0.20557
    1 imaginary frequencies ignored.
 Zero-point vibrational energy     910162.6 (Joules/Mol)
                                  217.53407 (Kcal/Mol)
 Warning -- explicit consideration of  29 degrees of freedom as
           vibrations may cause significant error
 Vibrational temperatures:     50.01    65.86   122.84   152.76   180.80
          (Kelvin)            202.97   232.56   282.46   291.45   333.14
                              374.70   385.18   411.14   441.91   462.99
                              478.09   489.39   532.75   543.83   586.14
                              609.53   620.38   630.23   638.52   673.50
                              686.06   687.97   809.94   821.26   906.80
                              983.20  1026.94  1088.65  1123.62  1152.75
                             1186.88  1204.58  1282.31  1294.53  1329.46
                             1367.03  1372.38  1385.03  1399.29  1422.86
                             1436.57  1458.65  1506.13  1512.16  1559.22
                             1573.97  1612.52  1640.65  1699.74  1750.31
                             1758.86  1770.65  1795.28  1829.22  1830.98
                             1858.05  1868.90  1915.96  1933.11  1959.18
                             1993.94  1997.33  2019.05  2059.32  2067.87
                             2074.39  2078.79  2104.93  2122.96  2135.29
                             2162.30  2167.70  2177.57  2182.76  2187.99
                             2194.81  2208.72  2222.29  2237.84  2287.76
                             2331.06  2380.38  2402.80  4340.79  4412.63
                             4425.94  4429.57  4438.82  4478.02  4531.75
                             4532.41  4535.02  4536.43  4544.20  4549.04
                             4552.68  4592.42  4617.89  4634.24  4648.36
                             4848.40  4913.67  5320.05  5327.89  5331.94

 Zero-point correction=                           0.346663 (Hartree/Particle)
 Thermal correction to Energy=                    0.364035
 Thermal correction to Enthalpy=                  0.364979
 Thermal correction to Gibbs Free Energy=         0.302391
 Sum of electronic and zero-point Energies=           -788.578188
 Sum of electronic and thermal Energies=              -788.560816
 Sum of electronic and thermal Enthalpies=            -788.559872
 Sum of electronic and thermal Free Energies=         -788.622460

                     E (Thermal)             CV                S
                      KCal/Mol        Cal/Mol-Kelvin    Cal/Mol-Kelvin
 Total                  228.435             68.581            131.728
 Electronic               0.000              0.000              0.000
 Translational            0.889              2.981             42.330
 Rotational               0.889              2.981             33.503
 Vibrational            226.658             62.619             55.895
 Vibration     1          0.594              1.983              5.538
 Vibration     2          0.595              1.979              4.992
 Vibration     3          0.601              1.959              3.763
 Vibration     4          0.605              1.944              3.338
 Vibration     5          0.611              1.927              3.011
 Vibration     6          0.615              1.912              2.789
 Vibration     7          0.622              1.889              2.531
 Vibration     8          0.636              1.845              2.167
 Vibration     9          0.639              1.836              2.110
 Vibration    10          0.653              1.793              1.867
 Vibration    11          0.668              1.745              1.659
 Vibration    12          0.673              1.732              1.611
 Vibration    13          0.684              1.700              1.499
 Vibration    14          0.697              1.660              1.378
 Vibration    15          0.707              1.632              1.301
 Vibration    16          0.714              1.611              1.249
 Vibration    17          0.720              1.595              1.211
 Vibration    18          0.742              1.533              1.079
 Vibration    19          0.748              1.517              1.047
 Vibration    20          0.772              1.454              0.936
 Vibration    21          0.786              1.419              0.880
 Vibration    22          0.792              1.402              0.855
 Vibration    23          0.798              1.387              0.833
 Vibration    24          0.803              1.375              0.815
 Vibration    25          0.825              1.321              0.743
 Vibration    26          0.833              1.301              0.719
 Vibration    27          0.835              1.298              0.715
 Vibration    28          0.919              1.111              0.518
 Vibration    29          0.927              1.094              0.503

                           ! Non-Optimized Parameters !
 Normal termination of Gaussian 16 at Sun Jul 18 15:28:09 2021.

 ----------------------------------------------------------------------
 #p b3lyp/6-31G(d) scrf=(iefpcm,read,solvent=water) geom=allcheck guess
 =read
 ----------------------------------------------------------------------

 Structure from the checkpoint file:  "SET_328_BBB301_conf1.geo_090_105_105.chk"
 ---------------------------------------------
 SET_328_BBB301_conf1.geo_090_105_105 geometry
 ---------------------------------------------
 Charge =  1 Multiplicity = 1

 SCF Done:  E(RB3LYP) =  -788.924850477     A.U. after    1 cycles
 Normal termination of Gaussian 16 at Sun Jul 18 15:28:21 2021.

 -----------------------------
 #p B3LYP/6-31G* geom=allcheck
 -----------------------------

 Structure from the checkpoint file:  "SET_328_BBB301_conf1.geo_090_105_105.chk"
 ---------------------------------------------
 SET_328_BBB301_conf1.geo_090_105_105 geometry
 ---------------------------------------------
 Charge =  1 Multiplicity = 1

 SCF Done:  E(RB3LYP) =  -788.807263561     A.U. after   13 cycles
 Normal termination of Gaussian 16 at Sun Jul 18 15:29:08 2021.
 Gaussian 16:  ES64L-G16RevB.01 20-Dec-2017

 --------------------------------------------------------
 #p mp2/aug-cc-pVDZ scf=tight maxdisk=180GB geom=allcheck
 --------------------------------------------------------

 Structure from the checkpoint file:  "SET_328_BBB301_conf1.geo_090_105_105.chk"
 ---------------------------------------------
 SET_328_BBB301_conf1.geo_090_105_105 geometry
 ---------------------------------------------
 Charge =  1 Multiplicity = 1

                         Standard orientation:
 ---------------------------------------------------------------------
 Center     Atomic      Atomic             Coordinates (Angstroms)
 Number     Number       Type             X           Y           Z
 ---------------------------------------------------------------------
      1          6           0       -3.418472    1.332644   -1.809550
      2          1           0       -4.222690    2.066395   -1.894999
      3          1           0       -3.665902    0.481961   -2.451113
      4          1           0       -2.496802    1.794239   -2.176474
      5          6           0       -3.287484    0.905333   -0.346248
      6          6           0       -2.924394    2.094643    0.542342
      7          1           0       -1.980803    2.554057    0.232726
      8          1           0       -2.853026    1.813756    1.596346
      9          1           0       -3.711816    2.847482    0.452711
     10          6           0       -4.562678    0.214858    0.130640
     11          1           0       -5.397114    0.908701    0.012234
     12          1           0       -4.512727   -0.065309    1.185140
     13          1           0       -4.780281   -0.677389   -0.462812
     14          7           0       -2.135395   -0.110651   -0.311615
     15          1           0       -1.292820    0.350101   -0.688647
     16          6           0       -1.799143   -0.733199    1.009591
     17          1           0       -2.702194   -1.209947    1.383346
     18          1           0       -1.512659    0.068339    1.687012
     19          6           0       -0.688163   -1.789984    0.905552
     20          8           0       -1.132219   -2.933046    0.190878
     21          1           0       -1.163813   -2.716206   -0.758867
     22          1           0       -0.556465   -2.147291    1.933611
     23          6           0        0.646124   -1.251183    0.405367
     24          6           0        1.171336   -0.044933    0.892977
     25          1           0        0.612453    0.537481    1.620676
     26          6           0        2.410427    0.440391    0.484325
     27          6           0        2.982525    1.733745    1.017988
     28          8           0        3.274380    2.683111   -0.008160
     29          1           0        3.957822    2.269684   -0.565044
     30          1           0        3.884619    1.522412    1.610193
     31          1           0        2.257440    2.209212    1.684046
     32          6           0        3.148165   -0.305936   -0.451640
     33          8           0        4.355841    0.216974   -0.823945
     34          1           0        4.774805   -0.345873   -1.501703
     35          6           0        2.650593   -1.510432   -0.946213
     36          1           0        3.227368   -2.087412   -1.661263
     37          6           0        1.408892   -1.977528   -0.511846
     38          1           0        1.039048   -2.926297   -0.883876
     39          1           0       -2.367056   -0.860348   -0.981838
 ---------------------------------------------------------------------

 SCF Done:  E(RHF) =  -784.021587457     A.U. after   15 cycles
 E2 =    -0.2637221671D+01 EUMP2 =    -0.78665880912756D+03

 The electronic state is 1-A.
 Alpha  occ. eigenvalues --  -20.72140 -20.71783 -20.65040 -15.85446 -11.46346
 Alpha  occ. eigenvalues --  -11.44963 -11.44805 -11.42775 -11.38387 -11.38318
 Alpha  occ. eigenvalues --  -11.38164 -11.38093 -11.37278 -11.37121 -11.36864
 Alpha  occ. eigenvalues --  -11.36033 -11.36018  -1.52506  -1.52124  -1.47739
 Alpha  occ. eigenvalues --   -1.44295  -1.28184  -1.25307  -1.18749  -1.15980
 Alpha  occ. eigenvalues --   -1.13063  -1.10558  -1.09997  -1.02623  -1.02073
 Alpha  occ. eigenvalues --   -0.96664  -0.95632  -0.93309  -0.91289  -0.85799
 Alpha  occ. eigenvalues --   -0.84552  -0.83410  -0.82206  -0.80017  -0.78052
 Alpha  occ. eigenvalues --   -0.76863  -0.76045  -0.75267  -0.74016  -0.72865
 Alpha  occ. eigenvalues --   -0.72221  -0.71867  -0.71064  -0.69877  -0.69549
 Alpha  occ. eigenvalues --   -0.69286  -0.68489  -0.67520  -0.67099  -0.66751
 Alpha  occ. eigenvalues --   -0.64197  -0.64056  -0.63678  -0.63199  -0.60240
 Alpha  occ. eigenvalues --   -0.59542  -0.58434  -0.53627  -0.46057  -0.43291
 Alpha virt. eigenvalues --   -0.07798  -0.06083  -0.05224  -0.04875  -0.04030
 Alpha virt. eigenvalues --   -0.03666  -0.03321  -0.03101  -0.02843  -0.02487
 Alpha virt. eigenvalues --   -0.02130  -0.01579  -0.00863  -0.00771  -0.00540

 Mulliken charges:
               1
     1  C    1.351865
     2  H    0.024921
     3  H    0.008738
     4  H    0.010941
     5  C   -3.420847
     6  C    1.244767
     7  H    0.022428
     8  H   -0.019352
     9  H   -0.015706
    10  C    1.279758
    11  H    0.007053
    12  H   -0.011557
    13  H   -0.002016
    14  N   -0.621574
    15  H    0.228011
    16  C    0.931878
    17  H   -0.219168
    18  H   -0.277237
    19  C    0.904397
    20  O   -0.803254
    21  H    0.134047
    22  H   -0.127757
    23  C    0.280063
    24  C    1.358174
    25  H   -0.763048
    26  C   -0.712907
    27  C    1.167555
    28  O   -0.724954
    29  H    0.202217
    30  H    0.046040
    31  H   -0.296588
    32  C    1.143033
    33  O   -1.066844
    34  H    0.262287
    35  C    0.335788
    36  H   -0.622016
    37  C    0.289218
    38  H   -0.731722
    39  H    0.203369
 Sum of Mulliken charges =   1.00000

 Dipole moment (field-independent basis, Debye):
    X=             -7.7981    Y=             -1.0445    Z=             -2.1562  Tot=              8.1579
 Quadrupole moment (field-independent basis, Debye-Ang):
   XX=            -49.5099   YY=           -105.5626   ZZ=            -88.7297
   XY=            -16.3389   XZ=             -4.1129   YZ=              6.3968

 Normal termination of Gaussian 16 at Sun Jul 18 17:09:19 2021.
