 Gaussian 16, Revision B.01,

 -----------------------------------------------------------
 #p b3lyp/6-31G(d) opt freq scrf=(iefpcm,read,solvent=water)
 -----------------------------------------------------------

 ---------------------------------------------
 SET_328_BBB272_conf1.geo_165_045_180 geometry
 ---------------------------------------------
 Symbolic Z-matrix:
 Charge = -1 Multiplicity = 1

 SCF Done:  E(RB3LYP) =  -648.202292175     A.U. after   13 cycles
 SCF Done:  E(RB3LYP) =  -648.227931347     A.U. after   14 cycles
 SCF Done:  E(RB3LYP) =  -648.226733339     A.U. after   12 cycles
 SCF Done:  E(RB3LYP) =  -648.235148402     A.U. after   12 cycles
 SCF Done:  E(RB3LYP) =  -648.234460319     A.U. after   11 cycles
 SCF Done:  E(RB3LYP) =  -648.236545196     A.U. after   11 cycles
 SCF Done:  E(RB3LYP) =  -648.238400881     A.U. after   14 cycles
 SCF Done:  E(RB3LYP) =  -648.235027125     A.U. after   14 cycles
 SCF Done:  E(RB3LYP) =  -648.238752319     A.U. after   12 cycles
 SCF Done:  E(RB3LYP) =  -648.239359487     A.U. after   11 cycles
 SCF Done:  E(RB3LYP) =  -648.239604769     A.U. after   11 cycles
 SCF Done:  E(RB3LYP) =  -648.239636650     A.U. after   11 cycles
 SCF Done:  E(RB3LYP) =  -648.239632512     A.U. after   10 cycles
 SCF Done:  E(RB3LYP) =  -648.239650962     A.U. after    9 cycles
 SCF Done:  E(RB3LYP) =  -648.239660708     A.U. after    9 cycles
 SCF Done:  E(RB3LYP) =  -648.239662616     A.U. after    7 cycles
 Optimization completed.
    -- Stationary point found.
 Normal termination of Gaussian 16 at Sun Jul 18 13:58:09 2021.

 --------------------------------------------------------------------
 #P Geom=AllCheck Guess=TCheck SCRF=Check GenChk RB3LYP/6-31G(d) Freq
 --------------------------------------------------------------------

 Structure from the checkpoint file:  "SET_328_BBB272_conf1.geo_165_045_180.chk"
 ---------------------------------------------
 SET_328_BBB272_conf1.geo_165_045_180 geometry
 ---------------------------------------------
 Charge = -1 Multiplicity = 1

 SCF Done:  E(RB3LYP) =  -648.239662616     A.U. after    1 cycles

  Exact polarizability: 174.544  -4.800 154.394  11.541   5.695  75.217
 Approx polarizability: 195.236  -0.631 178.521  15.935   6.734  95.906

                      1                      2                      3
                      A                      A                      A
 Frequencies --     47.1780                77.5996               101.8943
 Red. masses --     11.5136                 5.7029                 4.9131
 Frc consts  --      0.0151                 0.0202                 0.0301
 IR Inten    --      0.5753                15.3014                 6.6546

                      4                      5                      6
                      A                      A                      A
 Frequencies --    115.8270               125.6863               152.7682
 Red. masses --      2.0904                 1.4761                 6.4103
 Frc consts  --      0.0165                 0.0137                 0.0881
 IR Inten    --      5.9884                 0.4954                 2.1900

                      7                      8                      9
                      A                      A                      A
 Frequencies --    237.7267               276.9702               312.8533
 Red. masses --      8.1716                 6.4991                 4.0867
 Frc consts  --      0.2721                 0.2937                 0.2357
 IR Inten    --      4.1405                 2.3145                 5.1150

                     10                     11                     12
                      A                      A                      A
 Frequencies --    368.3144               412.8194               451.2649
 Red. masses --      7.4153                 6.0744                 4.1522
 Frc consts  --      0.5927                 0.6099                 0.4982
 IR Inten    --      3.8218                12.7667                 2.7299

                     13                     14                     15
                      A                      A                      A
 Frequencies --    526.4843               542.1294               556.6450
 Red. masses --      4.3667                 4.5465                 5.0210
 Frc consts  --      0.7131                 0.7873                 0.9166
 IR Inten    --     12.1076                 8.7583                 6.3326

                     16                     17                     18
                      A                      A                      A
 Frequencies --    587.6482               660.3700               677.4520
 Red. masses --      3.6898                 6.0524                 5.8798
 Frc consts  --      0.7507                 1.5551                 1.5899
 IR Inten    --     29.1561                 9.4241                25.4764

                     19                     20                     21
                      A                      A                      A
 Frequencies --    709.3127               770.3689               809.6855
 Red. masses --      3.9550                 1.8894                 4.8067
 Frc consts  --      1.1724                 0.6607                 1.8567
 IR Inten    --     38.6085                49.0454                23.6378

                     22                     23                     24
                      A                      A                      A
 Frequencies --    812.4346               849.3708               897.6721
 Red. masses --      3.6577                 4.4547                 1.6255
 Frc consts  --      1.4225                 1.8935                 0.7718
 IR Inten    --     39.3559                47.9702                 3.6907

                     25                     26                     27
                      A                      A                      A
 Frequencies --    939.0888               972.4604              1000.5174
 Red. masses --      4.8859                 1.4082                 1.2745
 Frc consts  --      2.5387                 0.7846                 0.7517
 IR Inten    --     34.6328                 8.3615                 0.8390

                     28                     29                     30
                      A                      A                      A
 Frequencies --   1032.2198              1066.6822              1067.2768
 Red. masses --      1.7846                 2.1140                 1.7840
 Frc consts  --      1.1203                 1.4172                 1.1973
 IR Inten    --     68.4827                24.7051                15.8778

                     31                     32                     33
                      A                      A                      A
 Frequencies --   1109.1423              1165.0760              1184.7077
 Red. masses --      2.9989                 1.7663                 1.1654
 Frc consts  --      2.1737                 1.4126                 0.9637
 IR Inten    --     83.8863                 7.3557                 8.7301

                     34                     35                     36
                      A                      A                      A
 Frequencies --   1216.0381              1251.3936              1288.6357
 Red. masses --      3.7656                 3.4499                 1.5732
 Frc consts  --      3.2808                 3.1831                 1.5392
 IR Inten    --    392.7942               448.0406                 5.0695

                     37                     38                     39
                      A                      A                      A
 Frequencies --   1350.5088              1386.8079              1415.9386
 Red. masses --      9.5419                11.7879                 1.3330
 Frc consts  --     10.2537                13.3573                 1.5746
 IR Inten    --      0.8458               671.9531                98.8357

                     40                     41                     42
                      A                      A                      A
 Frequencies --   1485.8830              1489.2966              1493.8145
 Red. masses --      2.1727                 1.0579                 1.0689
 Frc consts  --      2.8264                 1.3825                 1.4053
 IR Inten    --     14.8866                19.6128                 8.5311

                     43                     44                     45
                      A                      A                      A
 Frequencies --   1516.5643              1624.6406              1656.4018
 Red. masses --      2.6033                 6.4465                 6.6597
 Frc consts  --      3.5278                10.0251                10.7656
 IR Inten    --     24.9072                63.0772                79.6157

                     46                     47                     48
                      A                      A                      A
 Frequencies --   1672.1050              1807.4134              3092.1101
 Red. masses --     10.9158                11.3797                 1.0360
 Frc consts  --     17.9817                21.9027                 5.8360
 IR Inten    --    773.9766               417.8450                 2.2302

                     49                     50                     51
                      A                      A                      A
 Frequencies --   3161.2528              3195.1183              3207.3044
 Red. masses --      1.1009                 1.1049                 1.0866
 Frc consts  --      6.4823                 6.6461                 6.5857
 IR Inten    --      6.5173                15.4809                 5.7473

                     52                     53                     54
                      A                      A                      A
 Frequencies --   3215.4657              3228.8131              3234.8263
 Red. masses --      1.0903                 1.0911                 1.0968
 Frc consts  --      6.6418                 6.7019                 6.7619
 IR Inten    --     20.9902                18.7701                34.6030

 - Thermochemistry -
 -------------------
 Temperature   298.150 Kelvin.  Pressure   1.00000 Atm.
 Atom     1 has atomic number  6 and mass  12.00000

 Molecular mass:   179.03443 amu.
 Principal axes and moments of inertia in atomic units:
                           1         2         3
     Eigenvalues --  1579.322792385.459053603.93745
           X            0.99984  -0.01180   0.01314
           Y            0.01169   0.99990   0.00818
           Z           -0.01323  -0.00803   0.99988
 This molecule is an asymmetric top.
 Rotational symmetry number  1.
 Warning -- assumption of classical behavior for rotation
           may cause significant error
 Rotational temperatures (Kelvin)      0.05484     0.03631     0.02403
 Rotational constants (GHZ):           1.14273     0.75656     0.50077
 Zero-point vibrational energy     380460.2 (Joules/Mol)
                                   90.93217 (Kcal/Mol)
 Warning -- explicit consideration of  16 degrees of freedom as
           vibrations may cause significant error
 Vibrational temperatures:     67.88   111.65   146.60   166.65   180.83
          (Kelvin)            219.80   342.04   398.50   450.13   529.92
                              593.95   649.27   757.49   780.00   800.89
                              845.49   950.13   974.70  1020.54  1108.39
                             1164.96  1168.91  1222.06  1291.55  1351.14
                             1399.15  1439.52  1485.13  1534.72  1535.57
                             1595.81  1676.28  1704.53  1749.61  1800.48
                             1854.06  1943.08  1995.31  2037.22  2137.85
                             2142.77  2149.27  2182.00  2337.50  2383.19
                             2405.79  2600.46  4448.86  4548.34  4597.06
                             4614.60  4626.34  4645.54  4654.19

 Zero-point correction=                           0.144910 (Hartree/Particle)
 Thermal correction to Energy=                    0.156221
 Thermal correction to Enthalpy=                  0.157165
 Thermal correction to Gibbs Free Energy=         0.106764
 Sum of electronic and zero-point Energies=           -648.094753
 Sum of electronic and thermal Energies=              -648.083441
 Sum of electronic and thermal Enthalpies=            -648.082497
 Sum of electronic and thermal Free Energies=         -648.132899

                     E (Thermal)             CV                S
                      KCal/Mol        Cal/Mol-Kelvin    Cal/Mol-Kelvin
 Total                   98.030             41.497            106.080
 Electronic               0.000              0.000              0.000
 Translational            0.889              2.981             41.454
 Rotational               0.889              2.981             30.985
 Vibrational             96.253             35.536             33.640
 Vibration     1          0.595              1.979              4.932
 Vibration     2          0.599              1.964              3.951
 Vibration     3          0.604              1.948              3.418
 Vibration     4          0.608              1.936              3.169
 Vibration     5          0.611              1.927              3.011
 Vibration     6          0.619              1.900              2.637
 Vibration     7          0.656              1.783              1.820
 Vibration     8          0.678              1.716              1.552
 Vibration     9          0.701              1.649              1.347
 Vibration    10          0.741              1.537              1.087
 Vibration    11          0.777              1.442              0.917
 Vibration    12          0.810              1.358              0.792
 Vibration    13          0.881              1.191              0.595
 Vibration    14          0.897              1.157              0.561
 Vibration    15          0.912              1.125              0.531
 Vibration    16          0.945              1.058              0.471

 Optimization completed.
    -- Stationary point found.
 Normal termination of Gaussian 16 at Sun Jul 18 14:01:54 2021.

 ----------------------------------------------------------------------
 #p b3lyp/6-31G(d) scrf=(iefpcm,read,solvent=water) geom=allcheck guess
 =read
 ----------------------------------------------------------------------

 Structure from the checkpoint file:  "SET_328_BBB272_conf1.geo_165_045_180.chk"
 ---------------------------------------------
 SET_328_BBB272_conf1.geo_165_045_180 geometry
 ---------------------------------------------
 Charge = -1 Multiplicity = 1

 SCF Done:  E(RB3LYP) =  -648.239662616     A.U. after    2 cycles
 Normal termination of Gaussian 16 at Sun Jul 18 14:02:01 2021.

 -----------------------------
 #p B3LYP/6-31G* geom=allcheck
 -----------------------------

 Structure from the checkpoint file:  "SET_328_BBB272_conf1.geo_165_045_180.chk"
 ---------------------------------------------
 SET_328_BBB272_conf1.geo_165_045_180 geometry
 ---------------------------------------------
 Charge = -1 Multiplicity = 1

 SCF Done:  E(RB3LYP) =  -648.132827664     A.U. after   16 cycles
 Normal termination of Gaussian 16 at Sun Jul 18 14:02:25 2021.
 Gaussian 16:  ES64L-G16RevB.01 20-Dec-2017

 --------------------------------------------------------
 #p mp2/aug-cc-pVDZ scf=tight maxdisk=180GB geom=allcheck
 --------------------------------------------------------

 Structure from the checkpoint file:  "SET_328_BBB272_conf1.geo_165_045_180.chk"
 ---------------------------------------------
 SET_328_BBB272_conf1.geo_165_045_180 geometry
 ---------------------------------------------
 Charge = -1 Multiplicity = 1

                         Standard orientation:
 ---------------------------------------------------------------------
 Center     Atomic      Atomic             Coordinates (Angstroms)
 Number     Number       Type             X           Y           Z
 ---------------------------------------------------------------------
      1          6           0       -3.417521   -0.515218   -0.340027
      2          1           0       -3.562769   -1.212778   -1.167892
      3          1           0       -3.511505    0.499148   -0.736665
      4          1           0       -4.173731   -0.678797    0.426824
      5          6           0       -2.044718   -0.673564    0.251277
      6          8           0       -1.782587   -0.782216    1.429820
      7          8           0       -1.105274   -0.716939   -0.732512
      8          6           0        0.239783   -0.673740   -0.348799
      9          6           0        0.875560    0.545764   -0.073443
     10          6           0        0.178306    1.913641   -0.069424
     11          8           0       -1.082432    1.936683   -0.020439
     12          8           0        0.939528    2.918431   -0.103402
     13          6           0        2.249229    0.489005    0.207153
     14          1           0        2.752919    1.427956    0.407431
     15          6           0        2.953658   -0.712832    0.225831
     16          1           0        4.014616   -0.717299    0.453606
     17          6           0        2.290453   -1.908324   -0.057615
     18          1           0        2.825744   -2.850742   -0.054729
     19          6           0        0.927660   -1.884774   -0.350003
     20          1           0        0.386380   -2.794910   -0.586016
 ---------------------------------------------------------------------

 SCF Done:  E(RHF) =  -644.489356205     A.U. after   16 cycles
 E2 =    -0.2005958879D+01 EUMP2 =    -0.64649531508377D+03

 The electronic state is 1-A.
 Alpha  occ. eigenvalues --  -20.48924 -20.42810 -20.32368 -20.32289 -11.27158
 Alpha  occ. eigenvalues --  -11.18548 -11.17545 -11.13435 -11.13329 -11.12667
 Alpha  occ. eigenvalues --  -11.12407 -11.11636 -11.11208  -1.33980  -1.23896
 Alpha  occ. eigenvalues --   -1.19368  -1.08936  -1.03312  -0.92256  -0.90214
 Alpha  occ. eigenvalues --   -0.87753  -0.74060  -0.72163  -0.65765  -0.60270
 Alpha  occ. eigenvalues --   -0.57217  -0.56053  -0.54836  -0.52889  -0.49845
 Alpha  occ. eigenvalues --   -0.48346  -0.46564  -0.46075  -0.44827  -0.42571
 Alpha  occ. eigenvalues --   -0.41574  -0.40493  -0.39553  -0.37810  -0.36127
 Alpha  occ. eigenvalues --   -0.34043  -0.32409  -0.23528  -0.23184  -0.21649
 Alpha  occ. eigenvalues --   -0.21011  -0.20621
 Alpha virt. eigenvalues --    0.10888   0.11499   0.12176   0.13231   0.14080
 Alpha virt. eigenvalues --    0.15513   0.15958   0.18377   0.20045   0.20565
 Alpha virt. eigenvalues --    0.21201   0.21547   0.21849   0.22391   0.22999

 Mulliken charges:
               1
     1  C    0.238177
     2  H   -0.000668
     3  H    0.082323
     4  H   -0.042901
     5  C    0.738768
     6  O   -0.810234
     7  O   -1.182136
     8  C    0.788098
     9  C    0.563982
    10  C    0.882268
    11  O   -0.957896
    12  O   -0.988981
    13  C    0.701660
    14  H   -0.618941
    15  C    0.462524
    16  H   -0.473819
    17  C    0.374069
    18  H   -0.461718
    19  C    0.312366
    20  H   -0.606939
 Sum of Mulliken charges =  -1.00000

 Dipole moment (field-independent basis, Debye):
    X=              0.0775    Y=             -9.2713    Z=             -1.6973  Tot=              9.4257
 Quadrupole moment (field-independent basis, Debye-Ang):
   XX=            -79.2711   YY=           -107.8481   ZZ=            -85.6802
   XY=             -1.3053   XZ=              6.0978   YZ=              3.5065

 Normal termination of Gaussian 16 at Sun Jul 18 14:07:30 2021.
