 Gaussian 16, Revision B.01,

 -----------------------------------------------------------
 #p b3lyp/6-31G(d) opt freq scrf=(iefpcm,read,solvent=water)
 -----------------------------------------------------------

 ---------------------------------------------
 SET_328_BBB324_conf1.geo_180_120_300 geometry
 ---------------------------------------------
 Symbolic Z-matrix:
 Charge =  1 Multiplicity = 1

 SCF Done:  E(RB3LYP) =  -1692.63522982     A.U. after   14 cycles
 SCF Done:  E(RB3LYP) =  -1692.68469760     A.U. after   11 cycles
 SCF Done:  E(RB3LYP) =  -1692.72000101     A.U. after   12 cycles
 SCF Done:  E(RB3LYP) =  -1692.72454381     A.U. after   11 cycles
 SCF Done:  E(RB3LYP) =  -1692.72634969     A.U. after   11 cycles
 SCF Done:  E(RB3LYP) =  -1692.72841023     A.U. after   11 cycles
 SCF Done:  E(RB3LYP) =  -1692.72914171     A.U. after   11 cycles
 SCF Done:  E(RB3LYP) =  -1692.72922871     A.U. after   10 cycles
 SCF Done:  E(RB3LYP) =  -1692.72954524     A.U. after   10 cycles
 SCF Done:  E(RB3LYP) =  -1692.72959707     A.U. after    9 cycles
 SCF Done:  E(RB3LYP) =  -1692.73046435     A.U. after   10 cycles
 SCF Done:  E(RB3LYP) =  -1692.73045923     A.U. after    9 cycles
 SCF Done:  E(RB3LYP) =  -1692.73046555     A.U. after    8 cycles
 SCF Done:  E(RB3LYP) =  -1692.73046343     A.U. after    8 cycles
 SCF Done:  E(RB3LYP) =  -1692.73046897     A.U. after    8 cycles
 SCF Done:  E(RB3LYP) =  -1692.73046902     A.U. after    6 cycles
 Optimization completed.
    -- Stationary point found.
 Normal termination of Gaussian 16 at Sun Jul 18 17:40:22 2021.

 --------------------------------------------------------------------
 #P Geom=AllCheck Guess=TCheck SCRF=Check GenChk RB3LYP/6-31G(d) Freq
 --------------------------------------------------------------------

 Structure from the checkpoint file:  "SET_328_BBB324_conf1.geo_180_120_300.chk"
 ---------------------------------------------
 SET_328_BBB324_conf1.geo_180_120_300 geometry
 ---------------------------------------------
 Charge =  1 Multiplicity = 1

 SCF Done:  E(RB3LYP) =  -1692.73046902     A.U. after    1 cycles

  Exact polarizability: 407.142  -3.432 317.906  38.893  -0.794 201.433
 Approx polarizability: 428.224 -17.298 368.414  42.024  -6.441 239.619

                      1                      2                      3
                      A                      A                      A
 Frequencies --     24.9230                31.3755                40.9777
 Red. masses --      5.8898                 5.0786                 6.3428
 Frc consts  --      0.0022                 0.0029                 0.0063
 IR Inten    --      0.5456                 0.4775                 0.5968

                      4                      5                      6
                      A                      A                      A
 Frequencies --     46.2751                70.1777                79.4141
 Red. masses --      8.3953                 6.6002                 5.7465
 Frc consts  --      0.0106                 0.0192                 0.0214
 IR Inten    --      4.4021                 0.5847                 1.3573

                      7                      8                      9
                      A                      A                      A
 Frequencies --     89.6108                98.8340               124.5667
 Red. masses --      6.3616                 3.4827                 4.5882
 Frc consts  --      0.0301                 0.0200                 0.0419
 IR Inten    --      2.0268                 5.8972                 0.8671

                     10                     11                     12
                      A                      A                      A
 Frequencies --    135.7182               144.8696               172.0586
 Red. masses --      1.2864                 3.0545                 4.4460
 Frc consts  --      0.0140                 0.0378                 0.0775
 IR Inten    --      2.0522                13.8426                 5.3431

                     13                     14                     15
                      A                      A                      A
 Frequencies --    176.2844               199.7870               202.1202
 Red. masses --      4.7885                 5.1155                 1.6986
 Frc consts  --      0.0877                 0.1203                 0.0409
 IR Inten    --      1.7619                 4.1148                 1.5092

                     16                     17                     18
                      A                      A                      A
 Frequencies --    205.4847               217.0324               235.6553
 Red. masses --      2.4456                 3.3411                 4.3369
 Frc consts  --      0.0608                 0.0927                 0.1419
 IR Inten    --      3.3156                 4.2272                 8.6034

                     19                     20                     21
                      A                      A                      A
 Frequencies --    248.6809               254.0425               294.3462
 Red. masses --      1.5114                 2.7505                 4.8800
 Frc consts  --      0.0551                 0.1046                 0.2491
 IR Inten    --    165.4751                25.7587                 5.1522

                     22                     23                     24
                      A                      A                      A
 Frequencies --    315.1049               323.0583               331.2875
 Red. masses --      5.2502                 4.0405                 4.4656
 Frc consts  --      0.3071                 0.2485                 0.2888
 IR Inten    --     17.2364                 4.8778                10.1373

                     25                     26                     27
                      A                      A                      A
 Frequencies --    352.3482               370.3642               379.3295
 Red. masses --      3.0528                 5.3968                 4.3268
 Frc consts  --      0.2233                 0.4362                 0.3668
 IR Inten    --     28.3588                 4.1735                 7.7876

                     28                     29                     30
                      A                      A                      A
 Frequencies --    402.8307               404.9609               437.1117
 Red. masses --      4.6284                 5.0810                 2.2266
 Frc consts  --      0.4425                 0.4909                 0.2507
 IR Inten    --     30.3109                18.8878                64.7206

                     31                     32                     33
                      A                      A                      A
 Frequencies --    440.4315               453.0706               464.7237
 Red. masses --      3.8781                 3.5304                 2.7730
 Frc consts  --      0.4432                 0.4270                 0.3529
 IR Inten    --      7.7742                47.6744                96.5425

                     34                     35                     36
                      A                      A                      A
 Frequencies --    483.5802               503.6769               545.7448
 Red. masses --      6.1013                 4.3386                 4.4670
 Frc consts  --      0.8406                 0.6485                 0.7839
 IR Inten    --      5.1487                 2.3239                 2.0601

                     37                     38                     39
                      A                      A                      A
 Frequencies --    561.1144               571.4953               608.1662
 Red. masses --      4.5129                 4.6575                 4.7542
 Frc consts  --      0.8372                 0.8963                 1.0360
 IR Inten    --     36.8777                 8.0442                 0.0688

                     40                     41                     42
                      A                      A                      A
 Frequencies --    626.3757               651.2891               672.3523
 Red. masses --      3.9897                 3.6131                 4.7700
 Frc consts  --      0.9223                 0.9030                 1.2705
 IR Inten    --     38.2858                64.7689                32.2456

                     43                     44                     45
                      A                      A                      A
 Frequencies --    690.7658               698.0205               710.4549
 Red. masses --      3.3999                 1.5926                 4.4168
 Frc consts  --      0.9558                 0.4572                 1.3135
 IR Inten    --     16.5144               123.7074                13.4521

                     46                     47                     48
                      A                      A                      A
 Frequencies --    736.9886               750.3618               781.0365
 Red. masses --      7.3922                 6.7726                 2.6678
 Frc consts  --      2.3656                 2.2467                 0.9588
 IR Inten    --     12.0609                19.1716                26.7087

                     49                     50                     51
                      A                      A                      A
 Frequencies --    784.6233               799.9989               810.9853
 Red. masses --      7.5112                 8.7153                 7.5852
 Frc consts  --      2.7245                 3.2863                 2.9393
 IR Inten    --      9.2816                27.8575                61.3053

                     52                     53                     54
                      A                      A                      A
 Frequencies --    814.4960               872.2220               877.8894
 Red. masses --      2.0877                 1.4082                 2.6563
 Frc consts  --      0.8160                 0.6312                 1.2062
 IR Inten    --     38.7025                 1.2558                19.9240

                     55                     56                     57
                      A                      A                      A
 Frequencies --    923.9318               926.6989               941.6073
 Red. masses --      2.3938                 1.7518                 7.8487
 Frc consts  --      1.2040                 0.8864                 4.1000
 IR Inten    --      1.5793                 2.0743               114.7823

                     58                     59                     60
                      A                      A                      A
 Frequencies --    954.2642               961.2287               985.6644
 Red. masses --      3.6177                 2.2395                 4.1958
 Frc consts  --      1.9410                 1.2191                 2.4017
 IR Inten    --      1.2056                12.0918                30.0008

                     61                     62                     63
                      A                      A                      A
 Frequencies --   1004.7670              1019.4651              1022.8975
 Red. masses --      1.3046                 3.3998                 1.7853
 Frc consts  --      0.7760                 2.0819                 1.1006
 IR Inten    --      0.6567                12.2598                13.6505

                     64                     65                     66
                      A                      A                      A
 Frequencies --   1032.6190              1072.7641              1079.1909
 Red. masses --      4.4125                 4.2491                 3.0960
 Frc consts  --      2.7721                 2.8811                 2.1245
 IR Inten    --     66.4690               121.2648                92.5238

                     67                     68                     69
                      A                      A                      A
 Frequencies --   1097.9837              1108.3163              1118.6117
 Red. masses --      2.9381                 3.1054                 1.8338
 Frc consts  --      2.0870                 2.2475                 1.3519
 IR Inten    --     19.8956                45.4366                34.5236

                     70                     71                     72
                      A                      A                      A
 Frequencies --   1155.0624              1161.2088              1165.3146
 Red. masses --      2.2834                 1.9601                 1.3977
 Frc consts  --      1.7949                 1.5572                 1.1183
 IR Inten    --     35.1466                81.3056                 3.2000

                     73                     74                     75
                      A                      A                      A
 Frequencies --   1188.3873              1196.3358              1202.4293
 Red. masses --      1.4706                 2.0466                 2.1255
 Frc consts  --      1.2237                 1.7258                 1.8106
 IR Inten    --     21.7193                97.3320                76.4958

                     76                     77                     78
                      A                      A                      A
 Frequencies --   1217.7065              1227.0337              1246.4274
 Red. masses --      1.7847                 1.6914                 1.8061
 Frc consts  --      1.5592                 1.5004                 1.6532
 IR Inten    --     40.3039                43.4701                17.8345

                     79                     80                     81
                      A                      A                      A
 Frequencies --   1253.3546              1267.6170              1279.3205
 Red. masses --      2.9154                 2.7659                 1.6215
 Frc consts  --      2.6983                 2.6185                 1.5636
 IR Inten    --     90.8482                54.7570                48.2123

                     82                     83                     84
                      A                      A                      A
 Frequencies --   1306.9302              1315.1835              1332.1855
 Red. masses --      2.1414                 2.3599                 8.4590
 Frc consts  --      2.1550                 2.4050                 8.8451
 IR Inten    --      3.6235                67.0108                11.1091

                     85                     86                     87
                      A                      A                      A
 Frequencies --   1361.9472              1371.6804              1388.0552
 Red. masses --      3.3219                 3.7439                 1.4864
 Frc consts  --      3.6305                 4.1503                 1.6873
 IR Inten    --    119.5896                 5.8308                48.6976

                     88                     89                     90
                      A                      A                      A
 Frequencies --   1388.5707              1428.5178              1438.4847
 Red. masses --      1.3934                 1.3214                 1.8801
 Frc consts  --      1.5829                 1.5887                 2.2922
 IR Inten    --    143.9709                12.8719               234.4416

                     91                     92                     93
                      A                      A                      A
 Frequencies --   1450.9470              1459.4007              1464.7590
 Red. masses --      2.0578                 2.0249                 1.6055
 Frc consts  --      2.5524                 2.5410                 2.0296
 IR Inten    --     73.6568                56.3218                32.8202

                     94                     95                     96
                      A                      A                      A
 Frequencies --   1487.1481              1493.7646              1503.3943
 Red. masses --      2.6649                 2.9651                 1.0736
 Frc consts  --      3.4725                 3.8980                 1.4297
 IR Inten    --     85.8630                49.4018                11.6633

                     97                     98                     99
                      A                      A                      A
 Frequencies --   1506.6532              1512.9326              1518.4115
 Red. masses --      1.1010                 1.0765                 1.1531
 Frc consts  --      1.4725                 1.4518                 1.5663
 IR Inten    --     21.3893                 8.6848                12.3736

                    100                    101                    102
                      A                      A                      A
 Frequencies --   1523.4976              1528.4708              1533.7686
 Red. masses --      2.4766                 1.1045                 1.2656
 Frc consts  --      3.3869                 1.5203                 1.7541
 IR Inten    --      6.6650                 9.4953                84.2957

                    103                    104                    105
                      A                      A                      A
 Frequencies --   1548.7370              1578.0737              1608.2452
 Red. masses --      7.5959                 5.2713                10.1441
 Frc consts  --     10.7346                 7.7343                15.4585
 IR Inten    --     71.7392               209.7179                95.4803

                    106                    107                    108
                      A                      A                      A
 Frequencies --   1624.3029              1645.1472              1705.3570
 Red. masses --      6.3739                 6.7826                 8.1779
 Frc consts  --      9.9081                10.8157                14.0128
 IR Inten    --     17.0296                79.9466                59.3207

                    109                    110                    111
                      A                      A                      A
 Frequencies --   1723.3218              3053.0730              3072.2322
 Red. masses --     10.6697                 1.0560                 1.0405
 Frc consts  --     18.6696                 5.7997                 5.7861
 IR Inten    --    679.6754                58.1387                49.4531

                    112                    113                    114
                      A                      A                      A
 Frequencies --   3084.8465              3099.7884              3107.9739
 Red. masses --      1.0346                 1.1090                 1.0682
 Frc consts  --      5.8007                 6.2784                 6.0793
 IR Inten    --     19.5139                61.1638                 9.5019

                    115                    116                    117
                      A                      A                      A
 Frequencies --   3142.6955              3162.0261              3168.2180
 Red. masses --      1.1005                 1.1043                 1.1039
 Frc consts  --      6.4038                 6.5054                 6.5285
 IR Inten    --     27.4456                24.0196                20.5941

                    118                    119                    120
                      A                      A                      A
 Frequencies --   3196.2467              3210.4326              3236.2102
 Red. masses --      1.0989                 1.1007                 1.0886
 Frc consts  --      6.6143                 6.6840                 6.7171
 IR Inten    --      2.8531                 2.4565                 5.1343

                    121                    122                    123
                      A                      A                      A
 Frequencies --   3249.7321              3257.2152              3357.7032
 Red. masses --      1.0933                 1.0960                 1.1023
 Frc consts  --      6.8029                 6.8512                 7.3221
 IR Inten    --      2.8433                 3.7383                42.8385

                    124                    125                    126
                      A                      A                      A
 Frequencies --   3534.9214              3651.1469              3733.2137
 Red. masses --      1.0855                 1.0652                 1.0667
 Frc consts  --      7.9915                 8.3664                 8.7594
 IR Inten    --    558.5789               128.7473               143.6544

 - Thermochemistry -
 -------------------
 Temperature   298.150 Kelvin.  Pressure   1.00000 Atm.
 Atom     1 has atomic number  6 and mass  12.00000

 Molecular mass:   390.09691 amu.
 Principal axes and moments of inertia in atomic units:
                           1         2         3
     Eigenvalues --  4590.57785********************
           X            0.99988   0.01577   0.00060
           Y           -0.01578   0.99967   0.02026
           Z           -0.00028  -0.02027   0.99979
 This molecule is an asymmetric top.
 Rotational symmetry number  1.
 Warning -- assumption of classical behavior for rotation
           may cause significant error
 Rotational temperatures (Kelvin)      0.01887     0.00413     0.00374
 Rotational constants (GHZ):           0.39314     0.08601     0.07800
 Zero-point vibrational energy     892379.9 (Joules/Mol)
                                  213.28391 (Kcal/Mol)
 Warning -- explicit consideration of  39 degrees of freedom as
           vibrations may cause significant error
 Vibrational temperatures:     35.86    45.14    58.96    66.58   100.97
          (Kelvin)            114.26   128.93   142.20   179.22   195.27
                              208.44   247.55   253.63   287.45   290.81
                              295.65   312.26   339.06   357.80   365.51
                              423.50   453.37   464.81   476.65   506.95
                              532.87   545.77   579.58   582.65   628.91
                              633.68   651.87   668.63   695.76   724.68
                              785.21   807.32   822.25   875.02   901.21
                              937.06   967.37   993.86  1004.30  1022.19
                             1060.36  1079.60  1123.74  1128.90  1151.02
                             1166.83  1171.88  1254.93  1263.09  1329.33
                             1333.31  1354.76  1372.97  1382.99  1418.15
                             1445.64  1466.78  1471.72  1485.71  1543.47
                             1552.71  1579.75  1594.62  1609.43  1661.88
                             1670.72  1676.63  1709.82  1721.26  1730.03
                             1752.01  1765.43  1793.33  1803.30  1823.82
                             1840.66  1880.38  1892.26  1916.72  1959.54
                             1973.54  1997.10  1997.84  2055.32  2069.66
                             2087.59  2099.75  2107.46  2139.67  2149.19
                             2163.05  2167.74  2176.77  2184.66  2191.97
                             2199.13  2206.75  2228.29  2270.50  2313.91
                             2337.01  2367.00  2453.63  2479.48  4392.69
                             4420.26  4438.41  4459.90  4471.68  4521.64
                             4549.45  4558.36  4598.69  4619.10  4656.18
                             4675.64  4686.41  4830.99  5085.96  5253.19
                             5371.26

 Zero-point correction=                           0.339890 (Hartree/Particle)
 Thermal correction to Energy=                    0.363936
 Thermal correction to Enthalpy=                  0.364881
 Thermal correction to Gibbs Free Energy=         0.285375
 Sum of electronic and zero-point Energies=          -1692.390579
 Sum of electronic and thermal Energies=             -1692.366533
 Sum of electronic and thermal Enthalpies=           -1692.365588
 Sum of electronic and thermal Free Energies=        -1692.445094

                     E (Thermal)             CV                S
                      KCal/Mol        Cal/Mol-Kelvin    Cal/Mol-Kelvin
 Total                  228.374             91.586            167.334
 Electronic               0.000              0.000              0.000
 Translational            0.889              2.981             43.776
 Rotational               0.889              2.981             36.053
 Vibrational            226.596             85.624             87.505
 Vibration     1          0.593              1.985              6.197
 Vibration     2          0.594              1.983              5.740
 Vibration     3          0.594              1.981              5.211
 Vibration     4          0.595              1.979              4.971
 Vibration     5          0.598              1.968              4.148
 Vibration     6          0.600              1.963              3.905
 Vibration     7          0.602              1.957              3.669
 Vibration     8          0.604              1.950              3.477
 Vibration     9          0.610              1.928              3.028
 Vibration    10          0.614              1.918              2.863
 Vibration    11          0.616              1.908              2.739
 Vibration    12          0.626              1.877              2.413
 Vibration    13          0.628              1.872              2.367
 Vibration    14          0.638              1.840              2.135
 Vibration    15          0.639              1.837              2.114
 Vibration    16          0.640              1.832              2.083
 Vibration    17          0.646              1.815              1.984
 Vibration    18          0.655              1.786              1.835
 Vibration    19          0.662              1.765              1.740
 Vibration    20          0.665              1.756              1.702
 Vibration    21          0.689              1.684              1.449
 Vibration    22          0.702              1.645              1.335
 Vibration    23          0.708              1.629              1.295
 Vibration    24          0.714              1.613              1.254
 Vibration    25          0.729              1.570              1.156
 Vibration    26          0.742              1.533              1.078
 Vibration    27          0.749              1.514              1.042
 Vibration    28          0.768              1.464              0.952
 Vibration    29          0.770              1.459              0.945
 Vibration    30          0.797              1.389              0.836
 Vibration    31          0.800              1.382              0.825
 Vibration    32          0.812              1.354              0.787
 Vibration    33          0.822              1.328              0.752
 Vibration    34          0.840              1.286              0.700
 Vibration    35          0.859              1.242              0.649
 Vibration    36          0.901              1.149              0.553
 Vibration    37          0.917              1.115              0.522
 Vibration    38          0.928              1.093              0.501
 Vibration    39          0.967              1.015              0.436

                           ! Non-Optimized Parameters !
 Normal termination of Gaussian 16 at Sun Jul 18 18:17:49 2021.

 ----------------------------------------------------------------------
 #p b3lyp/6-31G(d) scrf=(iefpcm,read,solvent=water) geom=allcheck guess
 =read
 ----------------------------------------------------------------------

 Structure from the checkpoint file:  "SET_328_BBB324_conf1.geo_180_120_300.chk"
 ---------------------------------------------
 SET_328_BBB324_conf1.geo_180_120_300 geometry
 ---------------------------------------------
 Charge =  1 Multiplicity = 1

 SCF Done:  E(RB3LYP) =  -1692.73046902     A.U. after    2 cycles
 Normal termination of Gaussian 16 at Sun Jul 18 18:18:22 2021.

 -----------------------------
 #p B3LYP/6-31G* geom=allcheck
 -----------------------------

 Structure from the checkpoint file:  "SET_328_BBB324_conf1.geo_180_120_300.chk"
 ---------------------------------------------
 SET_328_BBB324_conf1.geo_180_120_300 geometry
 ---------------------------------------------
 Charge =  1 Multiplicity = 1

 SCF Done:  E(RB3LYP) =  -1692.62784336     A.U. after   18 cycles
 Normal termination of Gaussian 16 at Sun Jul 18 18:20:26 2021.
 Gaussian 16:  ES64L-G16RevB.01 20-Dec-2017

 --------------------------------------------------------
 #p mp2/aug-cc-pVDZ scf=tight maxdisk=180GB geom=allcheck
 --------------------------------------------------------

 Structure from the checkpoint file:  "SET_328_BBB324_conf1.geo_180_120_300.chk"
 ---------------------------------------------
 SET_328_BBB324_conf1.geo_180_120_300 geometry
 ---------------------------------------------
 Charge =  1 Multiplicity = 1

                         Standard orientation:
 ---------------------------------------------------------------------
 Center     Atomic      Atomic             Coordinates (Angstroms)
 Number     Number       Type             X           Y           Z
 ---------------------------------------------------------------------
      1          6           0        0.510998   -2.451009   -1.139140
      2          1           0       -0.047396   -3.093026   -0.454843
      3          1           0        1.188137   -3.052919   -1.740575
      4          1           0       -0.192960   -1.931814   -1.798139
      5          7           0        1.307247   -1.498293   -0.367537
      6          6           0        0.598469   -0.633435    0.579971
      7          1           0        1.161112   -0.556657    1.513793
      8          1           0       -0.371077   -1.074688    0.801406
      9          6           0        0.407465    0.718415   -0.022145
     10          6           0       -0.672290    1.406681   -0.514699
     11          6           0       -2.081939    1.062773   -0.523974
     12          7           0       -2.983093    1.804696   -1.125454
     13          8           0       -4.173140    1.108304   -0.870832
     14          6           0       -3.850301    0.023597   -0.145071
     15          7           0       -2.574588   -0.059559    0.100155
     16          6           0       -4.959213   -0.933662    0.264708
     17          6           0       -5.483530   -1.681913   -0.964996
     18          1           0       -5.873412   -0.990732   -1.715092
     19          1           0       -6.283115   -2.357802   -0.653841
     20          1           0       -4.681033   -2.272471   -1.412898
     21          8           0       -4.425950   -1.890341    1.157331
     22          1           0       -4.338613   -1.438769    2.019942
     23          6           0       -6.075766   -0.143102    0.965559
     24          8           0       -5.491703    0.406035    2.139397
     25          1           0       -6.207981    0.683338    2.735784
     26          1           0       -6.882868   -0.843418    1.205878
     27          1           0       -6.470801    0.636966    0.303926
     28          7           0       -0.178875    2.583623   -1.050676
     29          6           0        1.137495    2.627261   -0.909076
     30          1           0        1.781004    3.419237   -1.251032
     31          7           0        1.526660    1.503147   -0.283319
     32          6           0        2.854801    1.178983    0.146662
     33          6           0        3.623288    2.192444    0.716722
     34          1           0        3.213412    3.188495    0.826849
     35          6           0        4.903290    1.900123    1.171911
     36          1           0        5.508504    2.679841    1.618594
     37          6           0        5.395713    0.600773    1.087979
     38          1           0        6.377727    0.353173    1.469541
     39          6           0        4.611608   -0.397662    0.515814
     40         17           0        5.281191   -2.019116    0.487900
     41          6           0        3.324382   -0.141781    0.013696
     42          6           0        2.580652   -1.215495   -0.759061
     43          8           0        3.146350   -1.792682   -1.686727
     44          1           0       -0.737509    3.312436   -1.498289
 ---------------------------------------------------------------------

 SCF Done:  E(RHF) =  -1684.76835295     A.U. after   18 cycles
 E2 =    -0.4114428034D+01 EUMP2 =    -0.16888827809799D+04

 The electronic state is 1-A.
 Alpha  occ. eigenvalues -- -104.93891 -20.79155 -20.68474 -20.67302 -20.64431
 Alpha  occ. eigenvalues --  -15.83994 -15.83771 -15.76928 -15.72139 -15.70511
 Alpha  occ. eigenvalues --  -11.53882 -11.48725 -11.48549 -11.47017 -11.46916
 Alpha  occ. eigenvalues --  -11.46780 -11.45555 -11.44174 -11.42745 -11.42691
 Alpha  occ. eigenvalues --  -11.40819 -11.39675 -11.39437 -11.38761 -11.38056
 Alpha  occ. eigenvalues --  -11.36762 -11.33237 -10.66434  -8.13216  -8.12860
 Alpha  occ. eigenvalues --   -8.12847  -1.64743  -1.58375  -1.49915  -1.49514
 Alpha  occ. eigenvalues --   -1.46262  -1.44006  -1.38709  -1.37580  -1.31952
 Alpha  occ. eigenvalues --   -1.30455  -1.25251  -1.23364  -1.18989  -1.16434
 Alpha  occ. eigenvalues --   -1.13960  -1.12939  -1.07876  -1.06715  -1.05102
 Alpha  occ. eigenvalues --   -1.04015  -1.00440  -0.98536  -0.96315  -0.94962
 Alpha  occ. eigenvalues --   -0.93399  -0.90227  -0.88625  -0.85249  -0.84723
 Alpha  occ. eigenvalues --   -0.84227  -0.83579  -0.82298  -0.82262  -0.80164
 Alpha  occ. eigenvalues --   -0.78999  -0.78498  -0.78236  -0.77659  -0.77028
 Alpha  occ. eigenvalues --   -0.76467  -0.73272  -0.72491  -0.71937  -0.70810
 Alpha  occ. eigenvalues --   -0.70122  -0.69112  -0.68532  -0.67798  -0.67105
 Alpha  occ. eigenvalues --   -0.65737  -0.65218  -0.64994  -0.64864  -0.64120
 Alpha  occ. eigenvalues --   -0.63844  -0.63637  -0.63061  -0.61066  -0.60150
 Alpha  occ. eigenvalues --   -0.59339  -0.57892  -0.56897  -0.55929  -0.55801
 Alpha  occ. eigenvalues --   -0.54112  -0.53618  -0.50261  -0.48843  -0.47772
 Alpha  occ. eigenvalues --   -0.46173
 Alpha virt. eigenvalues --   -0.07397  -0.07157  -0.05240  -0.04747  -0.04645
 Alpha virt. eigenvalues --   -0.03839  -0.03741  -0.03360  -0.02927  -0.02775
 Alpha virt. eigenvalues --   -0.02218  -0.01839  -0.01286  -0.01121  -0.00975

 Mulliken charges:
               1
     1  C    0.793746
     2  H   -0.113546
     3  H   -0.218576
     4  H   -0.035511
     5  N   -0.551729
     6  C    1.013940
     7  H   -0.011163
     8  H   -0.223243
     9  C   -0.023474
    10  C    0.673847
    11  C    0.781236
    12  N   -0.414983
    13  O   -0.897495
    14  C    0.737668
    15  N   -0.541522
    16  C   -1.116970
    17  C    1.114479
    18  H    0.064488
    19  H   -0.017625
    20  H    0.056575
    21  O   -0.852099
    22  H    0.175290
    23  C    1.648710
    24  O   -0.802029
    25  H    0.193652
    26  H   -0.084617
    27  H   -0.078822
    28  N   -0.530488
    29  C    0.710851
    30  H   -0.330549
    31  N   -0.908996
    32  C   -0.271055
    33  C    1.005337
    34  H   -0.705275
    35  C    0.444581
    36  H   -0.446561
    37  C    0.737526
    38  H   -0.432507
    39  C   -0.745131
    40  Cl  -0.314517
    41  C    1.643486
    42  C    0.752777
    43  O   -0.848994
    44  H   -0.030713
 Sum of Mulliken charges =   1.00000

 Dipole moment (field-independent basis, Debye):
    X=             -2.0790    Y=              9.3764    Z=              1.7571  Tot=              9.7636
 Quadrupole moment (field-independent basis, Debye-Ang):
   XX=            -81.5497   YY=           -131.9511   ZZ=           -155.0353
   XY=             25.7966   XZ=              5.6433   YZ=             -5.5001

 Normal termination of Gaussian 16 at Sun Jul 18 20:55:44 2021.
