 Gaussian 16, Revision B.01,

 -----------------------------------------------------------
 #p b3lyp/6-31G(d) opt freq scrf=(iefpcm,read,solvent=water)
 -----------------------------------------------------------

 ---------------------------------------------
 SET_328_BBB256_conf1.geo_180_300_120 geometry
 ---------------------------------------------
 Symbolic Z-matrix:
 Charge =  1 Multiplicity = 1

 SCF Done:  E(RB3LYP) =  -422.035223610     A.U. after   12 cycles
 SCF Done:  E(RB3LYP) =  -422.053657188     A.U. after   11 cycles
 SCF Done:  E(RB3LYP) =  -422.056164307     A.U. after   10 cycles
 SCF Done:  E(RB3LYP) =  -422.056399754     A.U. after   10 cycles
 SCF Done:  E(RB3LYP) =  -422.056447028     A.U. after   10 cycles
 SCF Done:  E(RB3LYP) =  -422.056569905     A.U. after    9 cycles
 SCF Done:  E(RB3LYP) =  -422.056628452     A.U. after   10 cycles
 SCF Done:  E(RB3LYP) =  -422.056686845     A.U. after   11 cycles
 SCF Done:  E(RB3LYP) =  -422.056827949     A.U. after   10 cycles
 SCF Done:  E(RB3LYP) =  -422.056995687     A.U. after   10 cycles
 SCF Done:  E(RB3LYP) =  -422.060206419     A.U. after    8 cycles
 SCF Done:  E(RB3LYP) =  -422.060208147     A.U. after    7 cycles
 SCF Done:  E(RB3LYP) =  -422.060207922     A.U. after    7 cycles
 SCF Done:  E(RB3LYP) =  -422.060207887     A.U. after    7 cycles
 SCF Done:  E(RB3LYP) =  -422.060208167     A.U. after    7 cycles
 SCF Done:  E(RB3LYP) =  -422.060208386     A.U. after    7 cycles
 Optimization completed.
    -- Stationary point found.
 Normal termination of Gaussian 16 at Sun Jul 18 13:51:10 2021.

 --------------------------------------------------------------------
 #P Geom=AllCheck Guess=TCheck SCRF=Check GenChk RB3LYP/6-31G(d) Freq
 --------------------------------------------------------------------

 Structure from the checkpoint file:  "SET_328_BBB256_conf1.geo_180_300_120.chk"
 ---------------------------------------------
 SET_328_BBB256_conf1.geo_180_300_120 geometry
 ---------------------------------------------
 Charge =  1 Multiplicity = 1

 SCF Done:  E(RB3LYP) =  -422.060208386     A.U. after    1 cycles

  Exact polarizability: 152.383   4.265 139.025 -10.240   2.882  70.913
 Approx polarizability: 162.978   3.890 159.337 -12.956   4.121  80.042

                      1                      2                      3
                      A                      A                      A
 Frequencies --     27.3289                98.3272               133.9520
 Red. masses --      3.8319                 3.0333                 2.1352
 Frc consts  --      0.0017                 0.0173                 0.0226
 IR Inten    --      4.2173                 9.6420                 5.8242

                      4                      5                      6
                      A                      A                      A
 Frequencies --    175.7754               238.0814               256.4156
 Red. masses --      1.8410                 1.4345                 2.9845
 Frc consts  --      0.0335                 0.0479                 0.1156
 IR Inten    --     22.2377                15.9290                15.6336

                      7                      8                      9
                      A                      A                      A
 Frequencies --    266.3676               316.1214               416.5941
 Red. masses --      2.3085                 3.2048                 3.4971
 Frc consts  --      0.0965                 0.1887                 0.3576
 IR Inten    --      5.4362                13.5279                 6.4019

                     10                     11                     12
                      A                      A                      A
 Frequencies --    464.0822               506.5254               601.9521
 Red. masses --      2.3577                 3.7570                 2.9092
 Frc consts  --      0.2992                 0.5679                 0.6211
 IR Inten    --      3.2425                 2.2230                 3.0026

                     13                     14                     15
                      A                      A                      A
 Frequencies --    645.7753               759.6168               774.1793
 Red. masses --      6.8126                 4.0931                 1.3556
 Frc consts  --      1.6739                 1.3915                 0.4787
 IR Inten    --      8.2772                 1.5130                39.4427

                     16                     17                     18
                      A                      A                      A
 Frequencies --    795.5378               833.1663               863.7661
 Red. masses --      2.4079                 2.1418                 1.2674
 Frc consts  --      0.8979                 0.8760                 0.5571
 IR Inten    --     30.7975                10.0735                25.3642

                     19                     20                     21
                      A                      A                      A
 Frequencies --    914.6632               962.9493               984.2000
 Red. masses --      1.2980                 1.7309                 1.3948
 Frc consts  --      0.6398                 0.9457                 0.7960
 IR Inten    --      0.4319                 7.1628                 0.6455

                     22                     23                     24
                      A                      A                      A
 Frequencies --   1001.7191              1021.7753              1024.4505
 Red. masses --      2.0513                 1.3117                 6.4380
 Frc consts  --      1.2127                 0.8069                 3.9809
 IR Inten    --     12.5397                 0.0963                34.3035

                     25                     26                     27
                      A                      A                      A
 Frequencies --   1044.5550              1067.5565              1076.2928
 Red. masses --      2.4711                 2.5542                 2.1874
 Frc consts  --      1.5885                 1.7151                 1.4929
 IR Inten    --      1.6982                 4.0656                 8.1920

                     28                     29                     30
                      A                      A                      A
 Frequencies --   1122.2744              1154.8913              1181.2989
 Red. masses --      1.5322                 1.2849                 1.3005
 Frc consts  --      1.1370                 1.0097                 1.0693
 IR Inten    --     26.4993                 7.3013                14.3320

                     31                     32                     33
                      A                      A                      A
 Frequencies --   1182.2757              1241.1596              1271.7392
 Red. masses --      1.1766                 2.1628                 1.5486
 Frc consts  --      0.9690                 1.9630                 1.4757
 IR Inten    --     10.4675                 6.0057                 3.9910

                     34                     35                     36
                      A                      A                      A
 Frequencies --   1307.6178              1315.9227              1342.2287
 Red. masses --      2.6708                 1.8982                 1.3866
 Frc consts  --      2.6906                 1.9366                 1.4718
 IR Inten    --      2.9733                24.1283                18.4178

                     37                     38                     39
                      A                      A                      A
 Frequencies --   1393.0230              1397.7132              1434.1257
 Red. masses --      1.3264                 1.5760                 1.1113
 Frc consts  --      1.5165                 1.8140                 1.3466
 IR Inten    --      7.6979                15.1918                42.9871

                     40                     41                     42
                      A                      A                      A
 Frequencies --   1463.8858              1481.1793              1489.1953
 Red. masses --      1.2822                 1.5048                 1.2642
 Frc consts  --      1.6189                 1.9450                 1.6518
 IR Inten    --    187.9935                27.0939                47.5531

                     43                     44                     45
                      A                      A                      A
 Frequencies --   1493.1910              1513.2357              1517.0502
 Red. masses --      1.3272                 1.1120                 1.0481
 Frc consts  --      1.7435                 1.5002                 1.4211
 IR Inten    --     77.5492                20.9244                25.1483

                     46                     47                     48
                      A                      A                      A
 Frequencies --   1522.7398              1524.9698              1629.9390
 Red. masses --      1.4766                 1.3090                 5.8308
 Frc consts  --      2.0173                 1.7936                 9.1269
 IR Inten    --     28.5875                29.0205                31.8097

                     49                     50                     51
                      A                      A                      A
 Frequencies --   1647.4991              1655.3033              3068.9252
 Red. masses --      1.0683                 5.4891                 1.0695
 Frc consts  --      1.7084                 8.8614                 5.9346
 IR Inten    --     86.1656                81.3449                16.9716

                     52                     53                     54
                      A                      A                      A
 Frequencies --   3112.9285              3118.3667              3138.8793
 Red. masses --      1.0554                 1.0391                 1.0931
 Frc consts  --      6.0258                 5.9532                 6.3454
 IR Inten    --    225.0786                16.7339                40.8139

                     55                     56                     57
                      A                      A                      A
 Frequencies --   3152.6320              3175.2566              3204.2922
 Red. masses --      1.0751                 1.1080                 1.0902
 Frc consts  --      6.2960                 6.5817                 6.5954
 IR Inten    --    650.4355                24.2484                26.4591

                     58                     59                     60
                      A                      A                      A
 Frequencies --   3214.2376              3214.6564              3220.1347
 Red. masses --      1.1083                 1.1078                 1.0884
 Frc consts  --      6.7463                 6.7449                 6.6495
 IR Inten    --     10.8851                 4.5575                10.1649

                     61                     62                     63
                      A                      A                      A
 Frequencies --   3234.4183              3248.4286              3418.5311
 Red. masses --      1.0939                 1.0968                 1.0780
 Frc consts  --      6.7426                 6.8190                 7.4227
 IR Inten    --     24.1394                14.9788               172.6765

 - Thermochemistry -
 -------------------
 Temperature   298.150 Kelvin.  Pressure   1.00000 Atm.
 Atom     1 has atomic number  6 and mass  12.00000

 Molecular mass:   137.10787 amu.
 Principal axes and moments of inertia in atomic units:
                           1         2         3
     Eigenvalues --   609.953222338.814282838.31938
           X            0.99998  -0.00681   0.00108
           Y            0.00681   0.99997  -0.00280
           Z           -0.00106   0.00281   1.00000
 This molecule is an asymmetric top.
 Rotational symmetry number  1.
 Warning -- assumption of classical behavior for rotation
           may cause significant error
 Rotational temperatures (Kelvin)      0.14200     0.03703     0.03052
 Rotational constants (GHZ):           2.95882     0.77165     0.63585
 Zero-point vibrational energy     544754.7 (Joules/Mol)
                                  130.19950 (Kcal/Mol)
 Warning -- explicit consideration of  12 degrees of freedom as
           vibrations may cause significant error
 Vibrational temperatures:     39.32   141.47   192.73   252.90   342.55
          (Kelvin)            368.92   383.24   454.83   599.39   667.71
                              728.78   866.07   929.13  1092.92  1113.87
                             1144.60  1198.74  1242.77  1316.00  1385.47
                             1416.04  1441.25  1470.11  1473.96  1502.88
                             1535.98  1548.55  1614.70  1661.63  1699.63
                             1701.03  1785.75  1829.75  1881.37  1893.32
                             1931.17  2004.25  2011.00  2063.39  2106.21
                             2131.09  2142.62  2148.37  2177.21  2182.70
                             2190.88  2194.09  2345.12  2370.38  2381.61
                             4415.50  4478.81  4486.63  4516.15  4535.93
                             4568.49  4610.26  4624.57  4625.17  4633.06
                             4653.61  4673.76  4918.50

 Zero-point correction=                           0.207486 (Hartree/Particle)
 Thermal correction to Energy=                    0.217034
 Thermal correction to Enthalpy=                  0.217978
 Thermal correction to Gibbs Free Energy=         0.171828
 Sum of electronic and zero-point Energies=           -421.852722
 Sum of electronic and thermal Energies=              -421.843175
 Sum of electronic and thermal Enthalpies=            -421.842231
 Sum of electronic and thermal Free Energies=         -421.888381

                     E (Thermal)             CV                S
                      KCal/Mol        Cal/Mol-Kelvin    Cal/Mol-Kelvin
 Total                  136.191             35.832             97.131
 Electronic               0.000              0.000              0.000
 Translational            0.889              2.981             40.659
 Rotational               0.889              2.981             29.783
 Vibrational            134.413             29.870             26.689
 Vibration     1          0.593              1.984              6.014
 Vibration     2          0.604              1.950              3.487
 Vibration     3          0.613              1.919              2.889
 Vibration     4          0.628              1.872              2.373
 Vibration     5          0.656              1.782              1.817
 Vibration     6          0.666              1.752              1.686
 Vibration     7          0.672              1.735              1.620
 Vibration     8          0.703              1.643              1.330
 Vibration     9          0.780              1.434              0.904
 Vibration    10          0.822              1.330              0.754
 Vibration    11          0.862              1.236              0.642
 Vibration    12          0.960              1.028              0.446

 Optimization completed.
    -- Stationary point found.
 Normal termination of Gaussian 16 at Sun Jul 18 13:54:14 2021.

 ----------------------------------------------------------------------
 #p b3lyp/6-31G(d) scrf=(iefpcm,read,solvent=water) geom=allcheck guess
 =read
 ----------------------------------------------------------------------

 Structure from the checkpoint file:  "SET_328_BBB256_conf1.geo_180_300_120.chk"
 ---------------------------------------------
 SET_328_BBB256_conf1.geo_180_300_120 geometry
 ---------------------------------------------
 Charge =  1 Multiplicity = 1

 SCF Done:  E(RB3LYP) =  -422.060208386     A.U. after    1 cycles
 Normal termination of Gaussian 16 at Sun Jul 18 13:54:19 2021.

 -----------------------------
 #p B3LYP/6-31G* geom=allcheck
 -----------------------------

 Structure from the checkpoint file:  "SET_328_BBB256_conf1.geo_180_300_120.chk"
 ---------------------------------------------
 SET_328_BBB256_conf1.geo_180_300_120 geometry
 ---------------------------------------------
 Charge =  1 Multiplicity = 1

 SCF Done:  E(RB3LYP) =  -421.971594328     A.U. after   14 cycles
 Normal termination of Gaussian 16 at Sun Jul 18 13:54:36 2021.
 Gaussian 16:  ES64L-G16RevB.01 20-Dec-2017

 --------------------------------------------------------
 #p mp2/aug-cc-pVDZ scf=tight maxdisk=180GB geom=allcheck
 --------------------------------------------------------

 Structure from the checkpoint file:  "SET_328_BBB256_conf1.geo_180_300_120.chk"
 ---------------------------------------------
 SET_328_BBB256_conf1.geo_180_300_120 geometry
 ---------------------------------------------
 Charge =  1 Multiplicity = 1

                         Standard orientation:
 ---------------------------------------------------------------------
 Center     Atomic      Atomic             Coordinates (Angstroms)
 Number     Number       Type             X           Y           Z
 ---------------------------------------------------------------------
      1          6           0       -3.464752    0.973976   -0.324005
      2          1           0       -4.313242    0.292566   -0.362273
      3          1           0       -3.161857    1.253826   -1.331631
      4          1           0       -3.722019    1.862177    0.251316
      5          7           0       -2.322443    0.290940    0.342520
      6          1           0       -2.569612    0.076251    1.319231
      7          6           0       -1.867622   -0.963821   -0.343153
      8          1           0       -1.706899   -0.704508   -1.390239
      9          1           0       -2.680578   -1.688526   -0.280338
     10          6           0       -0.592455   -1.509657    0.297477
     11          1           0       -0.388297   -2.487669   -0.142967
     12          1           0       -0.773212   -1.685583    1.365002
     13          6           0        0.623880   -0.621925    0.129310
     14          7           0        0.434996    0.706699    0.237379
     15          6           0        1.494087    1.519976    0.119720
     16          1           0        1.292012    2.583326    0.209663
     17          6           0        2.788046    1.057498   -0.102321
     18          1           0        3.611346    1.755897   -0.184590
     19          6           0        2.985227   -0.318267   -0.219498
     20          1           0        3.975520   -0.721621   -0.400773
     21          6           0        1.888530   -1.168997   -0.106519
     22          1           0        2.001102   -2.242799   -0.200459
     23          1           0       -1.481779    0.910496    0.382696
 ---------------------------------------------------------------------

 SCF Done:  E(RHF) =  -419.269438618     A.U. after   14 cycles
 E2 =    -0.1460976630D+01 EUMP2 =    -0.42073041524872D+03

 The electronic state is 1-A.
 Alpha  occ. eigenvalues --  -15.84579 -15.71448 -11.45523 -11.44920 -11.42705
 Alpha  occ. eigenvalues --  -11.41240 -11.40073 -11.38874 -11.37173 -11.36753
 Alpha  occ. eigenvalues --   -1.47623  -1.39976  -1.23048  -1.21528  -1.15838
 Alpha  occ. eigenvalues --   -1.11151  -1.04648  -0.99246  -0.95873  -0.93801
 Alpha  occ. eigenvalues --   -0.84459  -0.83527  -0.82369  -0.79263  -0.78144
 Alpha  occ. eigenvalues --   -0.75613  -0.73443  -0.72973  -0.71011  -0.70452
 Alpha  occ. eigenvalues --   -0.69134  -0.67972  -0.65720  -0.63993  -0.56063
 Alpha  occ. eigenvalues --   -0.51137  -0.46836
 Alpha virt. eigenvalues --   -0.08243  -0.06287  -0.06170  -0.05353  -0.03892
 Alpha virt. eigenvalues --   -0.03617  -0.03487  -0.03331  -0.03017  -0.01918
 Alpha virt. eigenvalues --   -0.01773  -0.01517  -0.01009  -0.00312   0.00344

 Mulliken charges:
               1
     1  C    0.781346
     2  H   -0.067502
     3  H   -0.083399
     4  H   -0.121646
     5  N   -0.645458
     6  H    0.225979
     7  C    1.027208
     8  H   -0.245642
     9  H   -0.214599
    10  C    0.326067
    11  H    0.007024
    12  H    0.030608
    13  C   -0.124476
    14  N   -0.621733
    15  C    0.452185
    16  H   -0.412269
    17  C    0.835723
    18  H   -0.402699
    19  C   -0.160731
    20  H   -0.388548
    21  C    1.129465
    22  H   -0.567584
    23  H    0.240680
 Sum of Mulliken charges =   1.00000

 Dipole moment (field-independent basis, Debye):
    X=             -6.0915    Y=             -0.0746    Z=              0.3777  Tot=              6.1037
 Quadrupole moment (field-independent basis, Debye-Ang):
   XX=            -17.0473   YY=            -47.0679   ZZ=            -58.6909
   XY=             -2.0281   XZ=             -3.0523   YZ=              0.3379

 Normal termination of Gaussian 16 at Sun Jul 18 13:57:57 2021.
