 Gaussian 16, Revision B.01,

 -----------------------------------------------------------
 #p b3lyp/6-31G(d) opt freq scrf=(iefpcm,read,solvent=water)
 -----------------------------------------------------------

 ---------------------------------------------
 SET_328_BBB301_conf1.geo_090_285_255 geometry
 ---------------------------------------------
 Symbolic Z-matrix:
 Charge =  1 Multiplicity = 1

 SCF Done:  E(RB3LYP) =  -788.820387399     A.U. after   12 cycles
 SCF Done:  E(RB3LYP) =  -788.874021303     A.U. after   11 cycles
 SCF Done:  E(RB3LYP) =  -788.907206476     A.U. after   11 cycles
 SCF Done:  E(RB3LYP) =  -788.913621886     A.U. after   10 cycles
 SCF Done:  E(RB3LYP) =  -788.916311213     A.U. after   11 cycles
 SCF Done:  E(RB3LYP) =  -788.919259167     A.U. after   12 cycles
 SCF Done:  E(RB3LYP) =  -788.920112846     A.U. after   10 cycles
 SCF Done:  E(RB3LYP) =  -788.920951239     A.U. after   10 cycles
 SCF Done:  E(RB3LYP) =  -788.921190825     A.U. after   12 cycles
 SCF Done:  E(RB3LYP) =  -788.922557971     A.U. after   10 cycles
 SCF Done:  E(RB3LYP) =  -788.924549177     A.U. after    9 cycles
 SCF Done:  E(RB3LYP) =  -788.924512192     A.U. after    8 cycles
 SCF Done:  E(RB3LYP) =  -788.924511849     A.U. after    8 cycles
 SCF Done:  E(RB3LYP) =  -788.924512842     A.U. after    7 cycles
 SCF Done:  E(RB3LYP) =  -788.924512814     A.U. after    6 cycles
 SCF Done:  E(RB3LYP) =  -788.924512843     A.U. after    6 cycles
 Optimization completed.
    -- Stationary point found.
 Normal termination of Gaussian 16 at Sun Jul 18 15:05:01 2021.

 --------------------------------------------------------------------
 #P Geom=AllCheck Guess=TCheck SCRF=Check GenChk RB3LYP/6-31G(d) Freq
 --------------------------------------------------------------------

 Structure from the checkpoint file:  "SET_328_BBB301_conf1.geo_090_285_255.chk"
 ---------------------------------------------
 SET_328_BBB301_conf1.geo_090_285_255 geometry
 ---------------------------------------------
 Charge =  1 Multiplicity = 1

 SCF Done:  E(RB3LYP) =  -788.924512843     A.U. after    1 cycles

  Exact polarizability: 229.118 -17.525 205.789 -24.802 -22.690 164.195
 Approx polarizability: 241.475 -21.603 230.078 -31.036 -27.212 181.577

                      1                      2                      3
                      A                      A                      A
 Frequencies --     20.2634                52.1698                61.4808
 Red. masses --      4.8811                 4.2504                 2.8878
 Frc consts  --      0.0012                 0.0068                 0.0064
 IR Inten    --      1.8835                 2.2220                 1.4040

                      4                      5                      6
                      A                      A                      A
 Frequencies --     82.1589               107.0280               131.8408
 Red. masses --      4.8628                 4.3471                 2.4110
 Frc consts  --      0.0193                 0.0293                 0.0247
 IR Inten    --     11.0245                 9.2934                 7.4773

                      7                      8                      9
                      A                      A                      A
 Frequencies --    139.9294               159.5148               180.2014
 Red. masses --      4.3513                 4.0084                 3.0364
 Frc consts  --      0.0502                 0.0601                 0.0581
 IR Inten    --      3.4867                 8.2347                 0.4969

                     10                     11                     12
                      A                      A                      A
 Frequencies --    201.6060               206.5876               261.6450
 Red. masses --      3.1308                 1.0946                 2.5405
 Frc consts  --      0.0750                 0.0275                 0.1025
 IR Inten    --      8.7312                 1.6201                 9.0629

                     13                     14                     15
                      A                      A                      A
 Frequencies --    271.2373               277.9516               300.9783
 Red. masses --      1.1695                 1.1444                 2.6357
 Frc consts  --      0.0507                 0.0521                 0.1407
 IR Inten    --      1.9354                 2.4151                30.4420

                     16                     17                     18
                      A                      A                      A
 Frequencies --    324.8889               329.0160               337.1444
 Red. masses --      2.8265                 1.3717                 2.6057
 Frc consts  --      0.1758                 0.0875                 0.1745
 IR Inten    --      2.9270               196.0500                21.3147

                     19                     20                     21
                      A                      A                      A
 Frequencies --    347.9623               364.0523               401.2472
 Red. masses --      2.2182                 4.8601                 3.4494
 Frc consts  --      0.1582                 0.3795                 0.3272
 IR Inten    --      1.3250                 1.6498                15.1829

                     22                     23                     24
                      A                      A                      A
 Frequencies --    420.5765               425.8797               446.8032
 Red. masses --      2.3302                 1.1714                 2.1982
 Frc consts  --      0.2429                 0.1252                 0.2586
 IR Inten    --     10.0753               226.0783                21.6354

                     25                     26                     27
                      A                      A                      A
 Frequencies --    457.0302               470.6243               485.4528
 Red. masses --      1.8286                 2.5625                 3.0347
 Frc consts  --      0.2250                 0.3344                 0.4214
 IR Inten    --    121.5524                 7.5376                15.1938

                     28                     29                     30
                      A                      A                      A
 Frequencies --    504.3381               531.0473               569.3809
 Red. masses --      1.6854                 4.3534                 3.6739
 Frc consts  --      0.2526                 0.7234                 0.7018
 IR Inten    --    127.2070                36.6060                11.6052

                     31                     32                     33
                      A                      A                      A
 Frequencies --    628.1028               681.3994               705.7633
 Red. masses --      4.7730                 4.6889                 3.9559
 Frc consts  --      1.1094                 1.2827                 1.1609
 IR Inten    --      2.8001                12.3006                13.1935

                     34                     35                     36
                      A                      A                      A
 Frequencies --    760.3929               781.9386               790.2271
 Red. masses --      4.1415                 4.1210                 3.0116
 Frc consts  --      1.4108                 1.4846                 1.1080
 IR Inten    --      5.2097                16.3962                25.8214

                     37                     38                     39
                      A                      A                      A
 Frequencies --    820.8715               832.5367               880.5223
 Red. masses --      1.3044                 1.5768                 2.7316
 Frc consts  --      0.5179                 0.6439                 1.2478
 IR Inten    --     19.2543                35.7090                14.1658

                     40                     41                     42
                      A                      A                      A
 Frequencies --    893.2787               938.9371               943.0758
 Red. masses --      3.8210                 1.5495                 1.4735
 Frc consts  --      1.7964                 0.8048                 0.7721
 IR Inten    --      4.9168                 1.9782                 3.2791

                     43                     44                     45
                      A                      A                      A
 Frequencies --    946.0704               952.1497               953.0680
 Red. masses --      1.5495                 1.9803                 1.4873
 Frc consts  --      0.8171                 1.0578                 0.7960
 IR Inten    --      0.7435                19.4663                 8.2606

                     46                     47                     48
                      A                      A                      A
 Frequencies --    981.0526               993.1371              1000.7921
 Red. masses --      1.2279                 1.7381                 2.4663
 Frc consts  --      0.6963                 1.0100                 1.4554
 IR Inten    --      1.0888                42.8519                38.2732

                     49                     50                     51
                      A                      A                      A
 Frequencies --   1043.5395              1050.0777              1072.4004
 Red. masses --      1.9284                 4.7875                 1.6161
 Frc consts  --      1.2373                 3.1103                 1.0951
 IR Inten    --     22.7181               136.4999                37.2735

                     52                     53                     54
                      A                      A                      A
 Frequencies --   1091.3163              1108.4350              1130.3923
 Red. masses --      2.2786                 2.2417                 2.2255
 Frc consts  --      1.5989                 1.6228                 1.6755
 IR Inten    --     37.0195               108.0708               171.2002

                     55                     56                     57
                      A                      A                      A
 Frequencies --   1178.5182              1199.0390              1217.9368
 Red. masses --      1.5898                 1.2340                 1.4678
 Frc consts  --      1.3010                 1.0453                 1.2828
 IR Inten    --      1.0603                63.4009               208.3553

                     58                     59                     60
                      A                      A                      A
 Frequencies --   1219.3570              1238.1540              1263.5331
 Red. masses --      1.5128                 1.4726                 2.1125
 Frc consts  --      1.3252                 1.3301                 1.9871
 IR Inten    --     73.3984                 6.8114                26.1343

                     61                     62                     63
                      A                      A                      A
 Frequencies --   1267.1541              1289.7703              1298.5992
 Red. masses --      2.0080                 1.7583                 3.3801
 Frc consts  --      1.8996                 1.7233                 3.3584
 IR Inten    --     39.7526                33.3840               129.9273

                     64                     65                     66
                      A                      A                      A
 Frequencies --   1326.7204              1331.8600              1348.3688
 Red. masses --      1.6669                 1.4390                 1.5603
 Frc consts  --      1.7287                 1.5039                 1.6714
 IR Inten    --      5.0062                53.8969                69.0538

                     67                     68                     69
                      A                      A                      A
 Frequencies --   1377.3341              1388.7911              1406.1863
 Red. masses --      3.6877                 1.2780                 1.2698
 Frc consts  --      4.1218                 1.4523                 1.4793
 IR Inten    --     35.2854                 9.8417                17.3953

                     70                     71                     72
                      A                      A                      A
 Frequencies --   1424.0577              1431.4517              1437.1338
 Red. masses --      1.2916                 1.2264                 1.2624
 Frc consts  --      1.5433                 1.4806                 1.5362
 IR Inten    --     27.2943               107.0271                65.2250

                     73                     74                     75
                      A                      A                      A
 Frequencies --   1439.5148              1458.2212              1458.8983
 Red. masses --      1.2550                 1.2232                 1.1494
 Frc consts  --      1.5322                 1.5325                 1.4413
 IR Inten    --     95.7609                12.0653                19.2269

                     76                     77                     78
                      A                      A                      A
 Frequencies --   1474.5343              1494.4002              1502.0029
 Red. masses --      3.2481                 1.1421                 1.0494
 Frc consts  --      4.1609                 1.5028                 1.3948
 IR Inten    --     54.1171                84.5154                 1.5241

                     79                     80                     81
                      A                      A                      A
 Frequencies --   1507.1760              1511.9267              1518.7015
 Red. masses --      1.0470                 1.0703                 1.1015
 Frc consts  --      1.4013                 1.4415                 1.4969
 IR Inten    --      1.3629                18.3921                 5.3577

                     82                     83                     84
                      A                      A                      A
 Frequencies --   1519.8483              1530.2516              1532.4655
 Red. masses --      1.0853                 1.0753                 1.0616
 Frc consts  --      1.4771                 1.4836                 1.4689
 IR Inten    --     28.7743                 1.8301                18.0351

                     85                     86                     87
                      A                      A                      A
 Frequencies --   1543.3276              1551.4081              1628.6707
 Red. masses --      1.1197                 2.5871                 1.0730
 Frc consts  --      1.5714                 3.6688                 1.6770
 IR Inten    --     44.0860                88.3421               116.8693

                     88                     89                     90
                      A                      A                      A
 Frequencies --   1650.9286              1667.2676              3024.7180
 Red. masses --      6.0776                 6.2691                 1.0695
 Frc consts  --      9.7598                10.2675                 5.7650
 IR Inten    --      9.9497                62.0691                99.1194

                     91                     92                     93
                      A                      A                      A
 Frequencies --   3071.2363              3071.9836              3082.9501
 Red. masses --      1.0368                 1.0846                 1.0371
 Frc consts  --      5.7618                 6.0308                 5.8079
 IR Inten    --     26.0522                33.2693                18.6436

                     94                     95                     96
                      A                      A                      A
 Frequencies --   3092.2608              3122.0485              3142.3732
 Red. masses --      1.0363                 1.0945                 1.1033
 Frc consts  --      5.8384                 6.2853                 6.4188
 IR Inten    --      8.4445                55.6230                29.7463

                     97                     98                     99
                      A                      A                      A
 Frequencies --   3151.5336              3153.5083              3157.7214
 Red. masses --      1.0915                 1.0803                 1.0947
 Frc consts  --      6.3874                 6.3297                 6.4315
 IR Inten    --      1.6719                 0.7591                43.7724

                    100                    101                    102
                      A                      A                      A
 Frequencies --   3161.3551              3165.5731              3168.0038
 Red. masses --      1.1028                 1.1023                 1.0980
 Frc consts  --      6.4939                 6.5084                 6.4929
 IR Inten    --     10.5707                32.2769                62.7211

                    103                    104                    105
                      A                      A                      A
 Frequencies --   3204.9695              3213.6052              3223.4959
 Red. masses --      1.0895                 1.1072                 1.0896
 Frc consts  --      6.5934                 6.7371                 6.6706
 IR Inten    --     26.4283                 6.0936                24.3253

                    106                    107                    108
                      A                      A                      A
 Frequencies --   3225.4407              3387.9362              3450.2834
 Red. masses --      1.0929                 1.0588                 1.0906
 Frc consts  --      6.6992                 7.1606                 7.6495
 IR Inten    --     14.3751               113.2969               157.4333

                    109                    110                    111
                      A                      A                      A
 Frequencies --   3705.6187              3706.4103              3710.7756
 Red. masses --      1.0667                 1.0661                 1.0661
 Frc consts  --      8.6301                 8.6289                 8.6494
 IR Inten    --     96.8996               212.0423                86.4565

 - Thermochemistry -
 -------------------
 Temperature   298.150 Kelvin.  Pressure   1.00000 Atm.
 Atom     1 has atomic number  6 and mass  12.00000

 Molecular mass:   240.15997 amu.
 Principal axes and moments of inertia in atomic units:
                           1         2         3
     Eigenvalues --  2244.179048567.528339046.02556
           X            0.99995   0.00938   0.00437
           Y           -0.00930   0.99978  -0.01891
           Z           -0.00455   0.01887   0.99981
 This molecule is an asymmetric top.
 Rotational symmetry number  1.
 Warning -- assumption of classical behavior for rotation
           may cause significant error
 Rotational temperatures (Kelvin)      0.03859     0.01011     0.00957
 Rotational constants (GHZ):           0.80419     0.21065     0.19951
 Zero-point vibrational energy     908425.2 (Joules/Mol)
                                  217.11882 (Kcal/Mol)
 Warning -- explicit consideration of  30 degrees of freedom as
           vibrations may cause significant error
 Vibrational temperatures:     29.15    75.06    88.46   118.21   153.99
          (Kelvin)            189.69   201.33   229.51   259.27   290.07
                              297.23   376.45   390.25   399.91   433.04
                              467.44   473.38   485.08   500.64   523.79
                              577.31   605.12   612.75   642.85   657.56
                              677.12   698.46   725.63   764.06   819.21
                              903.70   980.38  1015.44  1094.04  1125.04
                             1136.96  1181.05  1197.83  1266.88  1285.23
                             1350.92  1356.88  1361.18  1369.93  1371.25
                             1411.52  1428.90  1439.92  1501.42  1510.83
                             1542.95  1570.16  1594.79  1626.38  1695.62
                             1725.15  1752.34  1754.38  1781.43  1817.94
                             1823.15  1855.69  1868.39  1908.85  1916.25
                             1940.00  1981.68  1998.16  2023.19  2048.90
                             2059.54  2067.72  2071.14  2098.06  2099.03
                             2121.53  2150.11  2161.05  2168.49  2175.33
                             2185.07  2186.72  2201.69  2204.88  2220.50
                             2232.13  2343.29  2375.32  2398.83  4351.89
                             4418.82  4419.90  4435.68  4449.07  4491.93
                             4521.17  4534.35  4537.20  4543.26  4548.48
                             4554.55  4558.05  4611.24  4623.66  4637.89
                             4640.69  4874.48  4964.19  5331.56  5332.70
                             5338.98

 Zero-point correction=                           0.346001 (Hartree/Particle)
 Thermal correction to Energy=                    0.364341
 Thermal correction to Enthalpy=                  0.365285
 Thermal correction to Gibbs Free Energy=         0.299902
 Sum of electronic and zero-point Energies=           -788.578512
 Sum of electronic and thermal Energies=              -788.560172
 Sum of electronic and thermal Enthalpies=            -788.559228
 Sum of electronic and thermal Free Energies=         -788.624611

                     E (Thermal)             CV                S
                      KCal/Mol        Cal/Mol-Kelvin    Cal/Mol-Kelvin
 Total                  228.627             70.946            137.609
 Electronic               0.000              0.000              0.000
 Translational            0.889              2.981             42.330
 Rotational               0.889              2.981             33.519
 Vibrational            226.850             64.985             61.761
 Vibration     1          0.593              1.986              6.608
 Vibration     2          0.596              1.977              4.733
 Vibration     3          0.597              1.973              4.409
 Vibration     4          0.600              1.961              3.839
 Vibration     5          0.606              1.944              3.322
 Vibration     6          0.612              1.922              2.919
 Vibration     7          0.615              1.913              2.805
 Vibration     8          0.621              1.892              2.556
 Vibration     9          0.629              1.867              2.326
 Vibration    10          0.638              1.838              2.118
 Vibration    11          0.641              1.830              2.074
 Vibration    12          0.669              1.743              1.651
 Vibration    13          0.675              1.726              1.588
 Vibration    14          0.679              1.714              1.546
 Vibration    15          0.693              1.672              1.411
 Vibration    16          0.709              1.626              1.285
 Vibration    17          0.712              1.618              1.265
 Vibration    18          0.718              1.601              1.226
 Vibration    19          0.726              1.579              1.175
 Vibration    20          0.738              1.546              1.105
 Vibration    21          0.767              1.467              0.958
 Vibration    22          0.783              1.426              0.890
 Vibration    23          0.788              1.414              0.872
 Vibration    24          0.806              1.368              0.806
 Vibration    25          0.815              1.345              0.775
 Vibration    26          0.828              1.315              0.736
 Vibration    27          0.842              1.282              0.696
 Vibration    28          0.860              1.240              0.647
 Vibration    29          0.886              1.181              0.585
 Vibration    30          0.925              1.097              0.505

                           ! Non-Optimized Parameters !
 Normal termination of Gaussian 16 at Sun Jul 18 15:18:31 2021.

 ----------------------------------------------------------------------
 #p b3lyp/6-31G(d) scrf=(iefpcm,read,solvent=water) geom=allcheck guess
 =read
 ----------------------------------------------------------------------

 Structure from the checkpoint file:  "SET_328_BBB301_conf1.geo_090_285_255.chk"
 ---------------------------------------------
 SET_328_BBB301_conf1.geo_090_285_255 geometry
 ---------------------------------------------
 Charge =  1 Multiplicity = 1

 SCF Done:  E(RB3LYP) =  -788.924512843     A.U. after    1 cycles
 Normal termination of Gaussian 16 at Sun Jul 18 15:18:43 2021.

 -----------------------------
 #p B3LYP/6-31G* geom=allcheck
 -----------------------------

 Structure from the checkpoint file:  "SET_328_BBB301_conf1.geo_090_285_255.chk"
 ---------------------------------------------
 SET_328_BBB301_conf1.geo_090_285_255 geometry
 ---------------------------------------------
 Charge =  1 Multiplicity = 1

 SCF Done:  E(RB3LYP) =  -788.805980412     A.U. after   14 cycles
 Normal termination of Gaussian 16 at Sun Jul 18 15:19:34 2021.
 Gaussian 16:  ES64L-G16RevB.01 20-Dec-2017

 --------------------------------------------------------
 #p mp2/aug-cc-pVDZ scf=tight maxdisk=180GB geom=allcheck
 --------------------------------------------------------

 Structure from the checkpoint file:  "SET_328_BBB301_conf1.geo_090_285_255.chk"
 ---------------------------------------------
 SET_328_BBB301_conf1.geo_090_285_255 geometry
 ---------------------------------------------
 Charge =  1 Multiplicity = 1

                         Standard orientation:
 ---------------------------------------------------------------------
 Center     Atomic      Atomic             Coordinates (Angstroms)
 Number     Number       Type             X           Y           Z
 ---------------------------------------------------------------------
      1          6           0        3.566057    1.142914    1.958482
      2          1           0        3.518337    0.326374    2.684426
      3          1           0        2.728302    1.822506    2.138760
      4          1           0        4.491901    1.695563    2.133983
      5          6           0        3.560808    0.611986    0.521129
      6          6           0        3.558853    1.760063   -0.489862
      7          1           0        2.685474    2.407775   -0.363202
      8          1           0        3.583204    1.400897   -1.520250
      9          1           0        4.452663    2.367511   -0.332714
     10          6           0        4.724837   -0.351059    0.286148
     11          1           0        4.733506   -0.743874   -0.732171
     12          1           0        4.694908   -1.191044    0.984929
     13          1           0        5.664286    0.183735    0.443023
     14          7           0        2.244785   -0.173890    0.370951
     15          1           0        1.466840    0.462511    0.602266
     16          6           0        1.974539   -0.814574   -0.956675
     17          1           0        2.777423   -1.524657   -1.141036
     18          1           0        2.013664   -0.032606   -1.712093
     19          6           0        0.626271   -1.553232   -1.003284
     20          8           0        0.623650   -2.680840   -0.135809
     21          1           0        0.548870   -2.367390    0.783607
     22          1           0        0.589500   -1.986865   -2.008415
     23          6           0       -0.588921   -0.649511   -0.811436
     24          6           0       -1.692793   -1.100857   -0.076992
     25          1           0       -1.659136   -2.087414    0.370915
     26          6           0       -2.841358   -0.327828    0.084686
     27          6           0       -4.031514   -0.825029    0.872351
     28          8           0       -4.383395    0.029262    1.960865
     29          1           0       -4.644549    0.877489    1.561164
     30          1           0       -3.795932   -1.799309    1.306868
     31          1           0       -4.890912   -0.961936    0.201657
     32          6           0       -2.884538    0.944040   -0.511075
     33          8           0       -4.032535    1.664538   -0.324532
     34          1           0       -3.955328    2.540068   -0.744305
     35          6           0       -1.798283    1.415993   -1.251139
     36          1           0       -1.835771    2.398152   -1.710699
     37          6           0       -0.663739    0.618565   -1.398929
     38          1           0        0.164247    1.002169   -1.984757
     39          1           0        2.231934   -0.904923    1.096760
 ---------------------------------------------------------------------

 SCF Done:  E(RHF) =  -784.020093516     A.U. after   15 cycles
 E2 =    -0.2637267145D+01 EUMP2 =    -0.78665736066107D+03

 The electronic state is 1-A.
 Alpha  occ. eigenvalues --  -20.72090 -20.71690 -20.64461 -15.85526 -11.46665
 Alpha  occ. eigenvalues --  -11.45034 -11.44905 -11.42738 -11.38515 -11.38503
 Alpha  occ. eigenvalues --  -11.38282 -11.37676 -11.37539 -11.37258 -11.36366
 Alpha  occ. eigenvalues --  -11.36352 -11.35593  -1.52398  -1.51990  -1.47799
 Alpha  occ. eigenvalues --   -1.43712  -1.28099  -1.25372  -1.18866  -1.15558
 Alpha  occ. eigenvalues --   -1.13263  -1.10828  -1.10198  -1.02307  -1.02023
 Alpha  occ. eigenvalues --   -0.96488  -0.95769  -0.93145  -0.91591  -0.85516
 Alpha  occ. eigenvalues --   -0.84969  -0.83297  -0.82167  -0.79746  -0.77874
 Alpha  occ. eigenvalues --   -0.76529  -0.75908  -0.75486  -0.74230  -0.73728
 Alpha  occ. eigenvalues --   -0.72069  -0.71768  -0.70421  -0.69831  -0.69592
 Alpha  occ. eigenvalues --   -0.69170  -0.68555  -0.67787  -0.67675  -0.65981
 Alpha  occ. eigenvalues --   -0.64456  -0.64345  -0.63781  -0.62545  -0.60559
 Alpha  occ. eigenvalues --   -0.59238  -0.58116  -0.53044  -0.45924  -0.43256
 Alpha virt. eigenvalues --   -0.07730  -0.06353  -0.05728  -0.04952  -0.04030
 Alpha virt. eigenvalues --   -0.03895  -0.03419  -0.03222  -0.02964  -0.02399
 Alpha virt. eigenvalues --   -0.01983  -0.01796  -0.01091  -0.00806  -0.00494

 Mulliken charges:
               1
     1  C    1.328305
     2  H    0.007484
     3  H    0.006518
     4  H    0.033412
     5  C   -3.381364
     6  C    1.218381
     7  H    0.012411
     8  H   -0.013226
     9  H   -0.036462
    10  C    1.300476
    11  H   -0.021105
    12  H   -0.005133
    13  H    0.014673
    14  N   -0.634591
    15  H    0.230841
    16  C    0.953753
    17  H   -0.239639
    18  H   -0.272373
    19  C    0.869205
    20  O   -0.770292
    21  H    0.135953
    22  H   -0.146180
    23  C    0.408896
    24  C    0.494800
    25  H   -0.781079
    26  C   -0.014649
    27  C    1.196059
    28  O   -0.728262
    29  H    0.198892
    30  H   -0.272699
    31  H    0.044513
    32  C    1.146307
    33  O   -1.059729
    34  H    0.252938
    35  C    0.120115
    36  H   -0.675556
    37  C    0.607234
    38  H   -0.724803
    39  H    0.195978
 Sum of Mulliken charges =   1.00000

 Dipole moment (field-independent basis, Debye):
    X=             10.3623    Y=              3.0770    Z=             -1.1104  Tot=             10.8664
 Quadrupole moment (field-independent basis, Debye-Ang):
   XX=            -56.4108   YY=            -90.1864   ZZ=            -98.6226
   XY=             -3.1266   XZ=             14.0022   YZ=             -4.9604

 Normal termination of Gaussian 16 at Sun Jul 18 16:09:43 2021.
