 Gaussian 16, Revision B.01,

 -----------------------------------------------------------
 #p b3lyp/6-31G(d) opt freq scrf=(iefpcm,read,solvent=water)
 -----------------------------------------------------------

 ---------------------------------------------
 SET_328_BBB301_conf1.geo_165_300_090 geometry
 ---------------------------------------------
 Symbolic Z-matrix:
 Charge =  1 Multiplicity = 1

 SCF Done:  E(RB3LYP) =  -788.844877128     A.U. after   12 cycles
 SCF Done:  E(RB3LYP) =  -788.887871331     A.U. after   11 cycles
 SCF Done:  E(RB3LYP) =  -788.874678444     A.U. after   12 cycles
 SCF Done:  E(RB3LYP) =  -788.909631349     A.U. after   10 cycles
 SCF Done:  E(RB3LYP) =  -788.916010904     A.U. after   10 cycles
 SCF Done:  E(RB3LYP) =  -788.918878857     A.U. after   10 cycles
 SCF Done:  E(RB3LYP) =  -788.920150417     A.U. after   10 cycles
 SCF Done:  E(RB3LYP) =  -788.921041603     A.U. after   10 cycles
 SCF Done:  E(RB3LYP) =  -788.922278429     A.U. after   10 cycles
 SCF Done:  E(RB3LYP) =  -788.923214762     A.U. after   11 cycles
 SCF Done:  E(RB3LYP) =  -788.927616722     A.U. after    8 cycles
 SCF Done:  E(RB3LYP) =  -788.927623155     A.U. after    8 cycles
 SCF Done:  E(RB3LYP) =  -788.927614535     A.U. after    8 cycles
 SCF Done:  E(RB3LYP) =  -788.927615199     A.U. after    6 cycles
 SCF Done:  E(RB3LYP) =  -788.927623212     A.U. after    8 cycles
 SCF Done:  E(RB3LYP) =  -788.927614616     A.U. after    8 cycles
 Optimization completed.
    -- Stationary point found.
 Normal termination of Gaussian 16 at Sun Jul 18 15:38:26 2021.

 --------------------------------------------------------------------
 #P Geom=AllCheck Guess=TCheck SCRF=Check GenChk RB3LYP/6-31G(d) Freq
 --------------------------------------------------------------------

 Structure from the checkpoint file:  "SET_328_BBB301_conf1.geo_165_300_090.chk"
 ---------------------------------------------
 SET_328_BBB301_conf1.geo_165_300_090 geometry
 ---------------------------------------------
 Charge =  1 Multiplicity = 1

 SCF Done:  E(RB3LYP) =  -788.927614616     A.U. after    1 cycles

  Exact polarizability: 239.634   2.942 213.577  28.572  -8.706 151.551
 Approx polarizability: 250.019   4.570 235.977  34.208  -9.863 166.518

                      1                      2                      3
                      A                      A                      A
 Frequencies --     32.7214                41.2638                48.5255
 Red. masses --      4.3970                 3.6573                 3.7361
 Frc consts  --      0.0028                 0.0037                 0.0052
 IR Inten    --      1.0422                 0.2833                 0.6260

                      4                      5                      6
                      A                      A                      A
 Frequencies --     65.6113                72.6559               127.8244
 Red. masses --      4.4574                 3.3867                 4.7926
 Frc consts  --      0.0113                 0.0105                 0.0461
 IR Inten    --      2.1308                 2.8137                 5.2381

                      7                      8                      9
                      A                      A                      A
 Frequencies --    139.8415               149.4796               191.1845
 Red. masses --      3.8446                 2.6311                 3.9018
 Frc consts  --      0.0443                 0.0346                 0.0840
 IR Inten    --     11.7534                 6.1948                 5.8213

                     10                     11                     12
                      A                      A                      A
 Frequencies --    194.3998               227.3978               245.5389
 Red. masses --      2.3156                 1.3338                 1.3133
 Frc consts  --      0.0516                 0.0406                 0.0466
 IR Inten    --      7.6266                 1.6314               143.9957

                     13                     14                     15
                      A                      A                      A
 Frequencies --    251.4497               275.8435               283.5557
 Red. masses --      1.5955                 1.1929                 1.6216
 Frc consts  --      0.0594                 0.0535                 0.0768
 IR Inten    --     60.9442                 3.4601                 3.2613

                     16                     17                     18
                      A                      A                      A
 Frequencies --    290.9876               307.1941               337.8289
 Red. masses --      1.8895                 2.7052                 2.1606
 Frc consts  --      0.0943                 0.1504                 0.1453
 IR Inten    --      2.8914                 5.6478                 4.5784

                     19                     20                     21
                      A                      A                      A
 Frequencies --    343.4364               363.9688               378.3512
 Red. masses --      2.5077                 2.6881                 1.4441
 Frc consts  --      0.1743                 0.2098                 0.1218
 IR Inten    --     12.8853                45.1833               176.6358

                     22                     23                     24
                      A                      A                      A
 Frequencies --    379.9774               405.9729               425.3506
 Red. masses --      1.1519                 3.4855                 2.1682
 Frc consts  --      0.0980                 0.3385                 0.2311
 IR Inten    --    169.3419                19.8277                 3.1031

                     25                     26                     27
                      A                      A                      A
 Frequencies --    443.9853               457.6568               489.4018
 Red. masses --      3.0303                 2.7051                 3.0560
 Frc consts  --      0.3519                 0.3338                 0.4313
 IR Inten    --     24.1347                23.1713                11.4104

                     28                     29                     30
                      A                      A                      A
 Frequencies --    503.5634               548.2485               574.8548
 Red. masses --      3.7700                 3.2382                 4.0229
 Frc consts  --      0.5633                 0.5735                 0.7833
 IR Inten    --     13.5629                 7.5305                27.3252

                     31                     32                     33
                      A                      A                      A
 Frequencies --    606.0072               656.9647               730.0129
 Red. masses --      4.7122                 4.4948                 4.4297
 Frc consts  --      1.0196                 1.1430                 1.3909
 IR Inten    --      7.6184                38.7675                 2.9416

                     34                     35                     36
                      A                      A                      A
 Frequencies --    759.9904               782.4472               805.4610
 Red. masses --      4.6024                 4.3392                 3.1339
 Frc consts  --      1.5662                 1.5652                 1.1979
 IR Inten    --      6.2438                 4.9996                15.2445

                     37                     38                     39
                      A                      A                      A
 Frequencies --    830.9350               838.3591               882.5755
 Red. masses --      1.4085                 1.5109                 2.8437
 Frc consts  --      0.5730                 0.6257                 1.3051
 IR Inten    --     18.2345                33.4972                 8.3951

                     40                     41                     42
                      A                      A                      A
 Frequencies --    930.0269               939.8233               947.5761
 Red. masses --      1.8471                 1.6659                 1.6215
 Frc consts  --      0.9413                 0.8669                 0.8578
 IR Inten    --     13.0109                49.1255                 0.4303

                     43                     44                     45
                      A                      A                      A
 Frequencies --    952.5757               957.7649               973.6171
 Red. masses --      1.5835                 1.3164                 2.6719
 Frc consts  --      0.8466                 0.7115                 1.4923
 IR Inten    --      1.7046                 3.2155                12.1930

                     46                     47                     48
                      A                      A                      A
 Frequencies --    991.1215              1012.9482              1020.8704
 Red. masses --      1.2199                 2.3617                 2.4510
 Frc consts  --      0.7060                 1.4277                 1.5050
 IR Inten    --      0.4439                17.7631                23.6018

                     49                     50                     51
                      A                      A                      A
 Frequencies --   1038.3675              1046.0049              1073.3025
 Red. masses --      1.9075                 5.3430                 1.8938
 Frc consts  --      1.2118                 3.4443                 1.2854
 IR Inten    --     17.9163                96.1016                82.3938

                     52                     53                     54
                      A                      A                      A
 Frequencies --   1087.5921              1117.8574              1136.8360
 Red. masses --      1.7157                 2.2884                 2.0376
 Frc consts  --      1.1957                 1.6848                 1.5516
 IR Inten    --     44.7121                43.3730               163.8399

                     55                     56                     57
                      A                      A                      A
 Frequencies --   1181.5824              1192.7649              1204.0158
 Red. masses --      1.5193                 1.2016                 1.3318
 Frc consts  --      1.2497                 1.0072                 1.1375
 IR Inten    --      9.8363                19.8492                58.5513

                     58                     59                     60
                      A                      A                      A
 Frequencies --   1232.2080              1242.1043              1256.5310
 Red. masses --      2.1472                 1.3404                 1.2566
 Frc consts  --      1.9209                 1.2184                 1.1689
 IR Inten    --    101.1565                84.5724                27.3592

                     61                     62                     63
                      A                      A                      A
 Frequencies --   1267.6226              1279.6919              1302.6401
 Red. masses --      2.0307                 1.4765                 1.7892
 Frc consts  --      1.9226                 1.4246                 1.7888
 IR Inten    --     46.0568                19.9624                25.6541

                     64                     65                     66
                      A                      A                      A
 Frequencies --   1313.1815              1321.5460              1338.1298
 Red. masses --      3.2879                 1.6994                 1.3674
 Frc consts  --      3.3405                 1.7487                 1.4426
 IR Inten    --    198.5945                64.5918                88.9816

                     67                     68                     69
                      A                      A                      A
 Frequencies --   1351.8588              1379.4855              1402.2136
 Red. masses --      1.3989                 2.0172                 1.7892
 Frc consts  --      1.5063                 2.2617                 2.0727
 IR Inten    --     51.6118                37.3897                42.9141

                     70                     71                     72
                      A                      A                      A
 Frequencies --   1426.4122              1433.4613              1436.0968
 Red. masses --      1.2686                 1.2186                 1.3656
 Frc consts  --      1.5208                 1.4753                 1.6593
 IR Inten    --     36.8316                11.2693                25.3068

                     73                     74                     75
                      A                      A                      A
 Frequencies --   1441.4220              1449.9503              1461.3052
 Red. masses --      1.2785                 1.2798                 1.6135
 Frc consts  --      1.5651                 1.5853                 2.0300
 IR Inten    --     97.3335                46.4378                27.9348

                     76                     77                     78
                      A                      A                      A
 Frequencies --   1472.1880              1490.2867              1495.5983
 Red. masses --      1.2351                 2.6018                 1.0509
 Frc consts  --      1.5772                 3.4046                 1.3850
 IR Inten    --     60.7953                83.0687                 1.3090

                     79                     80                     81
                      A                      A                      A
 Frequencies --   1501.1307              1506.6043              1508.2066
 Red. masses --      1.0778                 1.0490                 1.0450
 Frc consts  --      1.4309                 1.4028                 1.4005
 IR Inten    --      5.6206                 4.6615                 0.4980

                     82                     83                     84
                      A                      A                      A
 Frequencies --   1523.9062              1532.5131              1533.0589
 Red. masses --      1.0639                 1.0981                 1.0600
 Frc consts  --      1.4557                 1.5195                 1.4678
 IR Inten    --      2.3861                 4.5283                19.0152

                     85                     86                     87
                      A                      A                      A
 Frequencies --   1538.7408              1556.8103              1634.9525
 Red. masses --      1.0796                 2.7112                 1.0707
 Frc consts  --      1.5061                 3.8716                 1.6863
 IR Inten    --      4.8821                82.8376               117.9700

                     88                     89                     90
                      A                      A                      A
 Frequencies --   1654.2634              1670.4227              3026.9455
 Red. masses --      5.9679                 6.3983                 1.0579
 Frc consts  --      9.6224                10.5188                 5.7110
 IR Inten    --     20.4965                95.1946               102.2241

                     91                     92                     93
                      A                      A                      A
 Frequencies --   3045.4926              3068.7660              3072.4693
 Red. masses --      1.0831                 1.1054                 1.0364
 Frc consts  --      5.9189                 6.1332                 5.7645
 IR Inten    --     66.4330                73.5224                23.6757

                     94                     95                     96
                      A                      A                      A
 Frequencies --   3079.9012              3085.5974              3142.3297
 Red. masses --      1.0351                 1.0365                 1.0766
 Frc consts  --      5.7853                 5.8143                 6.2636
 IR Inten    --     23.2474                 6.9558                 6.0977

                     97                     98                     99
                      A                      A                      A
 Frequencies --   3146.4120              3151.9409              3153.1906
 Red. masses --      1.0900                 1.1017                 1.1016
 Frc consts  --      6.3577                 6.4486                 6.4531
 IR Inten    --     20.4945                 5.8184                 7.7282

                    100                    101                    102
                      A                      A                      A
 Frequencies --   3154.9798              3160.2795              3163.3781
 Red. masses --      1.1026                 1.1005                 1.1025
 Frc consts  --      6.4666                 6.4759                 6.5004
 IR Inten    --     52.5236                57.5260                40.7539

                    103                    104                    105
                      A                      A                      A
 Frequencies --   3190.5609              3209.7288              3210.2361
 Red. masses --      1.0880                 1.1091                 1.0938
 Frc consts  --      6.5252                 6.7323                 6.6414
 IR Inten    --     20.8614                 7.0015                31.8406

                    106                    107                    108
                      A                      A                      A
 Frequencies --   3218.7801              3377.5644              3428.3454
 Red. masses --      1.0896                 1.0565                 1.0926
 Frc consts  --      6.6512                 7.1013                 7.5661
 IR Inten    --      7.2959               119.9870               176.3647

                    109                    110                    111
                      A                      A                      A
 Frequencies --   3685.2840              3723.6696              3730.6925
 Red. masses --      1.0665                 1.0662                 1.0662
 Frc consts  --      8.5338                 8.7106                 8.7430
 IR Inten    --    129.1487                65.1055               213.5939

 - Thermochemistry -
 -------------------
 Temperature   298.150 Kelvin.  Pressure   1.00000 Atm.
 Atom     1 has atomic number  6 and mass  12.00000

 Molecular mass:   240.15997 amu.
 Principal axes and moments of inertia in atomic units:
                           1         2         3
     Eigenvalues --  1855.46572********************
           X            1.00000  -0.00160  -0.00268
           Y            0.00149   0.99919  -0.04017
           Z            0.00274   0.04017   0.99919
 This molecule is an asymmetric top.
 Rotational symmetry number  1.
 Warning -- assumption of classical behavior for rotation
           may cause significant error
 Rotational temperatures (Kelvin)      0.04668     0.00855     0.00815
 Rotational constants (GHZ):           0.97266     0.17811     0.16975
 Zero-point vibrational energy     906031.0 (Joules/Mol)
                                  216.54661 (Kcal/Mol)
 Warning -- explicit consideration of  31 degrees of freedom as
           vibrations may cause significant error
 Vibrational temperatures:     47.08    59.37    69.82    94.40   104.54
          (Kelvin)            183.91   201.20   215.07   275.07   279.70
                              327.17   353.28   361.78   396.88   407.97
                              418.67   441.98   486.06   494.13   523.67
                              544.36   546.70   584.10   611.98   638.80
                              658.47   704.14   724.52   788.81   827.09
                              871.91   945.23  1050.33  1093.46  1125.77
                             1158.88  1195.53  1206.21  1269.83  1338.10
                             1352.20  1363.35  1370.54  1378.01  1400.82
                             1426.00  1457.41  1468.80  1493.98  1504.97
                             1544.24  1564.80  1608.35  1635.65  1700.03
                             1716.12  1732.31  1772.87  1787.11  1807.87
                             1823.83  1841.19  1874.21  1889.38  1901.41
                             1925.27  1945.02  1984.77  2017.47  2052.29
                             2062.43  2066.22  2073.88  2086.16  2102.49
                             2118.15  2144.19  2151.83  2159.79  2167.67
                             2169.97  2192.56  2204.94  2205.73  2213.90
                             2239.90  2352.33  2380.12  2403.37  4355.10
                             4381.78  4415.27  4420.60  4431.29  4439.49
                             4521.11  4526.99  4534.94  4536.74  4539.31
                             4546.94  4551.40  4590.51  4618.08  4618.81
                             4631.11  4859.56  4932.62  5302.30  5357.53
                             5367.63

 Zero-point correction=                           0.345089 (Hartree/Particle)
 Thermal correction to Energy=                    0.363777
 Thermal correction to Enthalpy=                  0.364721
 Thermal correction to Gibbs Free Energy=         0.298236
 Sum of electronic and zero-point Energies=           -788.582526
 Sum of electronic and thermal Energies=              -788.563838
 Sum of electronic and thermal Enthalpies=            -788.562893
 Sum of electronic and thermal Free Energies=         -788.629379

                     E (Thermal)             CV                S
                      KCal/Mol        Cal/Mol-Kelvin    Cal/Mol-Kelvin
 Total                  228.274             71.295            139.931
 Electronic               0.000              0.000              0.000
 Translational            0.889              2.981             42.330
 Rotational               0.889              2.981             33.657
 Vibrational            226.496             65.333             63.944
 Vibration     1          0.594              1.983              5.657
 Vibration     2          0.594              1.981              5.197
 Vibration     3          0.595              1.978              4.877
 Vibration     4          0.597              1.971              4.281
 Vibration     5          0.599              1.967              4.080
 Vibration     6          0.611              1.925              2.979
 Vibration     7          0.615              1.913              2.806
 Vibration     8          0.618              1.903              2.679
 Vibration     9          0.634              1.852              2.216
 Vibration    10          0.635              1.848              2.185
 Vibration    11          0.651              1.799              1.899
 Vibration    12          0.660              1.770              1.762
 Vibration    13          0.663              1.760              1.720
 Vibration    14          0.677              1.718              1.559
 Vibration    15          0.682              1.704              1.512
 Vibration    16          0.687              1.691              1.468
 Vibration    17          0.697              1.660              1.377
 Vibration    18          0.718              1.600              1.222
 Vibration    19          0.722              1.589              1.196
 Vibration    20          0.738              1.546              1.105
 Vibration    21          0.749              1.516              1.046
 Vibration    22          0.750              1.513              1.039
 Vibration    23          0.771              1.457              0.941
 Vibration    24          0.787              1.415              0.874
 Vibration    25          0.803              1.374              0.814
 Vibration    26          0.816              1.344              0.773
 Vibration    27          0.845              1.274              0.685
 Vibration    28          0.859              1.242              0.649
 Vibration    29          0.903              1.144              0.548
 Vibration    30          0.931              1.086              0.495
 Vibration    31          0.965              1.019              0.439

 Optimization completed.
    -- Stationary point found.
 Normal termination of Gaussian 16 at Sun Jul 18 15:50:45 2021.

 ----------------------------------------------------------------------
 #p b3lyp/6-31G(d) scrf=(iefpcm,read,solvent=water) geom=allcheck guess
 =read
 ----------------------------------------------------------------------

 Structure from the checkpoint file:  "SET_328_BBB301_conf1.geo_165_300_090.chk"
 ---------------------------------------------
 SET_328_BBB301_conf1.geo_165_300_090 geometry
 ---------------------------------------------
 Charge =  1 Multiplicity = 1

 SCF Done:  E(RB3LYP) =  -788.927614616     A.U. after    1 cycles
 Normal termination of Gaussian 16 at Sun Jul 18 15:50:56 2021.

 -----------------------------
 #p B3LYP/6-31G* geom=allcheck
 -----------------------------

 Structure from the checkpoint file:  "SET_328_BBB301_conf1.geo_165_300_090.chk"
 ---------------------------------------------
 SET_328_BBB301_conf1.geo_165_300_090 geometry
 ---------------------------------------------
 Charge =  1 Multiplicity = 1

 SCF Done:  E(RB3LYP) =  -788.816867764     A.U. after   13 cycles
 Normal termination of Gaussian 16 at Sun Jul 18 15:51:37 2021.
 Gaussian 16:  ES64L-G16RevB.01 20-Dec-2017

 --------------------------------------------------------
 #p mp2/aug-cc-pVDZ scf=tight maxdisk=180GB geom=allcheck
 --------------------------------------------------------

 Structure from the checkpoint file:  "SET_328_BBB301_conf1.geo_165_300_090.chk"
 ---------------------------------------------
 SET_328_BBB301_conf1.geo_165_300_090 geometry
 ---------------------------------------------
 Charge =  1 Multiplicity = 1

                         Standard orientation:
 ---------------------------------------------------------------------
 Center     Atomic      Atomic             Coordinates (Angstroms)
 Number     Number       Type             X           Y           Z
 ---------------------------------------------------------------------
      1          6           0        3.777387    1.246025   -1.425884
      2          1           0        2.901101    1.037194   -2.042989
      3          1           0        4.627322    1.391419   -2.096731
      4          1           0        3.611343    2.180937   -0.883006
      5          6           0        4.099247    0.096468   -0.469287
      6          6           0        4.228105   -1.239664   -1.206413
      7          1           0        3.325435   -1.478398   -1.772472
      8          1           0        4.433217   -2.058327   -0.510676
      9          1           0        5.060004   -1.176069   -1.912650
     10          6           0        5.360267    0.406047    0.343083
     11          1           0        5.257936    1.349400    0.884789
     12          1           0        6.211264    0.495956   -0.335209
     13          1           0        5.581473   -0.389311    1.060584
     14          7           0        2.961756   -0.025262    0.553674
     15          1           0        3.213740   -0.767860    1.222601
     16          6           0        1.581674   -0.298677    0.037558
     17          1           0        1.580084   -1.276768   -0.438874
     18          1           0        1.346549    0.466783   -0.700571
     19          6           0        0.575553   -0.243523    1.187357
     20          8           0        0.747364    1.047427    1.765598
     21          1           0        0.204446    1.089220    2.574994
     22          1           0        0.831045   -1.026949    1.913690
     23          6           0       -0.832588   -0.484164    0.675514
     24          6           0       -1.599277    0.577323    0.183748
     25          1           0       -1.185727    1.579546    0.213454
     26          6           0       -2.881235    0.389331   -0.330090
     27          6           0       -3.695452    1.554756   -0.824261
     28          8           0       -4.628708    1.933028    0.195454
     29          1           0       -5.205432    2.614967   -0.189876
     30          1           0       -4.225656    1.272032   -1.741667
     31          1           0       -3.019958    2.387284   -1.061973
     32          6           0       -3.411769   -0.914361   -0.348266
     33          8           0       -4.661381   -1.073445   -0.864202
     34          1           0       -4.897829   -2.016999   -0.860586
     35          6           0       -2.661577   -1.987439    0.144439
     36          1           0       -3.081485   -2.988983    0.135033
     37          6           0       -1.384023   -1.768256    0.656000
     38          1           0       -0.814531   -2.609331    1.042653
     39          1           0        2.917296    0.841810    1.107982
 ---------------------------------------------------------------------

 SCF Done:  E(RHF) =  -784.034219620     A.U. after   16 cycles
 E2 =    -0.2632864613D+01 EUMP2 =    -0.78666708423241D+03

 The electronic state is 1-A.
 Alpha  occ. eigenvalues --  -20.71814 -20.69182 -20.64390 -15.84358 -11.45770
 Alpha  occ. eigenvalues --  -11.44627 -11.44146 -11.41111 -11.37809 -11.37801
 Alpha  occ. eigenvalues --  -11.37581 -11.37069 -11.35804 -11.35190 -11.34970
 Alpha  occ. eigenvalues --  -11.34144 -11.33890  -1.51929  -1.50107  -1.46782
 Alpha  occ. eigenvalues --   -1.43318  -1.26524  -1.24624  -1.18062  -1.14204
 Alpha  occ. eigenvalues --   -1.11496  -1.10079  -1.09246  -1.01670  -1.00509
 Alpha  occ. eigenvalues --   -0.95292  -0.94123  -0.92536  -0.89771  -0.84897
 Alpha  occ. eigenvalues --   -0.83061  -0.82535  -0.81854  -0.78045  -0.77448
 Alpha  occ. eigenvalues --   -0.76689  -0.75613  -0.74835  -0.72937  -0.71315
 Alpha  occ. eigenvalues --   -0.70918  -0.70379  -0.69056  -0.68895  -0.68260
 Alpha  occ. eigenvalues --   -0.68055  -0.67767  -0.67058  -0.66337  -0.65956
 Alpha  occ. eigenvalues --   -0.63578  -0.63367  -0.63236  -0.61238  -0.59656
 Alpha  occ. eigenvalues --   -0.58075  -0.56709  -0.52519  -0.44317  -0.41445
 Alpha virt. eigenvalues --   -0.07656  -0.05636  -0.05547  -0.04773  -0.03600
 Alpha virt. eigenvalues --   -0.03403  -0.03307  -0.03166  -0.02885  -0.02157
 Alpha virt. eigenvalues --   -0.01624  -0.01213  -0.00944  -0.00758  -0.00122

 Mulliken charges:
               1
     1  C    1.296708
     2  H   -0.012927
     3  H   -0.021790
     4  H    0.005550
     5  C   -3.442030
     6  C    1.311915
     7  H   -0.039217
     8  H   -0.023525
     9  H    0.026027
    10  C    1.312510
    11  H   -0.001124
    12  H    0.035724
    13  H   -0.007704
    14  N   -0.765462
    15  H    0.231389
    16  C    0.764275
    17  H   -0.235514
    18  H   -0.244239
    19  C    1.524974
    20  O   -0.900239
    21  H    0.203934
    22  H   -0.329347
    23  C    0.562436
    24  C    0.213892
    25  H   -0.856408
    26  C   -0.020438
    27  C    1.394084
    28  O   -0.680632
    29  H    0.138071
    30  H   -0.070128
    31  H   -0.189681
    32  C    0.969093
    33  O   -0.984422
    34  H    0.240473
    35  C    0.260835
    36  H   -0.618094
    37  C    0.371760
    38  H   -0.707392
    39  H    0.286660
 Sum of Mulliken charges =   1.00000

 Dipole moment (field-independent basis, Debye):
    X=             11.2382    Y=             -1.8599    Z=              0.0416  Tot=             11.3912
 Quadrupole moment (field-independent basis, Debye-Ang):
   XX=            -37.5088   YY=            -84.4492   ZZ=            -93.4677
   XY=              2.9361   XZ=              7.5415   YZ=             -4.1893

 Normal termination of Gaussian 16 at Sun Jul 18 16:27:53 2021.
