 Gaussian 16, Revision B.01,

 -----------------------------------------------------------
 #p b3lyp/6-31G(d) opt freq scrf=(iefpcm,read,solvent=water)
 -----------------------------------------------------------

 --------------------------------------------
 SET_328_BBB30_conf1.geo_285_180_285 geometry
 --------------------------------------------
 Symbolic Z-matrix:
 Charge =  1 Multiplicity = 1

 SCF Done:  E(RB3LYP) =  -445.284055091     A.U. after   12 cycles
 SCF Done:  E(RB3LYP) =  -445.315975679     A.U. after   11 cycles
 SCF Done:  E(RB3LYP) =  -445.327746742     A.U. after   11 cycles
 SCF Done:  E(RB3LYP) =  -445.329263517     A.U. after    9 cycles
 SCF Done:  E(RB3LYP) =  -445.329599619     A.U. after    9 cycles
 SCF Done:  E(RB3LYP) =  -445.329742299     A.U. after    8 cycles
 SCF Done:  E(RB3LYP) =  -445.329821577     A.U. after    9 cycles
 SCF Done:  E(RB3LYP) =  -445.329873331     A.U. after    8 cycles
 SCF Done:  E(RB3LYP) =  -445.329878692     A.U. after    8 cycles
 SCF Done:  E(RB3LYP) =  -445.329898035     A.U. after    8 cycles
 SCF Done:  E(RB3LYP) =  -445.329894006     A.U. after    7 cycles
 SCF Done:  E(RB3LYP) =  -445.329903881     A.U. after    7 cycles
 SCF Done:  E(RB3LYP) =  -445.329901369     A.U. after    7 cycles
 SCF Done:  E(RB3LYP) =  -445.329900883     A.U. after    7 cycles
 SCF Done:  E(RB3LYP) =  -445.329901921     A.U. after    7 cycles
 Optimization completed.
    -- Stationary point found.
 Normal termination of Gaussian 16 at Sun Jul 18 14:27:45 2021.

 --------------------------------------------------------------------
 #P Geom=AllCheck Guess=TCheck SCRF=Check GenChk RB3LYP/6-31G(d) Freq
 --------------------------------------------------------------------

 Structure from the checkpoint file:  "SET_328_BBB30_conf1.geo_285_180_285.chk"
 --------------------------------------------
 SET_328_BBB30_conf1.geo_285_180_285 geometry
 --------------------------------------------
 Charge =  1 Multiplicity = 1

 SCF Done:  E(RB3LYP) =  -445.329901921     A.U. after    1 cycles

  Exact polarizability: 176.728  -6.288 143.500 -13.330 -24.868 100.378
 Approx polarizability: 186.931  -7.731 162.299 -15.977 -31.696 112.740

                      1                      2                      3
                      A                      A                      A
 Frequencies --     34.1834                64.7467                98.3192
 Red. masses --      3.2656                 3.1777                 3.7054
 Frc consts  --      0.0022                 0.0078                 0.0211
 IR Inten    --      0.0766                 1.9491                 2.5854

                      4                      5                      6
                      A                      A                      A
 Frequencies --    112.4620               196.3505               221.4308
 Red. masses --      1.7137                 1.2772                 1.4463
 Frc consts  --      0.0128                 0.0290                 0.0418
 IR Inten    --      7.5401                 3.0728                 0.6366

                      7                      8                      9
                      A                      A                      A
 Frequencies --    241.5058               259.3488               347.4537
 Red. masses --      3.5150                 1.7932                 2.1426
 Frc consts  --      0.1208                 0.0711                 0.1524
 IR Inten    --      1.7321                 6.1601                 1.3374

                     10                     11                     12
                      A                      A                      A
 Frequencies --    378.8641               399.3114               418.8323
 Red. masses --      2.5849                 2.2776                 2.9679
 Frc consts  --      0.2186                 0.2140                 0.3067
 IR Inten    --      5.5542                 3.9490                 0.0242

                     13                     14                     15
                      A                      A                      A
 Frequencies --    461.0823               512.7909               603.1352
 Red. masses --      2.6853                 2.9278                 4.5676
 Frc consts  --      0.3364                 0.4536                 0.9790
 IR Inten    --      3.2790                 6.7039                 5.5249

                     16                     17                     18
                      A                      A                      A
 Frequencies --    634.5545               716.2557               756.0443
 Red. masses --      6.2927                 2.1294                 1.6558
 Frc consts  --      1.4929                 0.6436                 0.5576
 IR Inten    --      0.1942                28.8055                61.7430

                     19                     20                     21
                      A                      A                      A
 Frequencies --    810.7830               821.9009               863.5615
 Red. masses --      1.8302                 2.5891                 1.6929
 Frc consts  --      0.7089                 1.0305                 0.7438
 IR Inten    --      9.6228                 5.4289                15.5920

                     22                     23                     24
                      A                      A                      A
 Frequencies --    867.3356               892.4277               931.5220
 Red. masses --      1.2501                 1.8276                 1.5770
 Frc consts  --      0.5541                 0.8576                 0.8063
 IR Inten    --      0.0227                 3.5340                 3.1807

                     25                     26                     27
                      A                      A                      A
 Frequencies --    941.3412               980.5309              1007.5589
 Red. masses --      1.5077                 1.3534                 1.2568
 Frc consts  --      0.7871                 0.7667                 0.7517
 IR Inten    --      3.3686                 0.0048                 0.2219

                     28                     29                     30
                      A                      A                      A
 Frequencies --   1017.0861              1030.8986              1045.8506
 Red. masses --      6.1816                 3.3762                 1.5948
 Frc consts  --      3.7676                 2.1140                 1.0278
 IR Inten    --      0.8993                 6.4342                43.9841

                     31                     32                     33
                      A                      A                      A
 Frequencies --   1055.5521              1088.1603              1099.2245
 Red. masses --      2.2203                 1.7523                 1.5844
 Frc consts  --      1.4576                 1.2225                 1.1279
 IR Inten    --      2.8105                 8.0368                29.3270

                     34                     35                     36
                      A                      A                      A
 Frequencies --   1126.2555              1170.7891              1189.5150
 Red. masses --      1.5937                 1.4217                 1.0951
 Frc consts  --      1.1910                 1.1482                 0.9130
 IR Inten    --     20.3535                 7.5179                 0.0612

                     37                     38                     39
                      A                      A                      A
 Frequencies --   1205.3746              1221.2610              1237.0896
 Red. masses --      1.1377                 1.7519                 2.6525
 Frc consts  --      0.9739                 1.5395                 2.3917
 IR Inten    --      0.5599                10.8979                 0.4035

                     40                     41                     42
                      A                      A                      A
 Frequencies --   1276.6102              1346.7398              1358.8081
 Red. masses --      1.5106                 1.2709                 2.0873
 Frc consts  --      1.4505                 1.3581                 2.2707
 IR Inten    --      5.3569                 1.6805                 0.8328

                     43                     44                     45
                      A                      A                      A
 Frequencies --   1364.1260              1383.4855              1403.1431
 Red. masses --      1.9620                 1.3095                 1.3241
 Frc consts  --      2.1511                 1.4768                 1.5360
 IR Inten    --      0.4257                 3.8094                 3.1247

                     46                     47                     48
                      A                      A                      A
 Frequencies --   1435.0038              1440.0383              1457.7605
 Red. masses --      1.3134                 1.1647                 1.1613
 Frc consts  --      1.5935                 1.4230                 1.4540
 IR Inten    --     21.0538                42.3679                 4.1517

                     49                     50                     51
                      A                      A                      A
 Frequencies --   1475.2163              1500.2950              1503.8271
 Red. masses --      1.2247                 1.8051                 1.1069
 Frc consts  --      1.5704                 2.3939                 1.4749
 IR Inten    --     44.0125                 6.6651                 1.2384

                     52                     53                     54
                      A                      A                      A
 Frequencies --   1507.9460              1516.2746              1519.5861
 Red. masses --      1.1150                 1.0472                 1.0764
 Frc consts  --      1.4937                 1.4186                 1.4645
 IR Inten    --     19.6869                24.6978                16.0296

                     55                     56                     57
                      A                      A                      A
 Frequencies --   1532.3953              1544.1091              1625.7434
 Red. masses --      1.0706                 2.2514                 1.0728
 Frc consts  --      1.4812                 3.1627                 1.6707
 IR Inten    --     19.1758                17.0436               120.5611

                     58                     59                     60
                      A                      A                      A
 Frequencies --   1644.4094              1664.3280              3075.0897
 Red. masses --      5.3843                 5.7287                 1.0560
 Frc consts  --      8.5783                 9.3493                 5.8834
 IR Inten    --      2.8528                 5.1450                29.2294

                     61                     62                     63
                      A                      A                      A
 Frequencies --   3076.7948              3110.4283              3123.3563
 Red. masses --      1.0424                 1.0898                 1.0680
 Frc consts  --      5.8141                 6.2123                 6.1386
 IR Inten    --     20.1645                 5.1868                 6.2833

                     64                     65                     66
                      A                      A                      A
 Frequencies --   3128.2610              3148.1397              3172.6573
 Red. masses --      1.0609                 1.1025                 1.1010
 Frc consts  --      6.1168                 6.4380                 6.5294
 IR Inten    --     38.9389                40.3976                19.0523

                     67                     68                     69
                      A                      A                      A
 Frequencies --   3189.6826              3199.7098              3207.0059
 Red. masses --      1.0881                 1.0865                 1.0898
 Frc consts  --      6.5225                 6.5541                 6.6041
 IR Inten    --     17.7175                 7.5654                15.1865

                     70                     71                     72
                      A                      A                      A
 Frequencies --   3216.0116              3217.9738              3226.9598
 Red. masses --      1.0938                 1.1087                 1.0978
 Frc consts  --      6.6656                 6.7645                 6.7351
 IR Inten    --     66.5853                 8.1551                29.4713

                     73                     74                     75
                      A                      A                      A
 Frequencies --   3229.4372              3382.3706              3457.4270
 Red. masses --      1.1082                 1.0642                 1.0865
 Frc consts  --      6.8094                 7.1735                 7.6521
 IR Inten    --     10.6450               142.6185               185.1335

 - Thermochemistry -
 -------------------
 Temperature   298.150 Kelvin.  Pressure   1.00000 Atm.
 Atom     1 has atomic number  6 and mass  12.00000

 Molecular mass:   150.12827 amu.
 Principal axes and moments of inertia in atomic units:
                           1         2         3
     Eigenvalues --   744.139973245.871473581.91287
           X            0.99998  -0.00595  -0.00240
           Y            0.00595   0.99998   0.00025
           Z            0.00240  -0.00026   1.00000
 This molecule is an asymmetric top.
 Rotational symmetry number  1.
 Warning -- assumption of classical behavior for rotation
           may cause significant error
 Rotational temperatures (Kelvin)      0.11639     0.02668     0.02418
 Rotational constants (GHZ):           2.42527     0.55601     0.50385
 Zero-point vibrational energy     650301.0 (Joules/Mol)
                                  155.42568 (Kcal/Mol)
 Warning -- explicit consideration of  15 degrees of freedom as
           vibrations may cause significant error
 Vibrational temperatures:     49.18    93.16   141.46   161.81   282.50
          (Kelvin)            318.59   347.47   373.15   499.91   545.10
                              574.52   602.61   663.39   737.79   867.78
                              912.98  1030.53  1087.78  1166.54  1182.53
                             1242.47  1247.90  1284.00  1340.25  1354.38
                             1410.77  1449.65  1463.36  1483.23  1504.75
                             1518.70  1565.62  1581.54  1620.43  1684.50
                             1711.45  1734.27  1757.12  1779.90  1836.76
                             1937.66  1955.02  1962.67  1990.53  2018.81
                             2064.65  2071.89  2097.39  2122.51  2158.59
                             2163.67  2169.60  2181.58  2186.35  2204.77
                             2221.63  2339.08  2365.94  2394.60  4424.37
                             4426.82  4475.21  4493.81  4500.87  4529.47
                             4564.75  4589.24  4603.67  4614.17  4627.12
                             4629.95  4642.88  4646.44  4866.48  4974.47

 Zero-point correction=                           0.247687 (Hartree/Particle)
 Thermal correction to Energy=                    0.258869
 Thermal correction to Enthalpy=                  0.259813
 Thermal correction to Gibbs Free Energy=         0.210040
 Sum of electronic and zero-point Energies=           -445.082215
 Sum of electronic and thermal Energies=              -445.071033
 Sum of electronic and thermal Enthalpies=            -445.070089
 Sum of electronic and thermal Free Energies=         -445.119861

                     E (Thermal)             CV                S
                      KCal/Mol        Cal/Mol-Kelvin    Cal/Mol-Kelvin
 Total                  162.443             42.497            104.756
 Electronic               0.000              0.000              0.000
 Translational            0.889              2.981             40.929
 Rotational               0.889              2.981             30.538
 Vibrational            160.665             36.535             33.289
 Vibration     1          0.594              1.983              5.571
 Vibration     2          0.597              1.971              4.307
 Vibration     3          0.604              1.950              3.487
 Vibration     4          0.607              1.939              3.226
 Vibration     5          0.636              1.845              2.167
 Vibration     6          0.648              1.808              1.947
 Vibration     7          0.658              1.777              1.792
 Vibration     8          0.668              1.747              1.666
 Vibration     9          0.725              1.580              1.178
 Vibration    10          0.749              1.515              1.044
 Vibration    11          0.765              1.472              0.965
 Vibration    12          0.782              1.429              0.896
 Vibration    13          0.819              1.336              0.763
 Vibration    14          0.868              1.222              0.627
 Vibration    15          0.962              1.025              0.444

                           ! Non-Optimized Parameters !
 Normal termination of Gaussian 16 at Sun Jul 18 14:32:25 2021.

 ----------------------------------------------------------------------
 #p b3lyp/6-31G(d) scrf=(iefpcm,read,solvent=water) geom=allcheck guess
 =read
 ----------------------------------------------------------------------

 Structure from the checkpoint file:  "SET_328_BBB30_conf1.geo_285_180_285.chk"
 --------------------------------------------
 SET_328_BBB30_conf1.geo_285_180_285 geometry
 --------------------------------------------
 Charge =  1 Multiplicity = 1

 SCF Done:  E(RB3LYP) =  -445.329901921     A.U. after    1 cycles
 Normal termination of Gaussian 16 at Sun Jul 18 14:32:31 2021.

 -----------------------------
 #p B3LYP/6-31G* geom=allcheck
 -----------------------------

 Structure from the checkpoint file:  "SET_328_BBB30_conf1.geo_285_180_285.chk"
 --------------------------------------------
 SET_328_BBB30_conf1.geo_285_180_285 geometry
 --------------------------------------------
 Charge =  1 Multiplicity = 1

 SCF Done:  E(RB3LYP) =  -445.225390404     A.U. after   13 cycles
 Normal termination of Gaussian 16 at Sun Jul 18 14:32:52 2021.
 Gaussian 16:  ES64L-G16RevB.01 20-Dec-2017

 --------------------------------------------------------
 #p mp2/aug-cc-pVDZ scf=tight maxdisk=180GB geom=allcheck
 --------------------------------------------------------

 Structure from the checkpoint file:  "SET_328_BBB30_conf1.geo_285_180_285.chk"
 --------------------------------------------
 SET_328_BBB30_conf1.geo_285_180_285 geometry
 --------------------------------------------
 Charge =  1 Multiplicity = 1

                         Standard orientation:
 ---------------------------------------------------------------------
 Center     Atomic      Atomic             Coordinates (Angstroms)
 Number     Number       Type             X           Y           Z
 ---------------------------------------------------------------------
      1          6           0        3.513142   -1.249353   -0.282696
      2          1           0        2.978890   -1.635076   -1.146940
      3          1           0        3.314453   -1.864999    0.592468
      4          1           0        4.580863   -1.219331   -0.488847
      5          7           0        3.055885    0.142894    0.004552
      6          1           0        3.253969    0.742922   -0.812072
      7          6           0        1.595604    0.294986    0.394279
      8          6           0        1.392411    1.681168    0.995638
      9          1           0        2.013676    1.823847    1.882736
     10          1           0        0.348693    1.792045    1.291659
     11          1           0        1.624675    2.466187    0.269132
     12          1           0        1.431403   -0.470905    1.156067
     13          6           0        0.694493    0.017702   -0.821693
     14          1           0        1.005968   -0.915614   -1.299828
     15          1           0        0.828862    0.819735   -1.555339
     16          6           0       -0.766581   -0.084995   -0.438379
     17          6           0       -1.251731   -1.217378    0.230736
     18          1           0       -0.575339   -2.035533    0.463624
     19          6           0       -2.594794   -1.309704    0.594845
     20          1           0       -2.952865   -2.194544    1.110983
     21          6           0       -3.477305   -0.270108    0.291231
     22          1           0       -4.522934   -0.342411    0.572459
     23          6           0       -3.006584    0.859154   -0.380243
     24          1           0       -3.684735    1.669867   -0.625534
     25          6           0       -1.660728    0.948465   -0.740935
     26          1           0       -1.298228    1.826397   -1.266666
     27          1           0        3.633888    0.517538    0.767541
 ---------------------------------------------------------------------

 SCF Done:  E(RHF) =  -442.291882240     A.U. after   15 cycles
 E2 =    -0.1585491545D+01 EUMP2 =    -0.44387737378526D+03

 The electronic state is 1-A.
 Alpha  occ. eigenvalues --  -15.87292 -11.46390 -11.46312 -11.39416 -11.38550
 Alpha  occ. eigenvalues --  -11.36727 -11.35249 -11.35055 -11.34679 -11.34564
 Alpha  occ. eigenvalues --  -11.34293  -1.49546  -1.27602  -1.23231  -1.16107
 Alpha  occ. eigenvalues --   -1.12378  -1.12333  -1.08153  -1.00633  -0.95244
 Alpha  occ. eigenvalues --   -0.93804  -0.90498  -0.85344  -0.83918  -0.80398
 Alpha  occ. eigenvalues --   -0.78707  -0.75277  -0.74738  -0.74054  -0.73851
 Alpha  occ. eigenvalues --   -0.70151  -0.69323  -0.68911  -0.68100  -0.66438
 Alpha  occ. eigenvalues --   -0.65389  -0.60286  -0.60099  -0.59704  -0.44268
 Alpha  occ. eigenvalues --   -0.44037
 Alpha virt. eigenvalues --   -0.09361  -0.07144  -0.06529  -0.05506  -0.03988
 Alpha virt. eigenvalues --   -0.03704  -0.03415  -0.03280  -0.03075  -0.01601
 Alpha virt. eigenvalues --   -0.01392  -0.00624  -0.00547  -0.00158   0.00087

 Mulliken charges:
               1
     1  C    0.831549
     2  H   -0.068608
     3  H   -0.065195
     4  H   -0.147617
     5  N   -0.485360
     6  H    0.198338
     7  C   -0.286752
     8  C    0.747169
     9  H   -0.088255
    10  H    0.010880
    11  H    0.001348
    12  H   -0.453972
    13  C    0.838999
    14  H   -0.269422
    15  H   -0.205298
    16  C    1.166370
    17  C    0.506049
    18  H   -0.709206
    19  C    0.013392
    20  H   -0.458249
    21  C    0.652412
    22  H   -0.418794
    23  C    0.252767
    24  H   -0.439318
    25  C    0.379008
    26  H   -0.676652
    27  H    0.174415
 Sum of Mulliken charges =   1.00000

 Dipole moment (field-independent basis, Debye):
    X=             11.0054    Y=              0.2699    Z=              0.2534  Tot=             11.0116
 Quadrupole moment (field-independent basis, Debye-Ang):
   XX=            -13.6693   YY=            -57.3867   ZZ=            -64.9752
   XY=             -1.5654   XZ=             -1.9460   YZ=             -2.5012

 Normal termination of Gaussian 16 at Sun Jul 18 14:42:05 2021.
