 Gaussian 16, Revision B.01,

 -----------------------------------------------------------
 #p b3lyp/6-31G(d) opt freq scrf=(iefpcm,read,solvent=water)
 -----------------------------------------------------------

 --------------------------------------------
 SET_328_BBB30_conf1.geo_105_180_285 geometry
 --------------------------------------------
 Symbolic Z-matrix:
 Charge =  1 Multiplicity = 1

 SCF Done:  E(RB3LYP) =  -445.286676484     A.U. after   12 cycles
 SCF Done:  E(RB3LYP) =  -445.317956040     A.U. after   11 cycles
 SCF Done:  E(RB3LYP) =  -445.327707685     A.U. after   11 cycles
 SCF Done:  E(RB3LYP) =  -445.329513480     A.U. after   10 cycles
 SCF Done:  E(RB3LYP) =  -445.329808933     A.U. after    9 cycles
 SCF Done:  E(RB3LYP) =  -445.329878880     A.U. after    9 cycles
 SCF Done:  E(RB3LYP) =  -445.329900400     A.U. after    9 cycles
 SCF Done:  E(RB3LYP) =  -445.329912871     A.U. after    8 cycles
 SCF Done:  E(RB3LYP) =  -445.329918881     A.U. after    8 cycles
 SCF Done:  E(RB3LYP) =  -445.329920380     A.U. after    7 cycles
 SCF Done:  E(RB3LYP) =  -445.329920734     A.U. after    7 cycles
 SCF Done:  E(RB3LYP) =  -445.329920506     A.U. after    7 cycles
 Optimization completed.
    -- Stationary point found.
 Normal termination of Gaussian 16 at Sun Jul 18 14:26:20 2021.

 --------------------------------------------------------------------
 #P Geom=AllCheck Guess=TCheck SCRF=Check GenChk RB3LYP/6-31G(d) Freq
 --------------------------------------------------------------------

 Structure from the checkpoint file:  "SET_328_BBB30_conf1.geo_105_180_285.chk"
 --------------------------------------------
 SET_328_BBB30_conf1.geo_105_180_285 geometry
 --------------------------------------------
 Charge =  1 Multiplicity = 1

 SCF Done:  E(RB3LYP) =  -445.329920506     A.U. after    1 cycles

  Exact polarizability: 176.701  -6.238 143.952 -13.520 -24.549 100.093
 Approx polarizability: 186.882  -7.681 162.794 -16.230 -31.296 112.424

                      1                      2                      3
                      A                      A                      A
 Frequencies --     36.1442                65.8131                99.1903
 Red. masses --      3.2691                 3.1740                 3.7581
 Frc consts  --      0.0025                 0.0081                 0.0218
 IR Inten    --      0.0633                 1.9000                 2.4891

                      4                      5                      6
                      A                      A                      A
 Frequencies --    121.1928               195.9826               221.2067
 Red. masses --      1.6822                 1.2917                 1.4165
 Frc consts  --      0.0146                 0.0292                 0.0408
 IR Inten    --      6.8466                 3.3691                 0.6544

                      7                      8                      9
                      A                      A                      A
 Frequencies --    243.7431               259.4239               347.5985
 Red. masses --      3.4170                 1.8959                 2.1326
 Frc consts  --      0.1196                 0.0752                 0.1518
 IR Inten    --      1.7163                 5.9179                 1.2509

                     10                     11                     12
                      A                      A                      A
 Frequencies --    380.4200               401.4741               418.8225
 Red. masses --      2.5962                 2.2899                 2.9607
 Frc consts  --      0.2214                 0.2175                 0.3060
 IR Inten    --      5.5997                 4.0235                 0.0277

                     13                     14                     15
                      A                      A                      A
 Frequencies --    461.5482               513.7663               603.0911
 Red. masses --      2.6720                 2.9137                 4.5681
 Frc consts  --      0.3354                 0.4531                 0.9789
 IR Inten    --      3.3054                 6.7428                 5.4575

                     16                     17                     18
                      A                      A                      A
 Frequencies --    634.5319               716.1412               756.7969
 Red. masses --      6.2899                 2.0893                 1.6818
 Frc consts  --      1.4921                 0.6313                 0.5675
 IR Inten    --      0.1936                30.0711                59.9365

                     19                     20                     21
                      A                      A                      A
 Frequencies --    813.1381               824.0910               866.4174
 Red. masses --      2.0215                 2.4968                 1.2529
 Frc consts  --      0.7875                 0.9991                 0.5541
 IR Inten    --      8.0258                 5.6440                 0.1290

                     22                     23                     24
                      A                      A                      A
 Frequencies --    867.2487               891.7624               931.1719
 Red. masses --      1.5817                 1.8183                 1.5719
 Frc consts  --      0.7009                 0.8520                 0.8030
 IR Inten    --     17.5686                 3.8548                 3.2095

                     25                     26                     27
                      A                      A                      A
 Frequencies --    940.9016               979.8656              1007.4108
 Red. masses --      1.5140                 1.3546                 1.2577
 Frc consts  --      0.7897                 0.7663                 0.7520
 IR Inten    --      3.3544                 0.0151                 0.2035

                     28                     29                     30
                      A                      A                      A
 Frequencies --   1017.0200              1031.2075              1046.2932
 Red. masses --      6.1789                 3.5415                 1.5550
 Frc consts  --      3.7655                 2.2189                 1.0029
 IR Inten    --      0.9336                 7.3354                42.1587

                     31                     32                     33
                      A                      A                      A
 Frequencies --   1055.3385              1087.8584              1100.7436
 Red. masses --      2.2175                 1.7521                 1.6023
 Frc consts  --      1.4551                 1.2217                 1.1438
 IR Inten    --      2.8146                 8.1819                27.3237

                     34                     35                     36
                      A                      A                      A
 Frequencies --   1126.9785              1171.0446              1189.3685
 Red. masses --      1.5833                 1.4198                 1.0952
 Frc consts  --      1.1848                 1.1472                 0.9128
 IR Inten    --     22.0336                 7.0784                 0.0508

                     37                     38                     39
                      A                      A                      A
 Frequencies --   1204.9188              1220.6828              1236.7990
 Red. masses --      1.1365                 1.7517                 2.6552
 Frc consts  --      0.9722                 1.5378                 2.3930
 IR Inten    --      0.5265                10.7494                 0.3786

                     40                     41                     42
                      A                      A                      A
 Frequencies --   1276.4558              1347.4093              1358.8265
 Red. masses --      1.5138                 1.2725                 2.1367
 Frc consts  --      1.4532                 1.3611                 2.3245
 IR Inten    --      5.7019                 1.9118                 0.7798

                     43                     44                     45
                      A                      A                      A
 Frequencies --   1363.5798              1384.7439              1403.0412
 Red. masses --      1.9277                 1.3146                 1.3297
 Frc consts  --      2.1118                 1.4852                 1.5422
 IR Inten    --      0.3648                 2.8973                 3.5795

                     46                     47                     48
                      A                      A                      A
 Frequencies --   1436.8185              1441.5848              1456.5222
 Red. masses --      1.3092                 1.1528                 1.1620
 Frc consts  --      1.5924                 1.4115                 1.4525
 IR Inten    --     22.9082                36.8383                 4.5523

                     49                     50                     51
                      A                      A                      A
 Frequencies --   1480.5331              1500.0635              1503.7531
 Red. masses --      1.2100                 1.8225                 1.0893
 Frc consts  --      1.5627                 2.4162                 1.4512
 IR Inten    --     43.1699                 6.6075                 0.9169

                     52                     53                     54
                      A                      A                      A
 Frequencies --   1508.0250              1516.0495              1519.8531
 Red. masses --      1.1276                 1.0481                 1.0765
 Frc consts  --      1.5109                 1.4193                 1.4651
 IR Inten    --     20.8233                26.6637                17.7966

                     55                     56                     57
                      A                      A                      A
 Frequencies --   1534.2973              1543.8378              1629.0396
 Red. masses --      1.0783                 2.2459                 1.0746
 Frc consts  --      1.4956                 3.1539                 1.6802
 IR Inten    --     19.8922                17.6298               120.2290

                     58                     59                     60
                      A                      A                      A
 Frequencies --   1644.1952              1663.8957              3075.4180
 Red. masses --      5.3499                 5.7334                 1.0580
 Frc consts  --      8.5213                 9.3522                 5.8958
 IR Inten    --      3.2795                 5.1056                30.1189

                     61                     62                     63
                      A                      A                      A
 Frequencies --   3078.1921              3110.9675              3122.9473
 Red. masses --      1.0395                 1.0892                 1.0587
 Frc consts  --      5.8032                 6.2110                 6.0832
 IR Inten    --     18.3454                 5.9840                 3.2914

                     64                     65                     66
                      A                      A                      A
 Frequencies --   3128.0022              3150.6972              3166.7493
 Red. masses --      1.0707                 1.1030                 1.1020
 Frc consts  --      6.1726                 6.4514                 6.5113
 IR Inten    --     42.2640                39.8595                20.3192

                     67                     68                     69
                      A                      A                      A
 Frequencies --   3194.7693              3198.6497              3207.2020
 Red. masses --      1.0873                 1.0870                 1.0900
 Frc consts  --      6.5383                 6.5527                 6.6058
 IR Inten    --     13.5263                 8.7525                17.9774

                     70                     71                     72
                      A                      A                      A
 Frequencies --   3216.2618              3216.8868              3226.7777
 Red. masses --      1.0940                 1.1088                 1.0979
 Frc consts  --      6.6674                 6.7604                 6.7349
 IR Inten    --     67.9764                 8.3740                28.0834

                     73                     74                     75
                      A                      A                      A
 Frequencies --   3228.9513              3378.1004              3425.2819
 Red. masses --      1.1081                 1.0583                 1.0927
 Frc consts  --      6.8071                 7.1158                 7.5537
 IR Inten    --     11.1033               138.6754               188.1960

 - Thermochemistry -
 -------------------
 Temperature   298.150 Kelvin.  Pressure   1.00000 Atm.
 Atom     1 has atomic number  6 and mass  12.00000

 Molecular mass:   150.12827 amu.
 Principal axes and moments of inertia in atomic units:
                           1         2         3
     Eigenvalues --   745.296403240.515093584.41853
           X            0.99998  -0.00596  -0.00237
           Y            0.00596   0.99998   0.00024
           Z            0.00237  -0.00025   1.00000
 This molecule is an asymmetric top.
 Rotational symmetry number  1.
 Warning -- assumption of classical behavior for rotation
           may cause significant error
 Rotational temperatures (Kelvin)      0.11621     0.02673     0.02416
 Rotational constants (GHZ):           2.42151     0.55693     0.50350
 Zero-point vibrational energy     650323.1 (Joules/Mol)
                                  155.43095 (Kcal/Mol)
 Warning -- explicit consideration of  15 degrees of freedom as
           vibrations may cause significant error
 Vibrational temperatures:     52.00    94.69   142.71   174.37   281.98
          (Kelvin)            318.27   350.69   373.25   500.12   547.34
                              577.63   602.59   664.06   739.20   867.71
                              912.95  1030.37  1088.86  1169.92  1185.68
                             1246.58  1247.78  1283.05  1339.75  1353.75
                             1409.81  1449.44  1463.26  1483.68  1505.38
                             1518.40  1565.19  1583.72  1621.47  1684.87
                             1711.24  1733.61  1756.29  1779.48  1836.54
                             1938.62  1955.05  1961.89  1992.34  2018.66
                             2067.26  2074.12  2095.61  2130.16  2158.26
                             2163.57  2169.71  2181.26  2186.73  2207.51
                             2221.24  2343.82  2365.63  2393.97  4424.84
                             4428.83  4475.99  4493.22  4500.50  4533.15
                             4556.25  4596.56  4602.14  4614.45  4627.48
                             4628.38  4642.61  4645.74  4860.33  4928.22

 Zero-point correction=                           0.247695 (Hartree/Particle)
 Thermal correction to Energy=                    0.258844
 Thermal correction to Enthalpy=                  0.259788
 Thermal correction to Gibbs Free Energy=         0.210177
 Sum of electronic and zero-point Energies=           -445.082226
 Sum of electronic and thermal Energies=              -445.071077
 Sum of electronic and thermal Enthalpies=            -445.070132
 Sum of electronic and thermal Free Energies=         -445.119744

                     E (Thermal)             CV                S
                      KCal/Mol        Cal/Mol-Kelvin    Cal/Mol-Kelvin
 Total                  162.427             42.459            104.416
 Electronic               0.000              0.000              0.000
 Translational            0.889              2.981             40.929
 Rotational               0.889              2.981             30.538
 Vibrational            160.650             36.497             32.949
 Vibration     1          0.594              1.982              5.460
 Vibration     2          0.597              1.971              4.275
 Vibration     3          0.604              1.950              3.470
 Vibration     4          0.609              1.932              3.081
 Vibration     5          0.636              1.845              2.170
 Vibration     6          0.648              1.809              1.949
 Vibration     7          0.659              1.773              1.775
 Vibration     8          0.668              1.747              1.666
 Vibration     9          0.725              1.580              1.177
 Vibration    10          0.750              1.512              1.037
 Vibration    11          0.767              1.467              0.957
 Vibration    12          0.782              1.429              0.896
 Vibration    13          0.819              1.335              0.762
 Vibration    14          0.869              1.219              0.625
 Vibration    15          0.961              1.025              0.444

                           ! Non-Optimized Parameters !
 Normal termination of Gaussian 16 at Sun Jul 18 14:31:02 2021.

 ----------------------------------------------------------------------
 #p b3lyp/6-31G(d) scrf=(iefpcm,read,solvent=water) geom=allcheck guess
 =read
 ----------------------------------------------------------------------

 Structure from the checkpoint file:  "SET_328_BBB30_conf1.geo_105_180_285.chk"
 --------------------------------------------
 SET_328_BBB30_conf1.geo_105_180_285 geometry
 --------------------------------------------
 Charge =  1 Multiplicity = 1

 SCF Done:  E(RB3LYP) =  -445.329920506     A.U. after    1 cycles
 Normal termination of Gaussian 16 at Sun Jul 18 14:31:07 2021.

 -----------------------------
 #p B3LYP/6-31G* geom=allcheck
 -----------------------------

 Structure from the checkpoint file:  "SET_328_BBB30_conf1.geo_105_180_285.chk"
 --------------------------------------------
 SET_328_BBB30_conf1.geo_105_180_285 geometry
 --------------------------------------------
 Charge =  1 Multiplicity = 1

 SCF Done:  E(RB3LYP) =  -445.225374764     A.U. after   13 cycles
 Normal termination of Gaussian 16 at Sun Jul 18 14:31:29 2021.
 Gaussian 16:  ES64L-G16RevB.01 20-Dec-2017

 --------------------------------------------------------
 #p mp2/aug-cc-pVDZ scf=tight maxdisk=180GB geom=allcheck
 --------------------------------------------------------

 Structure from the checkpoint file:  "SET_328_BBB30_conf1.geo_105_180_285.chk"
 --------------------------------------------
 SET_328_BBB30_conf1.geo_105_180_285 geometry
 --------------------------------------------
 Charge =  1 Multiplicity = 1

                         Standard orientation:
 ---------------------------------------------------------------------
 Center     Atomic      Atomic             Coordinates (Angstroms)
 Number     Number       Type             X           Y           Z
 ---------------------------------------------------------------------
      1          6           0        3.509529   -1.255153   -0.269795
      2          1           0        2.979240   -1.644539   -1.134853
      3          1           0        3.303439   -1.864565    0.608054
      4          1           0        4.578544   -1.229962   -0.469628
      5          7           0        3.055173    0.140451    0.005865
      6          1           0        3.256584    0.733742   -0.814872
      7          6           0        1.594842    0.299163    0.391712
      8          6           0        1.394875    1.691338    0.980265
      9          1           0        1.632163    2.467755    0.247226
     10          1           0        2.015780    1.839552    1.866338
     11          1           0        0.350519    1.810551    1.274372
     12          1           0        1.427610   -0.459778    1.159749
     13          6           0        0.694844    0.012768   -0.823242
     14          1           0        1.005746   -0.925178   -1.292433
     15          1           0        0.832174    0.807896   -1.563784
     16          6           0       -0.766642   -0.086324   -0.440205
     17          6           0       -1.658851    0.951616   -0.733937
     18          1           0       -1.296720    1.833416   -1.254983
     19          6           0       -3.004055    0.863020   -0.370378
     20          1           0       -3.680748    1.677151   -0.608731
     21          6           0       -3.476444   -0.269250    0.294654
     22          1           0       -4.521659   -0.340331    0.577740
     23          6           0       -2.596122   -1.313269    0.589379
     24          1           0       -2.955238   -2.200552    1.100373
     25          6           0       -1.253567   -1.221774    0.222674
     26          1           0       -0.579236   -2.042007    0.448284
     27          1           0        3.635141    0.520888    0.769341
 ---------------------------------------------------------------------

 SCF Done:  E(RHF) =  -442.291755478     A.U. after   15 cycles
 E2 =    -0.1585619600D+01 EUMP2 =    -0.44387737507791D+03

 The electronic state is 1-A.
 Alpha  occ. eigenvalues --  -15.87319 -11.46389 -11.46306 -11.39416 -11.38553
 Alpha  occ. eigenvalues --  -11.36732 -11.35235 -11.35070 -11.34676 -11.34562
 Alpha  occ. eigenvalues --  -11.34292  -1.49501  -1.27591  -1.23222  -1.16105
 Alpha  occ. eigenvalues --   -1.12369  -1.12317  -1.08152  -1.00630  -0.95179
 Alpha  occ. eigenvalues --   -0.93800  -0.90486  -0.85338  -0.83911  -0.80398
 Alpha  occ. eigenvalues --   -0.78703  -0.75269  -0.74745  -0.74051  -0.73823
 Alpha  occ. eigenvalues --   -0.70158  -0.69323  -0.68912  -0.68104  -0.66431
 Alpha  occ. eigenvalues --   -0.65382  -0.60283  -0.60095  -0.59707  -0.44263
 Alpha  occ. eigenvalues --   -0.44036
 Alpha virt. eigenvalues --   -0.09367  -0.07145  -0.06532  -0.05506  -0.03990
 Alpha virt. eigenvalues --   -0.03704  -0.03417  -0.03284  -0.03074  -0.01603
 Alpha virt. eigenvalues --   -0.01391  -0.00620  -0.00544  -0.00162   0.00088

 Mulliken charges:
               1
     1  C    0.831875
     2  H   -0.067116
     3  H   -0.065141
     4  H   -0.148553
     5  N   -0.492305
     6  H    0.197658
     7  C   -0.290831
     8  C    0.750443
     9  H   -0.001538
    10  H   -0.089544
    11  H    0.013293
    12  H   -0.457330
    13  C    0.843459
    14  H   -0.274608
    15  H   -0.201844
    16  C    1.166658
    17  C    0.377271
    18  H   -0.675667
    19  C    0.250563
    20  H   -0.440101
    21  C    0.649382
    22  H   -0.418468
    23  C    0.016502
    24  H   -0.458039
    25  C    0.513062
    26  H   -0.711406
    27  H    0.182325
 Sum of Mulliken charges =   1.00000

 Dipole moment (field-independent basis, Debye):
    X=             11.0087    Y=              0.2641    Z=              0.2653  Tot=             11.0150
 Quadrupole moment (field-independent basis, Debye-Ang):
   XX=            -13.6872   YY=            -57.3079   ZZ=            -65.0385
   XY=             -1.5876   XZ=             -1.9271   YZ=             -2.4712

 Normal termination of Gaussian 16 at Sun Jul 18 14:38:40 2021.
