 Gaussian 16, Revision B.01,

 -----------------------------------------------------------
 #p b3lyp/6-31G(d) opt freq scrf=(iefpcm,read,solvent=water)
 -----------------------------------------------------------

 ---------------------------------------------
 SET_328_BBB324_conf1.geo_180_300_300 geometry
 ---------------------------------------------
 Symbolic Z-matrix:
 Charge =  1 Multiplicity = 1

 SCF Done:  E(RB3LYP) =  -1692.66005739     A.U. after   14 cycles
 SCF Done:  E(RB3LYP) =  -1692.70551736     A.U. after   12 cycles
 SCF Done:  E(RB3LYP) =  -1692.72590671     A.U. after   12 cycles
 SCF Done:  E(RB3LYP) =  -1692.72789415     A.U. after   11 cycles
 SCF Done:  E(RB3LYP) =  -1692.72835562     A.U. after   10 cycles
 SCF Done:  E(RB3LYP) =  -1692.72854836     A.U. after   10 cycles
 SCF Done:  E(RB3LYP) =  -1692.72868402     A.U. after   10 cycles
 SCF Done:  E(RB3LYP) =  -1692.72878159     A.U. after   10 cycles
 SCF Done:  E(RB3LYP) =  -1692.72873657     A.U. after   10 cycles
 SCF Done:  E(RB3LYP) =  -1692.72897794     A.U. after   10 cycles
 SCF Done:  E(RB3LYP) =  -1692.73024922     A.U. after    9 cycles
 SCF Done:  E(RB3LYP) =  -1692.73025463     A.U. after    9 cycles
 SCF Done:  E(RB3LYP) =  -1692.73024922     A.U. after    9 cycles
 SCF Done:  E(RB3LYP) =  -1692.73025432     A.U. after    9 cycles
 SCF Done:  E(RB3LYP) =  -1692.73025413     A.U. after    7 cycles
 SCF Done:  E(RB3LYP) =  -1692.73025404     A.U. after    6 cycles
 Optimization completed.
    -- Stationary point found.
 Normal termination of Gaussian 16 at Sun Jul 18 18:14:50 2021.

 --------------------------------------------------------------------
 #P Geom=AllCheck Guess=TCheck SCRF=Check GenChk RB3LYP/6-31G(d) Freq
 --------------------------------------------------------------------

 Structure from the checkpoint file:  "SET_328_BBB324_conf1.geo_180_300_300.chk"
 ---------------------------------------------
 SET_328_BBB324_conf1.geo_180_300_300 geometry
 ---------------------------------------------
 Charge =  1 Multiplicity = 1

 SCF Done:  E(RB3LYP) =  -1692.73025404     A.U. after    1 cycles

  Exact polarizability: 406.627  -5.630 325.336  24.991  -7.738 193.981
 Approx polarizability: 430.414 -20.760 375.847  26.307 -11.551 230.357

                      1                      2                      3
                      A                      A                      A
 Frequencies --     16.4450                23.8372                36.8597
 Red. masses --      4.9337                 5.6568                 9.4211
 Frc consts  --      0.0008                 0.0019                 0.0075
 IR Inten    --      5.5724                 1.6504                 2.3617

                      4                      5                      6
                      A                      A                      A
 Frequencies --     38.2751                65.3067                68.8795
 Red. masses --      7.0506                 6.7253                 6.0968
 Frc consts  --      0.0061                 0.0169                 0.0170
 IR Inten    --      1.4318                 0.8284                 2.1980

                      7                      8                      9
                      A                      A                      A
 Frequencies --     87.5628               102.3296               118.0098
 Red. masses --      7.0478                 3.3542                 4.9048
 Frc consts  --      0.0318                 0.0207                 0.0402
 IR Inten    --      2.5772                 5.1861                 0.7640

                     10                     11                     12
                      A                      A                      A
 Frequencies --    138.5290               149.5113               172.3992
 Red. masses --      1.1840                 3.1105                 5.1001
 Frc consts  --      0.0134                 0.0410                 0.0893
 IR Inten    --      1.7812                14.8240                 4.9387

                     13                     14                     15
                      A                      A                      A
 Frequencies --    191.9203               197.2221               200.3965
 Red. masses --      3.1276                 4.9018                 4.2658
 Frc consts  --      0.0679                 0.1123                 0.1009
 IR Inten    --     36.2076                 1.1408                 6.4127

                     16                     17                     18
                      A                      A                      A
 Frequencies --    209.2599               212.6031               224.8571
 Red. masses --      2.5805                 1.6395                 1.4044
 Frc consts  --      0.0666                 0.0437                 0.0418
 IR Inten    --     50.7819               104.1631                 0.6069

                     19                     20                     21
                      A                      A                      A
 Frequencies --    235.4623               255.5510               301.7715
 Red. masses --      3.3429                 4.9809                 5.3476
 Frc consts  --      0.1092                 0.1917                 0.2869
 IR Inten    --      8.6912                 5.6939                 8.6293

                     22                     23                     24
                      A                      A                      A
 Frequencies --    307.4905               325.3891               329.9257
 Red. masses --      5.8252                 3.7614                 4.9585
 Frc consts  --      0.3245                 0.2346                 0.3180
 IR Inten    --      3.3421                 7.4185                 8.8783

                     25                     26                     27
                      A                      A                      A
 Frequencies --    350.1992               375.8236               376.6278
 Red. masses --      3.2874                 5.8812                 3.8894
 Frc consts  --      0.2375                 0.4894                 0.3251
 IR Inten    --     17.7756                 8.9132                 6.6407

                     28                     29                     30
                      A                      A                      A
 Frequencies --    399.3788               408.7308               435.8058
 Red. masses --      4.1818                 5.8051                 4.5090
 Frc consts  --      0.3930                 0.5714                 0.5046
 IR Inten    --     23.8432                 4.2109                 5.1365

                     31                     32                     33
                      A                      A                      A
 Frequencies --    439.6968               451.9265               485.3771
 Red. masses --      4.1133                 6.4449                 5.7981
 Frc consts  --      0.4685                 0.7755                 0.8048
 IR Inten    --      3.6870                12.3294                12.6144

                     34                     35                     36
                      A                      A                      A
 Frequencies --    493.7385               524.4658               548.2336
 Red. masses --      1.2039                 5.1653                 5.1636
 Frc consts  --      0.1729                 0.8371                 0.9144
 IR Inten    --    174.1311                21.4077                 2.6149

                     37                     38                     39
                      A                      A                      A
 Frequencies --    565.1200               570.2841               610.0276
 Red. masses --      4.4052                 4.5572                 4.8221
 Frc consts  --      0.8289                 0.8732                 1.0573
 IR Inten    --     44.4851                 9.2503                 5.6744

                     40                     41                     42
                      A                      A                      A
 Frequencies --    616.8095               642.7191               671.1726
 Red. masses --      3.5270                 2.6888                 3.8803
 Frc consts  --      0.7906                 0.6544                 1.0299
 IR Inten    --     23.8270                98.5106                31.8796

                     43                     44                     45
                      A                      A                      A
 Frequencies --    683.0580               688.1103               712.0471
 Red. masses --      2.0870                 3.0224                 4.8658
 Frc consts  --      0.5737                 0.8432                 1.4535
 IR Inten    --     51.6829                45.4772                18.5123

                     46                     47                     48
                      A                      A                      A
 Frequencies --    734.4301               750.6738               781.5305
 Red. masses --      7.5814                 6.7838                 2.7503
 Frc consts  --      2.4093                 2.2523                 0.9897
 IR Inten    --     11.1015                22.7838                27.0274

                     49                     50                     51
                      A                      A                      A
 Frequencies --    786.3848               801.4853               811.4323
 Red. masses --      7.4727                 8.5953                 5.3891
 Frc consts  --      2.7227                 3.2531                 2.0906
 IR Inten    --     10.0101                29.3031                57.2818

                     52                     53                     54
                      A                      A                      A
 Frequencies --    813.7939               857.0071               879.2816
 Red. masses --      2.2655                 1.4993                 2.6582
 Frc consts  --      0.8840                 0.6488                 1.2109
 IR Inten    --     37.8306                 3.1239                16.5709

                     55                     56                     57
                      A                      A                      A
 Frequencies --    922.8557               926.0340               947.5207
 Red. masses --      2.3673                 1.7382                 5.9389
 Frc consts  --      1.1879                 0.8782                 3.1415
 IR Inten    --      1.2460                 1.0195               106.7506

                     58                     59                     60
                      A                      A                      A
 Frequencies --    956.3943               958.3015               986.3672
 Red. masses --      3.7083                 2.4022                 4.4097
 Frc consts  --      1.9985                 1.2998                 2.5277
 IR Inten    --     20.1855                 0.4978                29.3176

                     61                     62                     63
                      A                      A                      A
 Frequencies --   1002.8481              1019.2703              1024.2401
 Red. masses --      1.3076                 3.9969                 1.6691
 Frc consts  --      0.7748                 2.4466                 1.0317
 IR Inten    --      0.7946                 5.0300                 4.7218

                     64                     65                     66
                      A                      A                      A
 Frequencies --   1033.2633              1072.5193              1079.1848
 Red. masses --      4.5802                 5.0849                 2.9465
 Frc consts  --      2.8811                 3.4462                 2.0218
 IR Inten    --     51.5137               214.9287                63.6732

                     67                     68                     69
                      A                      A                      A
 Frequencies --   1099.1236              1107.9842              1119.1446
 Red. masses --      2.8843                 3.1101                 1.8338
 Frc consts  --      2.0530                 2.2495                 1.3532
 IR Inten    --     14.0679                54.8183                30.9608

                     70                     71                     72
                      A                      A                      A
 Frequencies --   1153.1973              1158.1227              1164.0143
 Red. masses --      1.8081                 2.0144                 1.3745
 Frc consts  --      1.4167                 1.5919                 1.0973
 IR Inten    --     70.6213                23.9765                 9.5280

                     73                     74                     75
                      A                      A                      A
 Frequencies --   1187.0424              1198.8761              1211.2080
 Red. masses --      1.4260                 2.2223                 2.0883
 Frc consts  --      1.1838                 1.8819                 1.8050
 IR Inten    --     24.3572                69.5961                84.0266

                     76                     77                     78
                      A                      A                      A
 Frequencies --   1218.4378              1228.0377              1243.3460
 Red. masses --      1.8166                 1.6980                 1.7052
 Frc consts  --      1.5890                 1.5087                 1.5532
 IR Inten    --     27.1862                40.4363                26.4561

                     79                     80                     81
                      A                      A                      A
 Frequencies --   1255.2087              1270.4356              1291.8399
 Red. masses --      2.9993                 2.7924                 1.4028
 Frc consts  --      2.7842                 2.6554                 1.3793
 IR Inten    --     76.4379                78.0782                89.7881

                     82                     83                     84
                      A                      A                      A
 Frequencies --   1307.7969              1310.8006              1332.7805
 Red. masses --      2.2834                 3.5144                 8.5759
 Frc consts  --      2.3009                 3.5577                 8.9752
 IR Inten    --     15.0834                61.4196                17.8113

                     85                     86                     87
                      A                      A                      A
 Frequencies --   1362.6483              1372.4373              1388.2070
 Red. masses --      3.2724                 4.2231                 1.4817
 Frc consts  --      3.5800                 4.6867                 1.6823
 IR Inten    --    127.5767                 2.1363                67.5997

                     88                     89                     90
                      A                      A                      A
 Frequencies --   1391.7554              1427.7544              1440.6474
 Red. masses --      1.3911                 1.3262                 1.7684
 Frc consts  --      1.5876                 1.5928                 2.1625
 IR Inten    --    139.8460                11.0227               208.9997

                     91                     92                     93
                      A                      A                      A
 Frequencies --   1447.6712              1459.7108              1467.5089
 Red. masses --      1.6808                 3.1083                 1.4894
 Frc consts  --      2.0754                 3.9022                 1.8898
 IR Inten    --     50.4318                90.2815                39.4866

                     94                     95                     96
                      A                      A                      A
 Frequencies --   1486.4952              1494.5020              1501.3071
 Red. masses --      2.4656                 2.9367                 1.1263
 Frc consts  --      3.2099                 3.8645                 1.4956
 IR Inten    --     91.4192                48.6270                35.8078

                     97                     98                     99
                      A                      A                      A
 Frequencies --   1506.2025              1512.8125              1515.5461
 Red. masses --      1.0701                 1.0980                 1.1139
 Frc consts  --      1.4303                 1.4805                 1.5074
 IR Inten    --      9.4874                 2.6717                15.9233

                    100                    101                    102
                      A                      A                      A
 Frequencies --   1524.9096              1530.1380              1534.9073
 Red. masses --      2.6574                 1.0994                 1.2796
 Frc consts  --      3.6408                 1.5166                 1.7762
 IR Inten    --      8.9546                 6.7447                89.0990

                    103                    104                    105
                      A                      A                      A
 Frequencies --   1548.6007              1576.0000              1599.8485
 Red. masses --      7.1097                 5.4413                 8.9886
 Frc consts  --     10.0457                 7.9628                13.5551
 IR Inten    --     77.3312               208.7337                50.1856

                    106                    107                    108
                      A                      A                      A
 Frequencies --   1624.4864              1645.4486              1706.9084
 Red. masses --      6.4336                 6.7587                 8.1274
 Frc consts  --     10.0032                10.7816                13.9515
 IR Inten    --     17.7437                78.1427                56.9415

                    109                    110                    111
                      A                      A                      A
 Frequencies --   1723.8068              3054.9717              3073.0611
 Red. masses --     10.6558                 1.0562                 1.0404
 Frc consts  --     18.6558                 5.8076                 5.7891
 IR Inten    --    684.0523                55.2768                51.0380

                    112                    113                    114
                      A                      A                      A
 Frequencies --   3086.7146              3103.7840              3104.2728
 Red. masses --      1.0347                 1.1090                 1.0693
 Frc consts  --      5.8087                 6.2947                 6.0709
 IR Inten    --     19.0202                61.7316                 9.7244

                    115                    116                    117
                      A                      A                      A
 Frequencies --   3143.7966              3162.3706              3172.7497
 Red. masses --      1.1004                 1.1043                 1.1034
 Frc consts  --      6.4079                 6.5065                 6.5442
 IR Inten    --     27.1632                24.6713                22.0332

                    118                    119                    120
                      A                      A                      A
 Frequencies --   3198.7753              3210.5011              3235.3181
 Red. masses --      1.0978                 1.1008                 1.0889
 Frc consts  --      6.6183                 6.6851                 6.7157
 IR Inten    --      2.5898                 2.5149                 4.6469

                    121                    122                    123
                      A                      A                      A
 Frequencies --   3250.3253              3256.6942              3352.2022
 Red. masses --      1.0932                 1.0962                 1.1027
 Frc consts  --      6.8046                 6.8502                 7.3009
 IR Inten    --      3.4899                 3.6345                42.1854

                    124                    125                    126
                      A                      A                      A
 Frequencies --   3530.8174              3625.6057              3741.9575
 Red. masses --      1.0856                 1.0652                 1.0669
 Frc consts  --      7.9737                 8.2497                 8.8015
 IR Inten    --    566.2267               151.2221               146.1814

 - Thermochemistry -
 -------------------
 Temperature   298.150 Kelvin.  Pressure   1.00000 Atm.
 Atom     1 has atomic number  6 and mass  12.00000

 Molecular mass:   390.09691 amu.
 Principal axes and moments of inertia in atomic units:
                           1         2         3
     Eigenvalues --  4607.18224********************
           X            0.99979   0.02025  -0.00277
           Y           -0.02025   0.99979  -0.00026
           Z            0.00276   0.00032   1.00000
 This molecule is an asymmetric top.
 Rotational symmetry number  1.
 Warning -- assumption of classical behavior for rotation
           may cause significant error
 Rotational temperatures (Kelvin)      0.01880     0.00424     0.00375
 Rotational constants (GHZ):           0.39172     0.08832     0.07814
 Zero-point vibrational energy     892148.3 (Joules/Mol)
                                  213.22855 (Kcal/Mol)
 Warning -- explicit consideration of  40 degrees of freedom as
           vibrations may cause significant error
 Vibrational temperatures:     23.66    34.30    53.03    55.07    93.96
          (Kelvin)             99.10   125.98   147.23   169.79   199.31
                              215.11   248.04   276.13   283.76   288.33
                              301.08   305.89   323.52   338.78   367.68
                              434.18   442.41   468.16   474.69   503.86
                              540.73   541.88   574.62   588.07   627.03
                              632.63   650.22   698.35   710.38   754.59
                              788.79   813.08   820.51   877.69   887.45
                              924.73   965.67   982.77   990.04  1024.48
                             1056.68  1080.05  1124.45  1131.43  1153.16
                             1167.47  1170.87  1233.04  1265.09  1327.78
                             1332.36  1363.27  1376.04  1378.78  1419.16
                             1442.87  1466.50  1473.65  1486.64  1543.12
                             1552.71  1581.39  1594.14  1610.20  1659.19
                             1666.28  1674.76  1707.89  1724.92  1742.66
                             1753.06  1766.87  1788.90  1805.97  1827.87
                             1858.67  1881.63  1885.95  1917.57  1960.55
                             1974.63  1997.32  2002.43  2054.22  2072.77
                             2082.88  2100.20  2111.42  2138.74  2150.26
                             2160.05  2167.09  2176.60  2180.53  2194.00
                             2201.53  2208.39  2228.09  2267.51  2301.83
                             2337.27  2367.43  2455.86  2480.17  4395.42
                             4421.45  4441.09  4465.65  4466.36  4523.22
                             4549.95  4564.88  4602.32  4619.19  4654.90
                             4676.49  4685.66  4823.07  5080.06  5216.44
                             5383.84

 Zero-point correction=                           0.339801 (Hartree/Particle)
 Thermal correction to Energy=                    0.363926
 Thermal correction to Enthalpy=                  0.364870
 Thermal correction to Gibbs Free Energy=         0.284273
 Sum of electronic and zero-point Energies=          -1692.390453
 Sum of electronic and thermal Energies=             -1692.366328
 Sum of electronic and thermal Enthalpies=           -1692.365384
 Sum of electronic and thermal Free Energies=        -1692.445981

                     E (Thermal)             CV                S
                      KCal/Mol        Cal/Mol-Kelvin    Cal/Mol-Kelvin
 Total                  228.367             91.569            169.630
 Electronic               0.000              0.000              0.000
 Translational            0.889              2.981             43.776
 Rotational               0.889              2.981             36.029
 Vibrational            226.589             85.608             89.826
 Vibration     1          0.593              1.986              7.023
 Vibration     2          0.593              1.985              6.286
 Vibration     3          0.594              1.982              5.421
 Vibration     4          0.594              1.982              5.346
 Vibration     5          0.597              1.971              4.290
 Vibration     6          0.598              1.969              4.185
 Vibration     7          0.601              1.958              3.714
 Vibration     8          0.604              1.947              3.409
 Vibration     9          0.608              1.934              3.133
 Vibration    10          0.614              1.915              2.824
 Vibration    11          0.618              1.903              2.678
 Vibration    12          0.626              1.876              2.409
 Vibration    13          0.634              1.851              2.209
 Vibration    14          0.637              1.844              2.159
 Vibration    15          0.638              1.839              2.129
 Vibration    16          0.642              1.827              2.050
 Vibration    17          0.644              1.822              2.021
 Vibration    18          0.650              1.803              1.920
 Vibration    19          0.655              1.787              1.837
 Vibration    20          0.666              1.753              1.692
 Vibration    21          0.694              1.670              1.407
 Vibration    22          0.697              1.659              1.376
 Vibration    23          0.709              1.625              1.283
 Vibration    24          0.713              1.616              1.260
 Vibration    25          0.727              1.575              1.165
 Vibration    26          0.747              1.522              1.056
 Vibration    27          0.747              1.520              1.053
 Vibration    28          0.765              1.471              0.965
 Vibration    29          0.773              1.451              0.931
 Vibration    30          0.796              1.392              0.840
 Vibration    31          0.800              1.384              0.828
 Vibration    32          0.811              1.357              0.790
 Vibration    33          0.841              1.282              0.696
 Vibration    34          0.849              1.264              0.674
 Vibration    35          0.879              1.196              0.600
 Vibration    36          0.903              1.144              0.548
 Vibration    37          0.921              1.107              0.514
 Vibration    38          0.926              1.096              0.504
 Vibration    39          0.969              1.011              0.433
 Vibration    40          0.976              0.996              0.422

                           ! Non-Optimized Parameters !
 Normal termination of Gaussian 16 at Sun Jul 18 18:48:27 2021.

 ----------------------------------------------------------------------
 #p b3lyp/6-31G(d) scrf=(iefpcm,read,solvent=water) geom=allcheck guess
 =read
 ----------------------------------------------------------------------

 Structure from the checkpoint file:  "SET_328_BBB324_conf1.geo_180_300_300.chk"
 ---------------------------------------------
 SET_328_BBB324_conf1.geo_180_300_300 geometry
 ---------------------------------------------
 Charge =  1 Multiplicity = 1

 SCF Done:  E(RB3LYP) =  -1692.73025404     A.U. after    1 cycles
 Normal termination of Gaussian 16 at Sun Jul 18 18:48:48 2021.

 -----------------------------
 #p B3LYP/6-31G* geom=allcheck
 -----------------------------

 Structure from the checkpoint file:  "SET_328_BBB324_conf1.geo_180_300_300.chk"
 ---------------------------------------------
 SET_328_BBB324_conf1.geo_180_300_300 geometry
 ---------------------------------------------
 Charge =  1 Multiplicity = 1

 SCF Done:  E(RB3LYP) =  -1692.62639231     A.U. after   18 cycles
 Normal termination of Gaussian 16 at Sun Jul 18 18:50:39 2021.
 Gaussian 16:  ES64L-G16RevB.01 20-Dec-2017

 --------------------------------------------------------
 #p mp2/aug-cc-pVDZ scf=tight maxdisk=180GB geom=allcheck
 --------------------------------------------------------

 Structure from the checkpoint file:  "SET_328_BBB324_conf1.geo_180_300_300.chk"
 ---------------------------------------------
 SET_328_BBB324_conf1.geo_180_300_300 geometry
 ---------------------------------------------
 Charge =  1 Multiplicity = 1

                         Standard orientation:
 ---------------------------------------------------------------------
 Center     Atomic      Atomic             Coordinates (Angstroms)
 Number     Number       Type             X           Y           Z
 ---------------------------------------------------------------------
      1          6           0        0.274140   -2.385007   -0.893836
      2          1           0       -0.267591   -2.965882   -0.144568
      3          1           0        0.870372   -3.049117   -1.515122
      4          1           0       -0.445648   -1.850971   -1.522915
      5          7           0        1.178240   -1.452687   -0.223055
      6          6           0        0.597553   -0.513518    0.740071
      7          1           0        1.241352   -0.432355    1.619715
      8          1           0       -0.371792   -0.890451    1.058964
      9          6           0        0.429418    0.823659    0.100662
     10          6           0       -0.650000    1.558474   -0.318878
     11          6           0       -2.071496    1.295622   -0.196385
     12          7           0       -2.980360    2.136753   -0.634074
     13          8           0       -4.181347    1.490162   -0.313910
     14          6           0       -3.859359    0.331720    0.279114
     15          7           0       -2.571446    0.154822    0.382314
     16          6           0       -4.978532   -0.586322    0.745207
     17          6           0       -4.895886   -0.769909    2.262149
     18          1           0       -5.684698   -1.455056    2.580294
     19          1           0       -5.041210    0.189178    2.764211
     20          1           0       -3.926708   -1.177361    2.556446
     21          8           0       -6.228121    0.000315    0.437933
     22          1           0       -6.385281   -0.188161   -0.509068
     23          6           0       -4.855201   -1.928508    0.004641
     24          8           0       -5.092318   -1.639384   -1.367278
     25          1           0       -5.340626   -2.464661   -1.817235
     26          1           0       -5.613961   -2.606230    0.409913
     27          1           0       -3.863758   -2.368024    0.163651
     28          7           0       -0.142504    2.691051   -0.931872
     29          6           0        1.181831    2.661994   -0.907277
     30          1           0        1.834802    3.405834   -1.329862
     31          7           0        1.562904    1.535414   -0.280856
     32          6           0        2.902065    1.151845    0.056069
     33          6           0        3.768082    2.139785    0.522129
     34          1           0        3.426252    3.162904    0.611566
     35          6           0        5.058539    1.789922    0.900557
     36          1           0        5.738795    2.549851    1.265951
     37          6           0        5.466558    0.460042    0.847229
     38          1           0        6.456354    0.168524    1.173252
     39          6           0        4.586654   -0.511330    0.377857
     40         17           0        5.151907   -2.171653    0.383825
     41          6           0        3.284978   -0.198820   -0.047450
     42          6           0        2.430812   -1.257144   -0.718968
     43          8           0        2.894217   -1.898347   -1.661242
     44          1           0       -0.697296    3.435627   -1.358806
 ---------------------------------------------------------------------

 SCF Done:  E(RHF) =  -1684.76579159     A.U. after   18 cycles
 E2 =    -0.4116099039D+01 EUMP2 =    -0.16888818906319D+04

 The electronic state is 1-A.
 Alpha  occ. eigenvalues -- -104.94166 -20.79090 -20.68799 -20.67048 -20.64796
 Alpha  occ. eigenvalues --  -15.84196 -15.83908 -15.76791 -15.72575 -15.70693
 Alpha  occ. eigenvalues --  -11.54050 -11.48896 -11.48834 -11.47122 -11.47028
 Alpha  occ. eigenvalues --  -11.46958 -11.45796 -11.44403 -11.43175 -11.42787
 Alpha  occ. eigenvalues --  -11.41048 -11.40101 -11.39645 -11.38978 -11.38273
 Alpha  occ. eigenvalues --  -11.37385 -11.33339 -10.66712  -8.13494  -8.13139
 Alpha  occ. eigenvalues --   -8.13125  -1.64687  -1.58540  -1.50286  -1.49640
 Alpha  occ. eigenvalues --   -1.46194  -1.44178  -1.38964  -1.38012  -1.32205
 Alpha  occ. eigenvalues --   -1.30437  -1.25449  -1.23552  -1.19231  -1.16571
 Alpha  occ. eigenvalues --   -1.14241  -1.13342  -1.08162  -1.07057  -1.05300
 Alpha  occ. eigenvalues --   -1.04265  -1.00527  -0.98899  -0.96608  -0.95090
 Alpha  occ. eigenvalues --   -0.93149  -0.90420  -0.88968  -0.85544  -0.85116
 Alpha  occ. eigenvalues --   -0.84586  -0.83700  -0.82735  -0.82335  -0.80110
 Alpha  occ. eigenvalues --   -0.79182  -0.78677  -0.77988  -0.77734  -0.77239
 Alpha  occ. eigenvalues --   -0.76672  -0.74260  -0.72755  -0.71877  -0.71181
 Alpha  occ. eigenvalues --   -0.70535  -0.69587  -0.68806  -0.67626  -0.67351
 Alpha  occ. eigenvalues --   -0.65609  -0.65504  -0.65410  -0.65169  -0.64450
 Alpha  occ. eigenvalues --   -0.64169  -0.63394  -0.63318  -0.61215  -0.60472
 Alpha  occ. eigenvalues --   -0.59750  -0.58134  -0.57204  -0.56217  -0.55700
 Alpha  occ. eigenvalues --   -0.54408  -0.53690  -0.50492  -0.49146  -0.47952
 Alpha  occ. eigenvalues --   -0.46402
 Alpha virt. eigenvalues --   -0.07442  -0.07280  -0.05481  -0.04894  -0.04792
 Alpha virt. eigenvalues --   -0.04192  -0.03971  -0.03546  -0.03056  -0.02776
 Alpha virt. eigenvalues --   -0.02326  -0.02077  -0.01600  -0.01221  -0.00752

 Mulliken charges:
               1
     1  C    0.786873
     2  H   -0.112085
     3  H   -0.220211
     4  H   -0.043272
     5  N   -0.558213
     6  C    1.146969
     7  H   -0.007567
     8  H   -0.243654
     9  C   -0.043821
    10  C    0.793163
    11  C    0.467952
    12  N   -0.292345
    13  O   -0.913305
    14  C    0.684688
    15  N   -0.521939
    16  C   -1.049021
    17  C    1.115352
    18  H   -0.012270
    19  H    0.030639
    20  H    0.059844
    21  O   -0.876737
    22  H    0.182275
    23  C    1.722178
    24  O   -0.823058
    25  H    0.201335
    26  H   -0.106932
    27  H   -0.085814
    28  N   -0.535592
    29  C    0.667905
    30  H   -0.334134
    31  N   -0.890634
    32  C   -0.307889
    33  C    1.007305
    34  H   -0.710580
    35  C    0.463013
    36  H   -0.448958
    37  C    0.757778
    38  H   -0.434694
    39  C   -0.765096
    40  Cl  -0.313434
    41  C    1.674451
    42  C    0.769506
    43  O   -0.853461
    44  H   -0.026508
 Sum of Mulliken charges =   1.00000

 Dipole moment (field-independent basis, Debye):
    X=              1.5389    Y=              5.7670    Z=              1.2229  Tot=              6.0928
 Quadrupole moment (field-independent basis, Debye-Ang):
   XX=           -113.2305   YY=           -121.2492   ZZ=           -157.3933
   XY=             47.7338   XZ=             12.7505   YZ=             -9.1054

 Normal termination of Gaussian 16 at Sun Jul 18 20:59:32 2021.
