 Gaussian 16, Revision B.01,

 -----------------------------------------------------------
 #p b3lyp/6-31G(d) opt freq scrf=(iefpcm,read,solvent=water)
 -----------------------------------------------------------

 ---------------------------------------------
 SET_328_BBB268_conf1.geo_300_135_285 geometry
 ---------------------------------------------
 Symbolic Z-matrix:
 Charge =  1 Multiplicity = 1

 SCF Done:  E(RB3LYP) =  -976.555831622     A.U. after   13 cycles
 SCF Done:  E(RB3LYP) =  -976.609018591     A.U. after   11 cycles
 SCF Done:  E(RB3LYP) =  -976.649560600     A.U. after   12 cycles
 SCF Done:  E(RB3LYP) =  -976.654115333     A.U. after   11 cycles
 SCF Done:  E(RB3LYP) =  -976.655139861     A.U. after   11 cycles
 SCF Done:  E(RB3LYP) =  -976.655544016     A.U. after   10 cycles
 SCF Done:  E(RB3LYP) =  -976.656168124     A.U. after   12 cycles
 SCF Done:  E(RB3LYP) =  -976.656591286     A.U. after   11 cycles
 SCF Done:  E(RB3LYP) =  -976.656917326     A.U. after   10 cycles
 SCF Done:  E(RB3LYP) =  -976.656996552     A.U. after   10 cycles
 SCF Done:  E(RB3LYP) =  -976.657742447     A.U. after    8 cycles
 SCF Done:  E(RB3LYP) =  -976.657738058     A.U. after    7 cycles
 SCF Done:  E(RB3LYP) =  -976.657739499     A.U. after    7 cycles
 SCF Done:  E(RB3LYP) =  -976.657739446     A.U. after    7 cycles
 SCF Done:  E(RB3LYP) =  -976.657739514     A.U. after    7 cycles
 SCF Done:  E(RB3LYP) =  -976.657739514     A.U. after    6 cycles
 Optimization completed.
    -- Stationary point found.
 Normal termination of Gaussian 16 at Sun Jul 18 14:45:40 2021.

 --------------------------------------------------------------------
 #P Geom=AllCheck Guess=TCheck SCRF=Check GenChk RB3LYP/6-31G(d) Freq
 --------------------------------------------------------------------

 Structure from the checkpoint file:  "SET_328_BBB268_conf1.geo_300_135_285.chk"
 ---------------------------------------------
 SET_328_BBB268_conf1.geo_300_135_285 geometry
 ---------------------------------------------
 Charge =  1 Multiplicity = 1

 SCF Done:  E(RB3LYP) =  -976.657739514     A.U. after    1 cycles

  Exact polarizability: 462.188  11.211 246.519  -7.741  51.448 230.702
 Approx polarizability: 474.505  14.209 281.658 -13.034  67.762 274.266

                      1                      2                      3
                      A                      A                      A
 Frequencies --     25.1255                27.0269                36.7244
 Red. masses --      3.6679                 3.5861                 3.3121
 Frc consts  --      0.0014                 0.0015                 0.0026
 IR Inten    --      0.5181                 0.7734                 0.4384

                      4                      5                      6
                      A                      A                      A
 Frequencies --     49.6299                60.3373                81.8679
 Red. masses --      2.8118                 3.2768                 1.8514
 Frc consts  --      0.0041                 0.0070                 0.0073
 IR Inten    --      2.8604                 1.2310                 0.9009

                      7                      8                      9
                      A                      A                      A
 Frequencies --     82.4897                91.8281                98.8614
 Red. masses --      1.3333                 1.0414                 2.1372
 Frc consts  --      0.0053                 0.0052                 0.0123
 IR Inten    --      0.3514                 0.5514                 3.9468

                     10                     11                     12
                      A                      A                      A
 Frequencies --    114.2449               132.5363               145.0589
 Red. masses --      2.5274                 1.3286                 3.9036
 Frc consts  --      0.0194                 0.0138                 0.0484
 IR Inten    --      0.7989                 0.1451                 2.9253

                     13                     14                     15
                      A                      A                      A
 Frequencies --    160.3453               184.6860               192.8275
 Red. masses --      3.2567                 3.9365                 3.6454
 Frc consts  --      0.0493                 0.0791                 0.0799
 IR Inten    --      1.6036                 2.1071                 4.9256

                     16                     17                     18
                      A                      A                      A
 Frequencies --    231.4341               245.3115               252.9141
 Red. masses --      4.2328                 2.5442                 4.4218
 Frc consts  --      0.1336                 0.0902                 0.1666
 IR Inten    --      1.8835                11.1547                 3.1728

                     19                     20                     21
                      A                      A                      A
 Frequencies --    301.4028               321.1988               325.1980
 Red. masses --      3.6771                 2.9072                 3.0313
 Frc consts  --      0.1968                 0.1767                 0.1889
 IR Inten    --      0.1013                 5.9280                 2.5478

                     22                     23                     24
                      A                      A                      A
 Frequencies --    353.4292               370.6843               388.1902
 Red. masses --      4.0141                 3.6639                 3.5925
 Frc consts  --      0.2954                 0.2966                 0.3190
 IR Inten    --      0.1325                 2.5856                 6.6052

                     25                     26                     27
                      A                      A                      A
 Frequencies --    402.3110               417.8488               450.9269
 Red. masses --      2.5687                 2.9669                 3.5768
 Frc consts  --      0.2450                 0.3052                 0.4285
 IR Inten    --      7.7136                 0.7106                16.8633

                     28                     29                     30
                      A                      A                      A
 Frequencies --    463.6708               489.7518               500.5278
 Red. masses --      3.3269                 2.9566                 1.4391
 Frc consts  --      0.4214                 0.4178                 0.2124
 IR Inten    --      6.0972                44.5886                96.3222

                     31                     32                     33
                      A                      A                      A
 Frequencies --    513.1374               538.6767               582.1348
 Red. masses --      3.6497                 3.1901                 5.2504
 Frc consts  --      0.5662                 0.5454                 1.0483
 IR Inten    --     22.1676                40.0396                 1.3740

                     34                     35                     36
                      A                      A                      A
 Frequencies --    589.4397               619.5627               634.3369
 Red. masses --      2.9616                 4.5833                 6.0611
 Frc consts  --      0.6063                 1.0366                 1.4370
 IR Inten    --     19.5218                24.9861                 4.6532

                     37                     38                     39
                      A                      A                      A
 Frequencies --    650.3400               679.2128               706.3236
 Red. masses --      6.5369                 5.9747                 5.5713
 Frc consts  --      1.6289                 1.6240                 1.6376
 IR Inten    --      0.6896                 7.5455                 0.9555

                     40                     41                     42
                      A                      A                      A
 Frequencies --    733.1701               750.9461               761.5443
 Red. masses --      3.3809                 4.3060                 5.2623
 Frc consts  --      1.0708                 1.4307                 1.7981
 IR Inten    --      2.8820                 7.5067                 0.2674

                     43                     44                     45
                      A                      A                      A
 Frequencies --    793.3499               801.7578               827.8511
 Red. masses --      4.5355                 4.0572                 4.0080
 Frc consts  --      1.6819                 1.5366                 1.6184
 IR Inten    --      0.9986                29.4188                 2.9711

                     46                     47                     48
                      A                      A                      A
 Frequencies --    829.9467               843.1966               854.4116
 Red. masses --      1.4989                 1.6888                 1.2707
 Frc consts  --      0.6083                 0.7075                 0.5466
 IR Inten    --     57.0533                32.6274                 1.6087

                     49                     50                     51
                      A                      A                      A
 Frequencies --    878.1705               886.9600               951.9500
 Red. masses --      2.2887                 1.8649                 2.5535
 Frc consts  --      1.0399                 0.8644                 1.3634
 IR Inten    --      0.8506                 5.6452                 8.2900

                     52                     53                     54
                      A                      A                      A
 Frequencies --    966.9133               977.2451               981.7818
 Red. masses --      1.3328                 1.3677                 2.5453
 Frc consts  --      0.7341                 0.7696                 1.4455
 IR Inten    --      2.1676                 0.9857                 1.6215

                     55                     56                     57
                      A                      A                      A
 Frequencies --    993.2807               997.7267              1019.7952
 Red. masses --      1.3013                 2.5847                 1.5091
 Frc consts  --      0.7564                 1.5159                 0.9247
 IR Inten    --      0.3356                27.9078                 2.9581

                     58                     59                     60
                      A                      A                      A
 Frequencies --   1031.9004              1040.6453              1075.0020
 Red. masses --      2.2870                 2.0245                 1.8858
 Frc consts  --      1.4348                 1.2917                 1.2840
 IR Inten    --      2.1802                31.0662                 4.9342

                     61                     62                     63
                      A                      A                      A
 Frequencies --   1075.9297              1076.6028              1084.7633
 Red. masses --      1.5315                 1.7240                 1.3921
 Frc consts  --      1.0446                 1.1773                 0.9651
 IR Inten    --      5.5471                13.6549                 9.5984

                     64                     65                     66
                      A                      A                      A
 Frequencies --   1132.6513              1141.9883              1172.0868
 Red. masses --      1.2220                 1.3344                 1.7914
 Frc consts  --      0.9236                 1.0253                 1.4500
 IR Inten    --      0.7644                20.5310                83.9372

                     67                     68                     69
                      A                      A                      A
 Frequencies --   1175.2950              1181.1325              1189.9925
 Red. masses --      1.3026                 1.5012                 2.5525
 Frc consts  --      1.0601                 1.2339                 2.1296
 IR Inten    --      5.5259                26.0183                25.8390

                     70                     71                     72
                      A                      A                      A
 Frequencies --   1211.0318              1224.4989              1242.7858
 Red. masses --      1.1677                 3.0903                 3.1571
 Frc consts  --      1.0090                 2.7300                 2.8730
 IR Inten    --     10.4135                37.5508                 5.9517

                     73                     74                     75
                      A                      A                      A
 Frequencies --   1256.2422              1277.3358              1285.3052
 Red. masses --      1.4434                 1.6274                 4.2240
 Frc consts  --      1.3421                 1.5645                 4.1114
 IR Inten    --      2.8457                32.9283                71.6321

                     76                     77                     78
                      A                      A                      A
 Frequencies --   1291.6324              1327.3710              1336.4356
 Red. masses --      2.5173                 1.9327                 2.0469
 Frc consts  --      2.4743                 2.0063                 2.1540
 IR Inten    --     25.0291                 3.6271                 0.3210

                     79                     80                     81
                      A                      A                      A
 Frequencies --   1352.1144              1366.2374              1397.1061
 Red. masses --      2.4141                 1.7777                 2.9560
 Frc consts  --      2.6004                 1.9551                 3.3995
 IR Inten    --      2.8318                13.6662                 7.1053

                     82                     83                     84
                      A                      A                      A
 Frequencies --   1403.7125              1435.4215              1436.0912
 Red. masses --      4.9997                 1.2749                 1.2737
 Frc consts  --      5.8043                 1.5477                 1.5476
 IR Inten    --     20.2488                 0.7833                 2.4392

                     85                     86                     87
                      A                      A                      A
 Frequencies --   1441.5804              1446.3032              1454.3714
 Red. masses --      2.8734                 1.4911                 2.0023
 Frc consts  --      3.5182                 1.8377                 2.4953
 IR Inten    --     19.9566                80.2262                41.8013

                     88                     89                     90
                      A                      A                      A
 Frequencies --   1457.0022              1486.1477              1487.1609
 Red. masses --      1.8949                 2.3945                 1.2027
 Frc consts  --      2.3701                 3.1159                 1.5672
 IR Inten    --     45.8564                51.2853                41.9589

                     91                     92                     93
                      A                      A                      A
 Frequencies --   1497.9213              1498.3653              1503.8949
 Red. masses --      1.1061                 1.0424                 1.0578
 Frc consts  --      1.4622                 1.3789                 1.4096
 IR Inten    --     29.9146                10.7358                13.0548

                     94                     95                     96
                      A                      A                      A
 Frequencies --   1504.7525              1505.5918              1509.9389
 Red. masses --      1.1561                 1.1011                 1.1409
 Frc consts  --      1.5423                 1.4706                 1.5325
 IR Inten    --      5.9722                18.4216                13.2262

                     97                     98                     99
                      A                      A                      A
 Frequencies --   1513.8586              1524.8689              1554.0364
 Red. masses --      1.0498                 1.0626                 2.8433
 Frc consts  --      1.4175                 1.4558                 4.0458
 IR Inten    --     22.6331                 6.4970               125.5054

                    100                    101                    102
                      A                      A                      A
 Frequencies --   1557.1444              1572.2341              1615.6141
 Red. masses --      1.4149                 4.3150                 5.3732
 Frc consts  --      2.0213                 6.2844                 8.2635
 IR Inten    --     60.8476               117.9064                 9.0442

                    103                    104                    105
                      A                      A                      A
 Frequencies --   1621.9053              1650.8967              1671.5875
 Red. masses --      5.5676                 6.7018                 5.9744
 Frc consts  --      8.6292                10.7617                 9.8356
 IR Inten    --      0.7282                74.7957                53.3874

                    106                    107                    108
                      A                      A                      A
 Frequencies --   1709.9864              1714.7043              3054.1576
 Red. masses --      8.0815                 6.5544                 1.0390
 Frc consts  --     13.9228                11.3543                 5.7104
 IR Inten    --    679.2828                52.0848                44.0458

                    109                    110                    111
                      A                      A                      A
 Frequencies --   3064.5741              3070.9100              3076.0723
 Red. masses --      1.0375                 1.0393                 1.0362
 Frc consts  --      5.7407                 5.7745                 5.7770
 IR Inten    --     41.8255                88.2085                34.6663

                    112                    113                    114
                      A                      A                      A
 Frequencies --   3078.4297              3110.0437              3119.0244
 Red. masses --      1.0623                 1.0986                 1.1045
 Frc consts  --      5.9316                 6.2608                 6.3305
 IR Inten    --     15.9683                27.1886                80.8336

                    115                    116                    117
                      A                      A                      A
 Frequencies --   3122.7277              3123.4941              3136.9998
 Red. masses --      1.1007                 1.1052                 1.1020
 Frc consts  --      6.3241                 6.3529                 6.3896
 IR Inten    --      5.8103                 1.8571                17.0493

                    118                    119                    120
                      A                      A                      A
 Frequencies --   3141.2317              3159.0090              3202.1191
 Red. masses --      1.1025                 1.1035                 1.0882
 Frc consts  --      6.4095                 6.4881                 6.5738
 IR Inten    --     31.3449                20.9181                18.6192

                    121                    122                    123
                      A                      A                      A
 Frequencies --   3206.2682              3209.1906              3210.3354
 Red. masses --      1.0891                 1.0977                 1.0972
 Frc consts  --      6.5967                 6.6610                 6.6624
 IR Inten    --     29.4773                 6.0866                21.1407

                    124                    125                    126
                      A                      A                      A
 Frequencies --   3220.3184              3231.3376              3239.0764
 Red. masses --      1.0943                 1.0935                 1.0904
 Frc consts  --      6.6862                 6.7272                 6.7401
 IR Inten    --     26.2206                10.2807                 4.7830

                    127                    128                    129
                      A                      A                      A
 Frequencies --   3266.7279              3287.6599              3576.7415
 Red. masses --      1.0953                 1.0930                 1.0835
 Frc consts  --      6.8868                 6.9606                 8.1669
 IR Inten    --      0.7539                 1.2690               438.8531

 - Thermochemistry -
 -------------------
 Temperature   298.150 Kelvin.  Pressure   1.00000 Atm.
 Atom     1 has atomic number  6 and mass  12.00000

 Molecular mass:   308.17629 amu.
 Principal axes and moments of inertia in atomic units:
                           1         2         3
     Eigenvalues --  3962.80721********************
           X            0.99995   0.00902   0.00359
           Y           -0.00898   0.99988  -0.01293
           Z           -0.00371   0.01290   0.99991
 This molecule is an asymmetric top.
 Rotational symmetry number  1.
 Warning -- assumption of classical behavior for rotation
           may cause significant error
 Rotational temperatures (Kelvin)      0.02186     0.00795     0.00656
 Rotational constants (GHZ):           0.45542     0.16558     0.13672
 Zero-point vibrational energy     998817.1 (Joules/Mol)
                                  238.72302 (Kcal/Mol)
 Warning -- explicit consideration of  35 degrees of freedom as
           vibrations may cause significant error
 Vibrational temperatures:     36.15    38.89    52.84    71.41    86.81
          (Kelvin)            117.79   118.68   132.12   142.24   164.37
                              190.69   208.71   230.70   265.72   277.44
                              332.98   352.95   363.89   433.65   462.13
                              467.89   508.51   533.33   558.52   578.84
                              601.19   648.78   667.12   704.64   720.15
                              738.29   775.04   837.56   848.07   891.41
                              912.67   935.69   977.24  1016.24  1054.87
                             1080.44  1095.69  1141.45  1153.55  1191.09
                             1194.11  1213.17  1229.31  1263.49  1276.14
                             1369.64  1391.17  1406.04  1412.57  1429.11
                             1435.51  1467.26  1484.67  1497.26  1546.69
                             1548.02  1548.99  1560.73  1629.63  1643.07
                             1686.37  1690.99  1699.39  1712.13  1742.40
                             1761.78  1788.09  1807.45  1837.80  1849.27
                             1858.37  1909.79  1922.83  1945.39  1965.71
                             2010.12  2019.63  2065.25  2066.21  2074.11
                             2080.91  2092.52  2096.30  2138.24  2139.69
                             2155.17  2155.81  2163.77  2165.00  2166.21
                             2172.47  2178.10  2193.95  2235.91  2240.38
                             2262.09  2324.51  2333.56  2375.27  2405.04
                             2460.29  2467.08  4394.25  4409.24  4418.35
                             4425.78  4429.17  4474.66  4487.58  4492.91
                             4494.01  4513.44  4519.53  4545.11  4607.14
                             4613.10  4617.31  4618.96  4633.32  4649.17
                             4660.31  4700.09  4730.21  5146.13

 Zero-point correction=                           0.380429 (Hartree/Particle)
 Thermal correction to Energy=                    0.402724
 Thermal correction to Enthalpy=                  0.403668
 Thermal correction to Gibbs Free Energy=         0.327243
 Sum of electronic and zero-point Energies=           -976.277310
 Sum of electronic and thermal Energies=              -976.255016
 Sum of electronic and thermal Enthalpies=            -976.254072
 Sum of electronic and thermal Free Energies=         -976.330497

                     E (Thermal)             CV                S
                      KCal/Mol        Cal/Mol-Kelvin    Cal/Mol-Kelvin
 Total                  252.713             83.684            160.850
 Electronic               0.000              0.000              0.000
 Translational            0.889              2.981             43.073
 Rotational               0.889              2.981             34.699
 Vibrational            250.935             77.722             83.078
 Vibration     1          0.593              1.985              6.181
 Vibration     2          0.593              1.984              6.036
 Vibration     3          0.594              1.982              5.428
 Vibration     4          0.595              1.978              4.832
 Vibration     5          0.597              1.973              4.446
 Vibration     6          0.600              1.962              3.846
 Vibration     7          0.600              1.961              3.831
 Vibration     8          0.602              1.955              3.621
 Vibration     9          0.604              1.950              3.477
 Vibration    10          0.607              1.938              3.195
 Vibration    11          0.613              1.921              2.909
 Vibration    12          0.616              1.908              2.736
 Vibration    13          0.622              1.891              2.546
 Vibration    14          0.631              1.861              2.281
 Vibration    15          0.635              1.850              2.200
 Vibration    16          0.653              1.793              1.868
 Vibration    17          0.660              1.771              1.764
 Vibration    18          0.664              1.758              1.710
 Vibration    19          0.693              1.671              1.409
 Vibration    20          0.707              1.633              1.304
 Vibration    21          0.709              1.625              1.284
 Vibration    22          0.730              1.568              1.151
 Vibration    23          0.743              1.532              1.077
 Vibration    24          0.756              1.495              1.007
 Vibration    25          0.768              1.465              0.954
 Vibration    26          0.781              1.431              0.899
 Vibration    27          0.810              1.359              0.793
 Vibration    28          0.821              1.331              0.755
 Vibration    29          0.846              1.273              0.684
 Vibration    30          0.856              1.249              0.657
 Vibration    31          0.868              1.221              0.626
 Vibration    32          0.894              1.165              0.568
 Vibration    33          0.939              1.070              0.481
 Vibration    34          0.947              1.054              0.468
 Vibration    35          0.980              0.991              0.417

                           ! Non-Optimized Parameters !
 Normal termination of Gaussian 16 at Sun Jul 18 15:12:25 2021.

 ----------------------------------------------------------------------
 #p b3lyp/6-31G(d) scrf=(iefpcm,read,solvent=water) geom=allcheck guess
 =read
 ----------------------------------------------------------------------

 Structure from the checkpoint file:  "SET_328_BBB268_conf1.geo_300_135_285.chk"
 ---------------------------------------------
 SET_328_BBB268_conf1.geo_300_135_285 geometry
 ---------------------------------------------
 Charge =  1 Multiplicity = 1

 SCF Done:  E(RB3LYP) =  -976.657739514     A.U. after    1 cycles
 Normal termination of Gaussian 16 at Sun Jul 18 15:12:44 2021.

 -----------------------------
 #p B3LYP/6-31G* geom=allcheck
 -----------------------------

 Structure from the checkpoint file:  "SET_328_BBB268_conf1.geo_300_135_285.chk"
 ---------------------------------------------
 SET_328_BBB268_conf1.geo_300_135_285 geometry
 ---------------------------------------------
 Charge =  1 Multiplicity = 1

 SCF Done:  E(RB3LYP) =  -976.576616634     A.U. after   16 cycles
 Normal termination of Gaussian 16 at Sun Jul 18 15:14:11 2021.
 Gaussian 16:  ES64L-G16RevB.01 20-Dec-2017

 --------------------------------------------------------
 #p mp2/aug-cc-pVDZ scf=tight maxdisk=180GB geom=allcheck
 --------------------------------------------------------

 Structure from the checkpoint file:  "SET_328_BBB268_conf1.geo_300_135_285.chk"
 ---------------------------------------------
 SET_328_BBB268_conf1.geo_300_135_285 geometry
 ---------------------------------------------
 Charge =  1 Multiplicity = 1

                         Standard orientation:
 ---------------------------------------------------------------------
 Center     Atomic      Atomic             Coordinates (Angstroms)
 Number     Number       Type             X           Y           Z
 ---------------------------------------------------------------------
      1          6           0       -2.252605    3.031920   -1.180151
      2          1           0       -2.745212    2.379364   -1.907422
      3          1           0       -2.101070    4.013708   -1.640676
      4          1           0       -2.877507    3.137047   -0.296495
      5          7           0       -0.972121    2.453606   -0.785674
      6          6           0       -0.063479    2.157921   -1.886645
      7          1           0        0.024177    3.040085   -2.527968
      8          1           0       -0.444915    1.328482   -2.490105
      9          1           0        0.927726    1.898953   -1.523247
     10          6           0       -0.709544    2.256436    0.531642
     11          8           0       -1.489061    2.599541    1.427632
     12          6           0        0.631525    1.615531    0.924189
     13          1           0        0.662345    1.662766    2.015536
     14          1           0        1.439595    2.261139    0.565498
     15          6           0        0.887187    0.217368    0.450447
     16          6           0        0.066926   -0.840993    0.125854
     17          6           0       -1.392809   -0.994522    0.147757
     18          6           0       -2.047558   -1.634228   -0.919603
     19          6           0       -3.425682   -1.813697   -0.895325
     20          6           0       -4.196304   -1.366483    0.188122
     21          6           0       -5.692297   -1.551154    0.201910
     22          1           0       -5.968137   -2.581441   -0.045573
     23          1           0       -6.175065   -0.902597   -0.539276
     24          1           0       -6.110954   -1.308569    1.182176
     25          6           0       -3.536005   -0.737529    1.249047
     26          6           0       -2.155042   -0.553343    1.237951
     27          1           0       -1.671378   -0.076627    2.082761
     28          1           0       -4.110446   -0.394720    2.103898
     29          1           0       -3.912138   -2.305808   -1.731834
     30          1           0       -1.475811   -1.979055   -1.774389
     31          7           0        0.876857   -1.881077   -0.294953
     32          6           0        2.173022   -1.524968   -0.217655
     33          6           0        3.357422   -2.212473   -0.506222
     34          1           0        3.309013   -3.230722   -0.867935
     35          6           0        4.546227   -1.550000   -0.312248
     36          1           0        5.479903   -2.056589   -0.525914
     37          6           0        4.580510   -0.210084    0.167883
     38          6           0        5.889469    0.500900    0.379831
     39          1           0        6.509475   -0.034984    1.103577
     40          1           0        5.732358    1.516504    0.748245
     41          1           0        6.454868    0.558193   -0.554106
     42          6           0        3.395157    0.422239    0.440397
     43          1           0        3.333325    1.430973    0.820136
     44          7           0        2.201520   -0.232063    0.246204
     45          1           0        0.551823   -2.812747   -0.540079
 ---------------------------------------------------------------------

 SCF Done:  E(RHF) =  -970.459211095     A.U. after   17 cycles
 E2 =    -0.3340145549D+01 EUMP2 =    -0.97379935664307D+03

 The electronic state is 1-A.
 Alpha  occ. eigenvalues --  -20.62293 -15.82734 -15.79069 -15.69623 -11.50496
 Alpha  occ. eigenvalues --  -11.46536 -11.44884 -11.44588 -11.43383 -11.41890
 Alpha  occ. eigenvalues --  -11.41152 -11.40745 -11.38713 -11.37718 -11.36942
 Alpha  occ. eigenvalues --  -11.36177 -11.36023 -11.35481 -11.35417 -11.34746
 Alpha  occ. eigenvalues --  -11.34210 -11.33752 -11.31792  -1.55186  -1.47582
 Alpha  occ. eigenvalues --   -1.41697  -1.34662  -1.29795  -1.27254  -1.22581
 Alpha  occ. eigenvalues --   -1.19990  -1.16542  -1.13137  -1.12450  -1.10104
 Alpha  occ. eigenvalues --   -1.07224  -1.05094  -1.03773  -1.01347  -1.00611
 Alpha  occ. eigenvalues --   -0.96786  -0.93982  -0.91127  -0.89796  -0.85798
 Alpha  occ. eigenvalues --   -0.84490  -0.82408  -0.81503  -0.81251  -0.80300
 Alpha  occ. eigenvalues --   -0.78356  -0.77140  -0.75907  -0.75409  -0.74451
 Alpha  occ. eigenvalues --   -0.74333  -0.71817  -0.70820  -0.69798  -0.69414
 Alpha  occ. eigenvalues --   -0.69197  -0.68627  -0.67534  -0.67198  -0.66470
 Alpha  occ. eigenvalues --   -0.66015  -0.65875  -0.65462  -0.65200  -0.63039
 Alpha  occ. eigenvalues --   -0.62410  -0.61634  -0.60096  -0.59667  -0.59102
 Alpha  occ. eigenvalues --   -0.58347  -0.52230  -0.49446  -0.47120  -0.46356
 Alpha  occ. eigenvalues --   -0.44250  -0.41903
 Alpha virt. eigenvalues --   -0.07586  -0.06644  -0.05487  -0.04669  -0.04404
 Alpha virt. eigenvalues --   -0.03444  -0.03195  -0.02949  -0.02762  -0.02533
 Alpha virt. eigenvalues --   -0.01805  -0.01563  -0.01408  -0.01063  -0.00656

 Mulliken charges:
               1
     1  C    0.851371
     2  H   -0.043098
     3  H   -0.142824
     4  H   -0.237228
     5  N   -0.516092
     6  C    1.086928
     7  H   -0.157986
     8  H   -0.154957
     9  H   -0.434513
    10  C    0.886872
    11  O   -0.960124
    12  C    0.521089
    13  H   -0.112851
    14  H   -0.041370
    15  C   -0.141508
    16  C   -0.005826
    17  C    2.160805
    18  C    0.382620
    19  C    0.267167
    20  C   -0.046669
    21  C    0.701423
    22  H    0.072363
    23  H    0.142492
    24  H   -0.150651
    25  C   -0.131104
    26  C    0.387949
    27  H   -0.715948
    28  H   -0.691583
    29  H   -0.658842
    30  H   -0.830169
    31  N   -0.875880
    32  C   -0.495651
    33  C    1.439105
    34  H   -0.516775
    35  C    0.157444
    36  H   -0.605854
    37  C   -0.050906
    38  C    0.536043
    39  H    0.109746
    40  H   -0.144504
    41  H    0.117935
    42  C    1.776837
    43  H   -0.660337
    44  N   -0.978164
    45  H   -0.096777
 Sum of Mulliken charges =   1.00000

 Dipole moment (field-independent basis, Debye):
    X=              8.3267    Y=             -4.4435    Z=             -3.3139  Tot=             10.0030
 Quadrupole moment (field-independent basis, Debye-Ang):
   XX=            -60.2832   YY=           -115.0922   ZZ=           -131.4755
   XY=              1.3704   XZ=              4.9916   YZ=             -1.4136

 Normal termination of Gaussian 16 at Sun Jul 18 17:03:49 2021.
