 Gaussian 16, Revision B.01,

 -----------------------------------------------------------
 #p b3lyp/6-31G(d) opt freq scrf=(iefpcm,read,solvent=water)
 -----------------------------------------------------------

 ---------------------------------------------
 SET_328_BBB321_conf1.geo_180_210_255 geometry
 ---------------------------------------------
 Symbolic Z-matrix:
 Charge =  1 Multiplicity = 1

 SCF Done:  E(RB3LYP) =  -1212.38404279     A.U. after   21 cycles
 SCF Done:  E(RB3LYP) =  -1212.56080923     A.U. after   14 cycles
 SCF Done:  E(RB3LYP) =  -1212.69788580     A.U. after   13 cycles
 SCF Done:  E(RB3LYP) =  -1212.75291019     A.U. after   12 cycles
 SCF Done:  E(RB3LYP) =  -1212.78478695     A.U. after   13 cycles
 SCF Done:  E(RB3LYP) =  -1212.80410882     A.U. after   13 cycles
 SCF Done:  E(RB3LYP) =  -1212.81244036     A.U. after   12 cycles
 SCF Done:  E(RB3LYP) =  -1212.81739201     A.U. after   11 cycles
 SCF Done:  E(RB3LYP) =  -1212.81998301     A.U. after   11 cycles
 SCF Done:  E(RB3LYP) =  -1212.82086467     A.U. after   11 cycles
 SCF Done:  E(RB3LYP) =  -1212.82227771     A.U. after    9 cycles
 SCF Done:  E(RB3LYP) =  -1212.82228460     A.U. after    8 cycles
 SCF Done:  E(RB3LYP) =  -1212.82228432     A.U. after    7 cycles
 SCF Done:  E(RB3LYP) =  -1212.82228019     A.U. after    8 cycles
 SCF Done:  E(RB3LYP) =  -1212.82228016     A.U. after    7 cycles
 SCF Done:  E(RB3LYP) =  -1212.82228027     A.U. after    6 cycles
 Optimization completed.
    -- Stationary point found.
 Normal termination of Gaussian 16 at Sun Jul 18 16:19:05 2021.

 --------------------------------------------------------------------
 #P Geom=AllCheck Guess=TCheck SCRF=Check GenChk RB3LYP/6-31G(d) Freq
 --------------------------------------------------------------------

 Structure from the checkpoint file:  "SET_328_BBB321_conf1.geo_180_210_255.chk"
 ---------------------------------------------
 SET_328_BBB321_conf1.geo_180_210_255 geometry
 ---------------------------------------------
 Charge =  1 Multiplicity = 1

 SCF Done:  E(RB3LYP) =  -1212.82228027     A.U. after    1 cycles

  Exact polarizability: 376.753  -9.068 293.590  -1.736  -4.810  93.971
 Approx polarizability: 384.807 -18.589 353.321  -2.051  -6.679 112.219

                      1                      2                      3
                      A                      A                      A
 Frequencies --     19.2510                41.0337                54.5450
 Red. masses --      4.6374                 8.0009                 5.7090
 Frc consts  --      0.0010                 0.0079                 0.0100
 IR Inten    --     12.0878                12.2765                 7.8529

                      4                      5                      6
                      A                      A                      A
 Frequencies --     63.5637                79.5456                84.1343
 Red. masses --      5.2551                 4.3718                 3.9327
 Frc consts  --      0.0125                 0.0163                 0.0164
 IR Inten    --      7.2511                31.8222                 0.1939

                      7                      8                      9
                      A                      A                      A
 Frequencies --    108.2825               110.6596               128.8284
 Red. masses --      5.0183                 1.3066                 2.6429
 Frc consts  --      0.0347                 0.0094                 0.0258
 IR Inten    --      4.1284                 1.1894                48.2771

                     10                     11                     12
                      A                      A                      A
 Frequencies --    140.3446               200.8837               242.1026
 Red. masses --      1.2892                 6.1297                 5.3265
 Frc consts  --      0.0150                 0.1457                 0.1839
 IR Inten    --    286.6062                21.1137                 6.4539

                     13                     14                     15
                      A                      A                      A
 Frequencies --    255.0716               259.9908               275.8585
 Red. masses --      4.0654                 5.0927                 4.1183
 Frc consts  --      0.1558                 0.2028                 0.1846
 IR Inten    --      0.0828                 8.2737                 8.0226

                     16                     17                     18
                      A                      A                      A
 Frequencies --    325.5455               334.1293               352.1247
 Red. masses --      2.1583                 2.1705                 4.7950
 Frc consts  --      0.1348                 0.1428                 0.3503
 IR Inten    --    170.4459               206.4887                 1.7181

                     19                     20                     21
                      A                      A                      A
 Frequencies --    355.2917               371.0360               386.6413
 Red. masses --      5.3309                 1.1296                 4.4637
 Frc consts  --      0.3965                 0.0916                 0.3932
 IR Inten    --      1.6556                96.9713                 1.9997

                     22                     23                     24
                      A                      A                      A
 Frequencies --    454.3703               490.9097               502.0785
 Red. masses --      3.3042                 3.7307                 1.5058
 Frc consts  --      0.4019                 0.5297                 0.2236
 IR Inten    --      3.2311                13.8836               143.6061

                     25                     26                     27
                      A                      A                      A
 Frequencies --    542.8269               548.5131               561.2946
 Red. masses --      3.8477                 2.6663                 2.7486
 Frc consts  --      0.6680                 0.4726                 0.5102
 IR Inten    --     41.8895                 0.6471                70.8893

                     28                     29                     30
                      A                      A                      A
 Frequencies --    580.6960               604.6571               615.7020
 Red. masses --      2.1425                 3.5270                 8.4954
 Frc consts  --      0.4257                 0.7598                 1.8975
 IR Inten    --     31.5063                13.0345                 1.1198

                     31                     32                     33
                      A                      A                      A
 Frequencies --    638.2963               644.0018               665.7221
 Red. masses --      1.4211                 1.1909                 6.1681
 Frc consts  --      0.3411                 0.2910                 1.6106
 IR Inten    --     52.6468                 8.2311                 6.1019

                     34                     35                     36
                      A                      A                      A
 Frequencies --    695.9595               700.1397               707.4014
 Red. masses --      4.0976                 2.3545                 2.7347
 Frc consts  --      1.1694                 0.6800                 0.8063
 IR Inten    --      0.1764                 4.6822                 2.4614

                     37                     38                     39
                      A                      A                      A
 Frequencies --    712.2882               744.9358               819.2362
 Red. masses --      5.8612                 1.7723                 1.5303
 Frc consts  --      1.7520                 0.5795                 0.6051
 IR Inten    --      8.2378                91.8713                24.3944

                     40                     41                     42
                      A                      A                      A
 Frequencies --    825.6074               863.4084               879.2761
 Red. masses --      5.7822                 5.6855                 2.6604
 Frc consts  --      2.3222                 2.4972                 1.2118
 IR Inten    --     37.7313                15.0967                38.5257

                     43                     44                     45
                      A                      A                      A
 Frequencies --    887.6408               922.5826               951.3715
 Red. masses --      2.2937                 1.3857                 5.3828
 Frc consts  --      1.0648                 0.6949                 2.8705
 IR Inten    --     22.3916                 0.2626                 3.7788

                     46                     47                     48
                      A                      A                      A
 Frequencies --    994.7883              1000.3453              1007.9156
 Red. masses --      1.2727                 3.4680                 4.3926
 Frc consts  --      0.7421                 2.0447                 2.6292
 IR Inten    --      2.2147                14.6622                24.2011

                     49                     50                     51
                      A                      A                      A
 Frequencies --   1014.0221              1040.3216              1061.3403
 Red. masses --      5.2267                 1.9411                 1.6960
 Frc consts  --      3.1664                 1.2378                 1.1256
 IR Inten    --      1.2909                37.7345                14.2908

                     52                     53                     54
                      A                      A                      A
 Frequencies --   1087.3938              1100.0257              1116.9942
 Red. masses --      1.4274                 1.7880                 1.5418
 Frc consts  --      0.9944                 1.2747                 1.1334
 IR Inten    --      4.4008                15.1189                37.7140

                     55                     56                     57
                      A                      A                      A
 Frequencies --   1135.3005              1191.8619              1228.0649
 Red. masses --      1.6580                 1.1100                 1.7182
 Frc consts  --      1.2591                 0.9290                 1.5267
 IR Inten    --      8.1541                 2.4068                19.0062

                     58                     59                     60
                      A                      A                      A
 Frequencies --   1252.6101              1272.3068              1298.8739
 Red. masses --      2.8254                 3.5035                 2.2105
 Frc consts  --      2.6119                 3.3415                 2.1972
 IR Inten    --    257.9559                43.3022               138.5880

                     61                     62                     63
                      A                      A                      A
 Frequencies --   1330.8593              1353.5933              1369.0279
 Red. masses --      2.4951                 2.3084                 4.8738
 Frc consts  --      2.6038                 2.4919                 5.3819
 IR Inten    --      9.4164               210.6170               177.5331

                     64                     65                     66
                      A                      A                      A
 Frequencies --   1417.4702              1460.5482              1488.4274
 Red. masses --      1.3183                 2.9169                 1.0991
 Frc consts  --      1.5606                 3.6661                 1.4347
 IR Inten    --     64.2564                33.6633                31.9772

                     67                     68                     69
                      A                      A                      A
 Frequencies --   1505.1772              1505.9482              1517.3212
 Red. masses --      1.1492                 1.5883                 2.8517
 Frc consts  --      1.5340                 2.1223                 3.8683
 IR Inten    --     62.3915                15.9615               317.8222

                     70                     71                     72
                      A                      A                      A
 Frequencies --   1543.1945              1567.1667              1591.1186
 Red. masses --      2.0433                 3.9403                 2.9769
 Frc consts  --      2.8670                 5.7017                 4.4404
 IR Inten    --    443.7006               229.1309               239.0519

                     73                     74                     75
                      A                      A                      A
 Frequencies --   1600.8185              1620.1690              1640.9541
 Red. masses --      2.5682                 1.4936                 1.6713
 Frc consts  --      3.8777                 2.3100                 2.6516
 IR Inten    --    289.3961               357.4248              1015.0169

                     76                     77                     78
                      A                      A                      A
 Frequencies --   1648.2741              1661.9515              1715.4737
 Red. masses --      3.9060                 5.3926                 3.4282
 Frc consts  --      6.2523                 8.7757                 5.9441
 IR Inten    --     11.2849               263.7970               874.4072

                     79                     80                     81
                      A                      A                      A
 Frequencies --   1746.8497              3072.9377              3137.9944
 Red. masses --      6.3677                 1.0400                 1.0995
 Frc consts  --     11.4484                 5.7862                 6.3791
 IR Inten    --    400.2167                 5.2364                12.4126

                     82                     83                     84
                      A                      A                      A
 Frequencies --   3187.0836              3209.5057              3216.8044
 Red. masses --      1.1023                 1.0893                 1.0900
 Frc consts  --      6.5969                 6.6112                 6.6452
 IR Inten    --     18.0561                36.7378                15.9587

                     85                     86                     87
                      A                      A                      A
 Frequencies --   3239.2985              3290.2518              3304.6959
 Red. masses --      1.0926                 1.0916                 1.0946
 Frc consts  --      6.7546                 6.9626                 7.0430
 IR Inten    --     10.5873                 5.9409                 7.0298

                     88                     89                     90
                      A                      A                      A
 Frequencies --   3470.8764              3517.9604              3553.1188
 Red. masses --      1.0559                 1.0802                 1.0486
 Frc consts  --      7.4947                 7.8767                 7.8000
 IR Inten    --    470.8417               230.0759               373.6119

                     91                     92                     93
                      A                      A                      A
 Frequencies --   3557.4028              3637.3142              3667.0422
 Red. masses --      1.0782                 1.0993                 1.1078
 Frc consts  --      8.0393                 8.5690                 8.7770
 IR Inten    --    101.9530               399.7280               262.0781

 - Thermochemistry -
 -------------------
 Temperature   298.150 Kelvin.  Pressure   1.00000 Atm.
 Atom     1 has atomic number  6 and mass  12.00000

 Molecular mass:   276.09191 amu.
 Principal axes and moments of inertia in atomic units:
                           1         2         3
     Eigenvalues --  1995.33025********************
           X            0.99989   0.01507  -0.00033
           Y           -0.01507   0.99988  -0.00377
           Z            0.00028   0.00378   0.99999
 This molecule is an asymmetric top.
 Rotational symmetry number  1.
 Warning -- assumption of classical behavior for rotation
           may cause significant error
 Rotational temperatures (Kelvin)      0.04341     0.00623     0.00548
 Rotational constants (GHZ):           0.90448     0.12976     0.11412
 Zero-point vibrational energy     681252.8 (Joules/Mol)
                                  162.82333 (Kcal/Mol)
 Warning -- explicit consideration of  30 degrees of freedom as
           vibrations may cause significant error
 Vibrational temperatures:     27.70    59.04    78.48    91.45   114.45
          (Kelvin)            121.05   155.79   159.21   185.36   201.92
                              289.03   348.33   366.99   374.07   396.90
                              468.39   480.74   506.63   511.19   533.84
                              556.29   653.74   706.31   722.38   781.01
                              789.19   807.58   835.49   869.97   885.86
                              918.37   926.57   957.83  1001.33  1007.34
                             1017.79  1024.82  1071.80  1178.70  1187.86
                             1242.25  1265.08  1277.12  1327.39  1368.81
                             1431.28  1439.27  1450.17  1458.95  1496.79
                             1527.03  1564.52  1582.69  1607.11  1633.44
                             1714.82  1766.91  1802.23  1830.57  1868.79
                             1914.81  1947.52  1969.73  2039.42  2101.40
                             2141.52  2165.61  2166.72  2183.09  2220.31
                             2254.80  2289.26  2303.22  2331.06  2360.97
                             2371.50  2391.18  2468.18  2513.33  4421.27
                             4514.87  4585.50  4617.76  4628.26  4660.63
                             4733.94  4754.72  4993.82  5061.56  5112.15
                             5118.31  5233.28  5276.06

 Zero-point correction=                           0.259475 (Hartree/Particle)
 Thermal correction to Energy=                    0.278194
 Thermal correction to Enthalpy=                  0.279138
 Thermal correction to Gibbs Free Energy=         0.210842
 Sum of electronic and zero-point Energies=          -1212.562805
 Sum of electronic and thermal Energies=             -1212.544086
 Sum of electronic and thermal Enthalpies=           -1212.543142
 Sum of electronic and thermal Free Energies=        -1212.611438

                     E (Thermal)             CV                S
                      KCal/Mol        Cal/Mol-Kelvin    Cal/Mol-Kelvin
 Total                  174.570             70.117            143.742
 Electronic               0.000              0.000              0.000
 Translational            0.889              2.981             42.745
 Rotational               0.889              2.981             34.439
 Vibrational            172.792             64.155             66.558
 Vibration     1          0.593              1.986              6.710
 Vibration     2          0.594              1.981              5.209
 Vibration     3          0.596              1.976              4.645
 Vibration     4          0.597              1.972              4.343
 Vibration     5          0.600              1.963              3.902
 Vibration     6          0.601              1.960              3.792
 Vibration     7          0.606              1.943              3.299
 Vibration     8          0.606              1.941              3.257
 Vibration     9          0.611              1.924              2.963
 Vibration    10          0.615              1.913              2.799
 Vibration    11          0.638              1.839              2.125
 Vibration    12          0.658              1.776              1.787
 Vibration    13          0.665              1.754              1.695
 Vibration    14          0.668              1.746              1.662
 Vibration    15          0.678              1.718              1.559
 Vibration    16          0.710              1.624              1.282
 Vibration    17          0.716              1.607              1.240
 Vibration    18          0.729              1.571              1.157
 Vibration    19          0.731              1.564              1.143
 Vibration    20          0.743              1.532              1.076
 Vibration    21          0.755              1.499              1.013
 Vibration    22          0.813              1.351              0.783
 Vibration    23          0.847              1.270              0.681
 Vibration    24          0.857              1.245              0.653
 Vibration    25          0.898              1.155              0.559
 Vibration    26          0.904              1.143              0.547
 Vibration    27          0.917              1.115              0.521
 Vibration    28          0.937              1.073              0.484
 Vibration    29          0.963              1.022              0.442
 Vibration    30          0.975              0.999              0.423

                           ! Non-Optimized Parameters !
 Normal termination of Gaussian 16 at Sun Jul 18 16:29:23 2021.

 ----------------------------------------------------------------------
 #p b3lyp/6-31G(d) scrf=(iefpcm,read,solvent=water) geom=allcheck guess
 =read
 ----------------------------------------------------------------------

 Structure from the checkpoint file:  "SET_328_BBB321_conf1.geo_180_210_255.chk"
 ---------------------------------------------
 SET_328_BBB321_conf1.geo_180_210_255 geometry
 ---------------------------------------------
 Charge =  1 Multiplicity = 1

 SCF Done:  E(RB3LYP) =  -1212.82228027     A.U. after    1 cycles
 Normal termination of Gaussian 16 at Sun Jul 18 16:29:33 2021.

 -----------------------------
 #p B3LYP/6-31G* geom=allcheck
 -----------------------------

 Structure from the checkpoint file:  "SET_328_BBB321_conf1.geo_180_210_255.chk"
 ---------------------------------------------
 SET_328_BBB321_conf1.geo_180_210_255 geometry
 ---------------------------------------------
 Charge =  1 Multiplicity = 1

 SCF Done:  E(RB3LYP) =  -1212.69348554     A.U. after   17 cycles
 Normal termination of Gaussian 16 at Sun Jul 18 16:30:18 2021.
 Gaussian 16:  ES64L-G16RevB.01 20-Dec-2017

 --------------------------------------------------------
 #p mp2/aug-cc-pVDZ scf=tight maxdisk=180GB geom=allcheck
 --------------------------------------------------------

 Structure from the checkpoint file:  "SET_328_BBB321_conf1.geo_180_210_255.chk"
 ---------------------------------------------
 SET_328_BBB321_conf1.geo_180_210_255 geometry
 ---------------------------------------------
 Charge =  1 Multiplicity = 1

                         Standard orientation:
 ---------------------------------------------------------------------
 Center     Atomic      Atomic             Coordinates (Angstroms)
 Number     Number       Type             X           Y           Z
 ---------------------------------------------------------------------
      1          6           0       -6.433105   -1.186226    0.342924
      2          1           0       -7.405849   -0.737677    0.541657
      3          1           0       -6.164999   -1.855707    1.164476
      4          1           0       -6.500716   -1.787654   -0.570457
      5          6           0       -5.412804   -0.078289    0.163242
      6          8           0       -5.742762    1.098707    0.014962
      7          7           0       -4.113033   -0.512244    0.162495
      8          1           0       -3.979477   -1.510878    0.295130
      9          6           0       -2.931470    0.231244   -0.012437
     10          6           0       -2.914024    1.623301   -0.201289
     11          6           0       -1.689921    2.273602   -0.354165
     12          6           0       -0.485144    1.573770   -0.325910
     13          1           0        0.459490    2.088337   -0.450664
     14          1           0       -1.680916    3.349081   -0.499304
     15          1           0       -3.846661    2.165265   -0.222217
     16          6           0       -1.722168   -0.474564    0.015428
     17          1           0       -1.739807   -1.547308    0.172254
     18          6           0       -0.495725    0.182288   -0.143062
     19          6           0        0.765777   -0.579029   -0.124197
     20          7           0        1.974164    0.104345   -0.057040
     21          6           0        0.885805   -1.940109   -0.180350
     22          1           0        0.108645   -2.683834   -0.260796
     23         16           0        2.553558   -2.420299   -0.137737
     24          6           0        2.982165   -0.717733   -0.054807
     25          7           0        4.313722   -0.349886    0.019444
     26          6           0        4.805045    0.912661    0.196136
     27          7           0        6.126496    1.051251    0.245258
     28          1           0        6.536342    1.966558    0.399338
     29          1           0        6.738194    0.241770    0.213648
     30          7           0        3.992973    1.952130    0.307549
     31          1           0        4.378855    2.881407    0.441953
     32          1           0        2.985831    1.811444    0.242196
     33          1           0        5.009391   -1.090329   -0.056148
 ---------------------------------------------------------------------

 SCF Done:  E(RHF) =  -1207.15481295     A.U. after   18 cycles
 E2 =    -0.2816403852D+01 EUMP2 =    -0.12099712168010D+04

 The electronic state is 1-A.
 Alpha  occ. eigenvalues --  -92.13527 -20.60611 -15.81692 -15.80184 -15.78844
 Alpha  occ. eigenvalues --  -15.72117 -15.69001 -11.60835 -11.51500 -11.43972
 Alpha  occ. eigenvalues --  -11.41363 -11.39173 -11.38363 -11.35572 -11.33707
 Alpha  occ. eigenvalues --  -11.33178 -11.33056 -11.31928 -11.31258  -9.13693
 Alpha  occ. eigenvalues --   -6.81856  -6.81750  -6.81555  -1.55292  -1.45660
 Alpha  occ. eigenvalues --   -1.45554  -1.39640  -1.38882  -1.33879  -1.24534
 Alpha  occ. eigenvalues --   -1.20506  -1.16903  -1.11773  -1.10861  -1.06351
 Alpha  occ. eigenvalues --   -1.05309  -0.99654  -0.98830  -0.95256  -0.93788
 Alpha  occ. eigenvalues --   -0.91137  -0.89117  -0.86623  -0.85793  -0.84349
 Alpha  occ. eigenvalues --   -0.82910  -0.82032  -0.81051  -0.76738  -0.75200
 Alpha  occ. eigenvalues --   -0.72353  -0.72263  -0.70897  -0.69987  -0.69472
 Alpha  occ. eigenvalues --   -0.68266  -0.65787  -0.64337  -0.63927  -0.63209
 Alpha  occ. eigenvalues --   -0.62370  -0.61524  -0.61350  -0.59000  -0.58157
 Alpha  occ. eigenvalues --   -0.57997  -0.53255  -0.51920  -0.49523  -0.47538
 Alpha  occ. eigenvalues --   -0.40949  -0.38977
 Alpha virt. eigenvalues --   -0.09184  -0.07115  -0.05447  -0.04942  -0.04430
 Alpha virt. eigenvalues --   -0.03785  -0.03407  -0.02791  -0.02361  -0.01953
 Alpha virt. eigenvalues --   -0.01424  -0.00317  -0.00277   0.00103   0.00585

 Mulliken charges:
               1
     1  C    0.382590
     2  H   -0.065220
     3  H   -0.001316
     4  H    0.081207
     5  C    0.636461
     6  O   -0.829222
     7  N   -0.687747
     8  H   -0.042719
     9  C   -0.316773
    10  C    1.160361
    11  C   -0.132532
    12  C    0.709204
    13  H   -0.631323
    14  H   -0.519897
    15  H   -0.634349
    16  C    1.035357
    17  H   -0.761568
    18  C    1.724576
    19  C   -0.611906
    20  N   -0.682562
    21  C    0.442499
    22  H   -0.576422
    23  S    0.483833
    24  C    0.456116
    25  N   -0.705642
    26  C    1.367057
    27  N   -0.267943
    28  H    0.032004
    29  H    0.003315
    30  N   -0.175918
    31  H    0.011155
    32  H    0.119968
    33  H   -0.002643
 Sum of Mulliken charges =   1.00000

 Dipole moment (field-independent basis, Debye):
    X=             20.1939    Y=             -0.9893    Z=              1.3119  Tot=             20.2606
 Quadrupole moment (field-independent basis, Debye-Ang):
   XX=             14.9003   YY=            -88.1114   ZZ=           -123.6976
   XY=             40.2513   XZ=              3.0934   YZ=              1.4900

 Normal termination of Gaussian 16 at Sun Jul 18 17:00:20 2021.
