 Gaussian 16, Revision B.01,

 -----------------------------------------------------------
 #p b3lyp/6-31G(d) opt freq scrf=(iefpcm,read,solvent=water)
 -----------------------------------------------------------

 --------------------------------------------
 SET_328_BBB20_conf1.geo_135_300_300 geometry
 --------------------------------------------
 Symbolic Z-matrix:
 Charge =  1 Multiplicity = 1

 SCF Done:  E(RB3LYP) =  -769.783174735     A.U. after   12 cycles
 SCF Done:  E(RB3LYP) =  -769.816817898     A.U. after   11 cycles
 SCF Done:  E(RB3LYP) =  -769.829337104     A.U. after   11 cycles
 SCF Done:  E(RB3LYP) =  -769.830806961     A.U. after   10 cycles
 SCF Done:  E(RB3LYP) =  -769.831369944     A.U. after   10 cycles
 SCF Done:  E(RB3LYP) =  -769.831749847     A.U. after   10 cycles
 SCF Done:  E(RB3LYP) =  -769.832055785     A.U. after   10 cycles
 SCF Done:  E(RB3LYP) =  -769.831855108     A.U. after    9 cycles
 SCF Done:  E(RB3LYP) =  -769.831988246     A.U. after    9 cycles
 SCF Done:  E(RB3LYP) =  -769.832070332     A.U. after    9 cycles
 SCF Done:  E(RB3LYP) =  -769.832083187     A.U. after   10 cycles
 SCF Done:  E(RB3LYP) =  -769.832285381     A.U. after    9 cycles
 SCF Done:  E(RB3LYP) =  -769.832230328     A.U. after    8 cycles
 SCF Done:  E(RB3LYP) =  -769.832204699     A.U. after    8 cycles
 SCF Done:  E(RB3LYP) =  -769.832200577     A.U. after    8 cycles
 SCF Done:  E(RB3LYP) =  -769.832211571     A.U. after    7 cycles
 Optimization completed.
    -- Stationary point found.
 Normal termination of Gaussian 16 at Sun Jul 18 14:20:26 2021.

 --------------------------------------------------------------------
 #P Geom=AllCheck Guess=TCheck SCRF=Check GenChk RB3LYP/6-31G(d) Freq
 --------------------------------------------------------------------

 Structure from the checkpoint file:  "SET_328_BBB20_conf1.geo_135_300_300.chk"
 --------------------------------------------
 SET_328_BBB20_conf1.geo_135_300_300 geometry
 --------------------------------------------
 Charge =  1 Multiplicity = 1

 SCF Done:  E(RB3LYP) =  -769.832211571     A.U. after    1 cycles

  Exact polarizability: 311.827   4.452 210.338  -4.289 -53.335 238.744
 Approx polarizability: 328.080   6.584 233.145  -6.322 -63.741 273.941

                      1                      2                      3
                      A                      A                      A
 Frequencies --     37.8176                46.0817                65.9058
 Red. masses --      4.0488                 3.9966                 3.6380
 Frc consts  --      0.0034                 0.0050                 0.0093
 IR Inten    --      9.7754                15.9707                23.9126

                      4                      5                      6
                      A                      A                      A
 Frequencies --     94.2398               102.6494               144.9933
 Red. masses --      3.2556                 3.4678                 3.6510
 Frc consts  --      0.0170                 0.0215                 0.0452
 IR Inten    --      1.9824                10.0953                 0.4550

                      7                      8                      9
                      A                      A                      A
 Frequencies --    152.6158               191.8118               201.3716
 Red. masses --      2.8969                 3.2555                 2.2969
 Frc consts  --      0.0398                 0.0706                 0.0549
 IR Inten    --      7.3056                 6.1670                 6.4277

                     10                     11                     12
                      A                      A                      A
 Frequencies --    268.1130               292.1904               300.0204
 Red. masses --      3.8712                 2.1425                 1.3366
 Frc consts  --      0.1640                 0.1078                 0.0709
 IR Inten    --      1.7667                 1.7661                 1.4609

                     13                     14                     15
                      A                      A                      A
 Frequencies --    319.7264               341.8331               366.2640
 Red. masses --      4.4846                 3.2107                 2.7359
 Frc consts  --      0.2701                 0.2210                 0.2162
 IR Inten    --      1.2464                 2.4286                10.0729

                     16                     17                     18
                      A                      A                      A
 Frequencies --    390.6578               416.0301               446.8221
 Red. masses --      2.7886                 2.9125                 2.7283
 Frc consts  --      0.2507                 0.2970                 0.3209
 IR Inten    --      1.6495                 5.4708                 4.4407

                     19                     20                     21
                      A                      A                      A
 Frequencies --    466.9289               480.9525               493.1211
 Red. masses --      3.7645                 2.7777                 2.8210
 Frc consts  --      0.4836                 0.3786                 0.4042
 IR Inten    --      1.6678                 2.1617                13.6699

                     22                     23                     24
                      A                      A                      A
 Frequencies --    530.5754               555.5072               575.1028
 Red. masses --      3.3675                 3.9515                 4.6886
 Frc consts  --      0.5585                 0.7184                 0.9137
 IR Inten    --      3.1436                 1.7344                 1.8469

                     25                     26                     27
                      A                      A                      A
 Frequencies --    594.9657               603.8390               637.2297
 Red. masses --      3.4834                 3.0199                 5.5625
 Frc consts  --      0.7265                 0.6488                 1.3308
 IR Inten    --      5.4739                11.2473                10.0457

                     28                     29                     30
                      A                      A                      A
 Frequencies --    692.1050               729.0611               759.5533
 Red. masses --      4.7694                 3.5207                 2.6120
 Frc consts  --      1.3461                 1.1026                 0.8879
 IR Inten    --      8.0150                 1.8032                13.0740

                     31                     32                     33
                      A                      A                      A
 Frequencies --    764.8154               770.3768               784.0223
 Red. masses --      1.4533                 1.6068                 2.1280
 Frc consts  --      0.5009                 0.5618                 0.7707
 IR Inten    --     66.9840                36.7775                25.2037

                     34                     35                     36
                      A                      A                      A
 Frequencies --    787.5238               809.3899               832.7125
 Red. masses --      1.9976                 2.9204                 2.1898
 Frc consts  --      0.7300                 1.1272                 0.8946
 IR Inten    --     31.0415                 4.2379                18.5407

                     37                     38                     39
                      A                      A                      A
 Frequencies --    874.1266               883.2573               887.8018
 Red. masses --      1.3514                 1.6345                 2.2013
 Frc consts  --      0.6084                 0.7513                 1.0223
 IR Inten    --      3.0526                 1.5372                 6.0473

                     40                     41                     42
                      A                      A                      A
 Frequencies --    923.7454               937.5220               949.4315
 Red. masses --      1.6936                 2.1133                 1.4351
 Frc consts  --      0.8514                 1.0944                 0.7622
 IR Inten    --     16.3414                25.9361                 7.0918

                     43                     44                     45
                      A                      A                      A
 Frequencies --    950.6683               955.9690               984.2753
 Red. masses --      1.6630                 1.8350                 1.5823
 Frc consts  --      0.8855                 0.9880                 0.9032
 IR Inten    --      9.8549                 7.3354                 0.2229

                     46                     47                     48
                      A                      A                      A
 Frequencies --    986.1785               986.7629              1021.6641
 Red. masses --      1.4608                 1.3367                 1.8172
 Frc consts  --      0.8371                 0.7668                 1.1175
 IR Inten    --      0.5492                 0.6468                12.6148

                     49                     50                     51
                      A                      A                      A
 Frequencies --   1051.9548              1056.6714              1071.2173
 Red. masses --      2.2442                 1.7724                 2.1684
 Frc consts  --      1.4632                 1.1660                 1.4660
 IR Inten    --      8.1823                 8.5732                 7.0295

                     52                     53                     54
                      A                      A                      A
 Frequencies --   1082.5901              1101.0393              1123.5657
 Red. masses --      2.6872                 2.3555                 1.6903
 Frc consts  --      1.8556                 1.6824                 1.2572
 IR Inten    --     10.0371                18.8137                 7.6610

                     55                     56                     57
                      A                      A                      A
 Frequencies --   1135.1426              1159.1420              1167.1210
 Red. masses --      1.9920                 1.8572                 1.8443
 Frc consts  --      1.5123                 1.4702                 1.4802
 IR Inten    --     58.1958                37.9785                18.7101

                     58                     59                     60
                      A                      A                      A
 Frequencies --   1186.7102              1190.3184              1198.7738
 Red. masses --      1.0877                 1.3103                 1.1790
 Frc consts  --      0.9025                 1.0939                 0.9983
 IR Inten    --      1.2617                 3.9555                 4.3445

                     61                     62                     63
                      A                      A                      A
 Frequencies --   1212.2525              1234.0677              1244.7028
 Red. masses --      1.6067                 2.3744                 2.4587
 Frc consts  --      1.3911                 2.1305                 2.2444
 IR Inten    --      4.9001                17.0021               125.0364

                     64                     65                     66
                      A                      A                      A
 Frequencies --   1259.0013              1267.5229              1298.0260
 Red. masses --      1.5274                 1.6990                 1.4572
 Frc consts  --      1.4264                 1.6082                 1.4465
 IR Inten    --     49.0573               141.6691                23.4998

                     67                     68                     69
                      A                      A                      A
 Frequencies --   1317.7131              1328.2308              1335.2215
 Red. masses --      1.3808                 1.5825                 3.3886
 Frc consts  --      1.4126                 1.6449                 3.5594
 IR Inten    --     12.0898                 1.2996               134.7244

                     70                     71                     72
                      A                      A                      A
 Frequencies --   1354.1479              1365.1748              1368.1695
 Red. masses --      2.7388                 3.6835                 1.1589
 Frc consts  --      2.9590                 4.0447                 1.2781
 IR Inten    --     60.2248                21.8524                24.6534

                     73                     74                     75
                      A                      A                      A
 Frequencies --   1379.1040              1398.3487              1402.5909
 Red. masses --      1.5531                 1.4703                 1.3192
 Frc consts  --      1.7404                 1.6939                 1.5290
 IR Inten    --     10.7836                11.1186                17.1667

                     76                     77                     78
                      A                      A                      A
 Frequencies --   1432.1042              1448.3824              1486.7775
 Red. masses --      1.4494                 1.3203                 1.4830
 Frc consts  --      1.7514                 1.6318                 1.9314
 IR Inten    --      8.5662                17.9350                23.5995

                     79                     80                     81
                      A                      A                      A
 Frequencies --   1488.0547              1493.5455              1497.9271
 Red. masses --      1.1448                 1.3538                 1.3061
 Frc consts  --      1.4936                 1.7792                 1.7267
 IR Inten    --     23.6581                28.1345                 6.9250

                     82                     83                     84
                      A                      A                      A
 Frequencies --   1502.6718              1513.0352              1522.8684
 Red. masses --      1.9330                 1.0913                 1.1853
 Frc consts  --      2.5716                 1.4719                 1.6196
 IR Inten    --     64.3962                36.6556               117.5702

                     85                     86                     87
                      A                      A                      A
 Frequencies --   1531.8140              1545.2904              1569.3972
 Red. masses --      2.2041                 2.5352                 1.1036
 Frc consts  --      3.0472                 3.5668                 1.6015
 IR Inten    --    321.8248                25.3758                 8.9328

                     88                     89                     90
                      A                      A                      A
 Frequencies --   1628.4368              1641.2872              1650.4736
 Red. masses --      5.7628                 6.4807                 1.0531
 Frc consts  --      9.0038                10.2859                 1.6902
 IR Inten    --     22.4946                17.9970                85.6598

                     91                     92                     93
                      A                      A                      A
 Frequencies --   1652.9271              1655.3927              1659.9775
 Red. masses --      4.4879                 1.0854                 5.6828
 Frc consts  --      7.2243                 1.7524                 9.2261
 IR Inten    --     41.9511                67.8533                16.3972

                     94                     95                     96
                      A                      A                      A
 Frequencies --   3033.3006              3037.0034              3062.0388
 Red. masses --      1.0734                 1.0655                 1.0653
 Frc consts  --      5.8187                 5.7905                 5.8852
 IR Inten    --     94.7572                43.3530                30.4814

                     97                     98                     99
                      A                      A                      A
 Frequencies --   3079.1831              3079.3796              3112.3985
 Red. masses --      1.0844                 1.0749                 1.1020
 Frc consts  --      6.0575                 6.0057                 6.2896
 IR Inten    --     80.0117                49.2647                55.3809

                    100                    101                    102
                      A                      A                      A
 Frequencies --   3126.1329              3137.5692              3144.5264
 Red. masses --      1.0905                 1.0652                 1.0900
 Frc consts  --      6.2791                 6.1781                 6.3502
 IR Inten    --      0.8512                12.4177                59.6563

                    103                    104                    105
                      A                      A                      A
 Frequencies --   3187.4309              3193.0012              3201.0959
 Red. masses --      1.0872                 1.1098                 1.0859
 Frc consts  --      6.5078                 6.6662                 6.5562
 IR Inten    --     20.9230                11.3814                 6.5713

                    106                    107                    108
                      A                      A                      A
 Frequencies --   3201.8489              3210.7363              3218.1250
 Red. masses --      1.0886                 1.0894                 1.0960
 Frc consts  --      6.5753                 6.6167                 6.6873
 IR Inten    --     22.6941                26.1492                55.8354

                    109                    110                    111
                      A                      A                      A
 Frequencies --   3222.3667              3234.0826              3246.6241
 Red. masses --      1.0938                 1.0951                 1.0905
 Frc consts  --      6.6919                 6.7483                 6.7726
 IR Inten    --     55.4732                25.6270                23.0305

                    112                    113                    114
                      A                      A                      A
 Frequencies --   3393.0069              3459.0628              3487.2056
 Red. masses --      1.0375                 1.0890                 1.0941
 Frc consts  --      7.0370                 7.6772                 7.8392
 IR Inten    --    136.6693               212.7547               223.7256

 - Thermochemistry -
 -------------------
 Temperature   298.150 Kelvin.  Pressure   1.00000 Atm.
 Atom     1 has atomic number  7 and mass  14.00307

 Molecular mass:   253.17047 amu.
 Principal axes and moments of inertia in atomic units:
                           1         2         3
     Eigenvalues --  3937.520115285.994036918.89125
           X            0.99999   0.00338  -0.00344
           Y           -0.00341   0.99995  -0.00903
           Z            0.00341   0.00905   0.99995
 This molecule is an asymmetric top.
 Rotational symmetry number  1.
 Warning -- assumption of classical behavior for rotation
           may cause significant error
 Rotational temperatures (Kelvin)      0.02200     0.01639     0.01252
 Rotational constants (GHZ):           0.45834     0.34142     0.26084
 Zero-point vibrational energy     931073.5 (Joules/Mol)
                                  222.53191 (Kcal/Mol)
 Warning -- explicit consideration of  26 degrees of freedom as
           vibrations may cause significant error
 Vibrational temperatures:     54.41    66.30    94.82   135.59   147.69
          (Kelvin)            208.61   219.58   275.97   289.73   385.75
                              420.40   431.66   460.01   491.82   526.97
                              562.07   598.57   642.88   671.81   691.98
                              709.49   763.38   799.25   827.44   856.02
                              868.79   916.83   995.78  1048.96  1092.83
                             1100.40  1108.40  1128.03  1133.07  1164.53
                             1198.09  1257.67  1270.81  1277.35  1329.06
                             1348.89  1366.02  1367.80  1375.43  1416.15
                             1418.89  1419.73  1469.95  1513.53  1520.31
                             1541.24  1557.61  1584.15  1616.56  1633.22
                             1667.75  1679.23  1707.41  1712.60  1724.77
                             1744.16  1775.55  1790.85  1811.42  1823.68
                             1867.57  1895.90  1911.03  1921.09  1948.32
                             1964.18  1968.49  1984.22  2011.91  2018.02
                             2060.48  2083.90  2139.14  2140.98  2148.88
                             2155.18  2162.01  2176.92  2191.07  2203.94
                             2223.33  2258.01  2342.96  2361.45  2374.66
                             2378.19  2381.74  2388.34  4364.24  4369.57
                             4405.59  4430.26  4430.54  4478.05  4497.81
                             4514.26  4524.27  4586.00  4594.02  4605.66
                             4606.75  4619.53  4630.16  4636.27  4653.12
                             4671.17  4881.78  4976.82  5017.31

 Zero-point correction=                           0.354627 (Hartree/Particle)
 Thermal correction to Energy=                    0.370765
 Thermal correction to Enthalpy=                  0.371709
 Thermal correction to Gibbs Free Energy=         0.311007
 Sum of electronic and zero-point Energies=           -769.477584
 Sum of electronic and thermal Energies=              -769.461446
 Sum of electronic and thermal Enthalpies=            -769.460502
 Sum of electronic and thermal Free Energies=         -769.521205

                     E (Thermal)             CV                S
                      KCal/Mol        Cal/Mol-Kelvin    Cal/Mol-Kelvin
 Total                  232.659             65.826            127.760
 Electronic               0.000              0.000              0.000
 Translational            0.889              2.981             42.487
 Rotational               0.889              2.981             33.332
 Vibrational            230.881             59.865             51.941
 Vibration     1          0.594              1.982              5.370
 Vibration     2          0.595              1.979              4.979
 Vibration     3          0.597              1.971              4.272
 Vibration     4          0.603              1.953              3.570
 Vibration     5          0.605              1.947              3.403
 Vibration     6          0.616              1.908              2.737
 Vibration     7          0.619              1.900              2.639
 Vibration     8          0.634              1.851              2.210
 Vibration     9          0.638              1.838              2.121
 Vibration    10          0.673              1.732              1.608
 Vibration    11          0.688              1.688              1.461
 Vibration    12          0.693              1.674              1.417
 Vibration    13          0.706              1.636              1.312
 Vibration    14          0.721              1.592              1.204
 Vibration    15          0.739              1.542              1.095
 Vibration    16          0.758              1.490              0.998
 Vibration    17          0.779              1.435              0.906
 Vibration    18          0.806              1.368              0.805
 Vibration    19          0.824              1.323              0.746
 Vibration    20          0.837              1.292              0.707
 Vibration    21          0.849              1.265              0.676
 Vibration    22          0.886              1.182              0.586
 Vibration    23          0.911              1.128              0.533
 Vibration    24          0.931              1.085              0.495
 Vibration    25          0.953              1.042              0.458
 Vibration    26          0.962              1.024              0.443

                           ! Non-Optimized Parameters !
 Normal termination of Gaussian 16 at Sun Jul 18 14:40:00 2021.

 ----------------------------------------------------------------------
 #p b3lyp/6-31G(d) scrf=(iefpcm,read,solvent=water) geom=allcheck guess
 =read
 ----------------------------------------------------------------------

 Structure from the checkpoint file:  "SET_328_BBB20_conf1.geo_135_300_300.chk"
 --------------------------------------------
 SET_328_BBB20_conf1.geo_135_300_300 geometry
 --------------------------------------------
 Charge =  1 Multiplicity = 1

 SCF Done:  E(RB3LYP) =  -769.832211571     A.U. after    1 cycles
 Normal termination of Gaussian 16 at Sun Jul 18 14:40:15 2021.

 -----------------------------
 #p B3LYP/6-31G* geom=allcheck
 -----------------------------

 Structure from the checkpoint file:  "SET_328_BBB20_conf1.geo_135_300_300.chk"
 --------------------------------------------
 SET_328_BBB20_conf1.geo_135_300_300 geometry
 --------------------------------------------
 Charge =  1 Multiplicity = 1

 SCF Done:  E(RB3LYP) =  -769.720240555     A.U. after   14 cycles

 The electronic state is 1-A.
 Alpha  occ. eigenvalues --  -14.65600 -14.46394 -10.41862 -10.35557 -10.34834
 Alpha  occ. eigenvalues --  -10.32581 -10.32201 -10.28957 -10.28884 -10.28819
 Alpha  occ. eigenvalues --  -10.28512 -10.28305 -10.28159 -10.28127 -10.27945
 Alpha  occ. eigenvalues --  -10.27844 -10.27573 -10.27314 -10.26993  -1.19707
 Alpha  occ. eigenvalues --   -1.06322  -0.95933  -0.94739  -0.93425  -0.89446
 Alpha  occ. eigenvalues --   -0.86313  -0.84823  -0.84651  -0.81789  -0.79964
 Alpha  occ. eigenvalues --   -0.78173  -0.77500  -0.75605  -0.74017  -0.70409
 Alpha  occ. eigenvalues --   -0.69273  -0.67871  -0.67371  -0.65793  -0.62848
 Alpha  occ. eigenvalues --   -0.61636  -0.60426  -0.58887  -0.57502  -0.56973
 Alpha  occ. eigenvalues --   -0.56281  -0.55078  -0.53672  -0.53327  -0.52811
 Alpha  occ. eigenvalues --   -0.52401  -0.51061  -0.50635  -0.49750  -0.48858
 Alpha  occ. eigenvalues --   -0.48083  -0.47231  -0.45822  -0.44836  -0.43843
 Alpha  occ. eigenvalues --   -0.43555  -0.43072  -0.42256  -0.39027  -0.34183
 Alpha  occ. eigenvalues --   -0.33608  -0.32953  -0.29992
 Alpha virt. eigenvalues --   -0.16014  -0.10165  -0.09744  -0.09514  -0.09009
 Alpha virt. eigenvalues --   -0.08927  -0.08444  -0.05191  -0.03909  -0.02807
 Alpha virt. eigenvalues --   -0.00168   0.00701   0.01397   0.01778   0.02594

 Mulliken charges:
               1
     1  N   -0.728259
     2  H    0.436723
     3  H    0.425077
     4  C   -0.214582
     5  H    0.251447
     6  H    0.225607
     7  C   -0.307395
     8  H    0.220653
     9  H    0.166679
    10  C   -0.164364
    11  H    0.187671
    12  H    0.135612
    13  N   -0.592570
    14  C    0.196144
    15  C   -0.164148
    16  H    0.139891
    17  C   -0.145575
    18  H    0.153715
    19  C   -0.118939
    20  H    0.154788
    21  C   -0.210324
    22  H    0.144807
    23  C    0.151714
    24  C   -0.351666
    25  H    0.160515
    26  H    0.103826
    27  C   -0.341547
    28  H    0.180892
    29  H    0.161664
    30  C    0.150657
    31  C   -0.198022
    32  H    0.143832
    33  C   -0.118966
    34  H    0.152716
    35  C   -0.145485
    36  H    0.149179
    37  C   -0.186305
    38  H    0.125442
    39  C    0.236685
    40  H    0.432210
 Sum of Mulliken charges =   1.00000

 Dipole moment (field-independent basis, Debye):
    X=             -2.0714    Y=             13.8568    Z=              4.5962  Tot=             14.7454
 Quadrupole moment (field-independent basis, Debye-Ang):
   XX=            -91.9670   YY=            -48.2150   ZZ=            -94.2246
   XY=             -7.1371   XZ=             -3.5491   YZ=             12.1840

 Normal termination of Gaussian 16 at Sun Jul 18 14:41:29 2021.
 Gaussian 16:  ES64L-G16RevB.01 20-Dec-2017

 --------------------------------------------------------
 #p mp2/aug-cc-pVDZ scf=tight maxdisk=180GB geom=allcheck
 --------------------------------------------------------

 Structure from the checkpoint file:  "SET_328_BBB20_conf1.geo_135_300_300.chk"
 --------------------------------------------
 SET_328_BBB20_conf1.geo_135_300_300 geometry
 --------------------------------------------
 Charge =  1 Multiplicity = 1

                         Standard orientation:
 ---------------------------------------------------------------------
 Center     Atomic      Atomic             Coordinates (Angstroms)
 Number     Number       Type             X           Y           Z
 ---------------------------------------------------------------------
      1          7           0       -0.674465    3.612426    1.266105
      2          1           0       -1.449177    3.004268    0.967839
      3          1           0       -0.751478    4.495963    0.744507
      4          6           0        0.670608    2.965786    1.062945
      5          1           0        0.646399    2.028598    1.619190
      6          1           0        1.399477    3.635290    1.518424
      7          6           0        0.979453    2.738818   -0.410702
      8          1           0        2.014988    2.395764   -0.465955
      9          1           0        0.935118    3.689122   -0.954420
     10          6           0        0.062301    1.731731   -1.119042
     11          1           0        0.369400    1.656849   -2.170840
     12          1           0       -0.961351    2.109281   -1.135718
     13          7           0        0.007440    0.431197   -0.442955
     14          6           0       -1.260236   -0.225859   -0.479087
     15          6           0       -2.072303   -0.162053   -1.619094
     16          1           0       -1.715550    0.358755   -2.499675
     17          6           0       -3.329102   -0.766734   -1.625948
     18          1           0       -3.945738   -0.711558   -2.516642
     19          6           0       -3.782164   -1.447953   -0.495679
     20          1           0       -4.757675   -1.922700   -0.495452
     21          6           0       -2.973663   -1.505777    0.640718
     22          1           0       -3.321608   -2.017582    1.532468
     23          6           0       -1.719561   -0.890614    0.669347
     24          6           0       -0.839444   -0.931158    1.882630
     25          1           0       -1.405231   -1.322364    2.732915
     26          1           0       -0.519473    0.084295    2.141252
     27          6           0        0.392041   -1.815990    1.661308
     28          1           0        0.042432   -2.827016    1.414604
     29          1           0        0.935659   -1.913971    2.607681
     30          6           0        1.391162   -1.370795    0.602559
     31          6           0        2.615157   -2.056319    0.606533
     32          1           0        2.750526   -2.837071    1.350121
     33          6           0        3.652200   -1.766858   -0.275857
     34          1           0        4.586227   -2.317399   -0.227749
     35          6           0        3.464653   -0.750008   -1.209877
     36          1           0        4.247905   -0.493470   -1.916143
     37          6           0        2.258231   -0.058972   -1.246999
     38          1           0        2.129139    0.714415   -1.992373
     39          6           0        1.202232   -0.344502   -0.357099
     40          1           0       -0.830199    3.828715    2.263989
 ---------------------------------------------------------------------

 SCF Done:  E(RHF) =  -764.750749607     A.U. after   16 cycles
