 Gaussian 16, Revision B.01,

 -----------------------------------------------------------
 #p b3lyp/6-31G(d) opt freq scrf=(iefpcm,read,solvent=water)
 -----------------------------------------------------------

 ---------------------------------------------
 SET_328_BBB321_conf1.geo_180_330_045 geometry
 ---------------------------------------------
 Symbolic Z-matrix:
 Charge =  1 Multiplicity = 1

 SCF Done:  E(RB3LYP) =  -1212.36008621     A.U. after   17 cycles
 SCF Done:  E(RB3LYP) =  -1212.53289391     A.U. after   15 cycles
 SCF Done:  E(RB3LYP) =  -1212.65041571     A.U. after   16 cycles
 SCF Done:  E(RB3LYP) =  -1212.70997300     A.U. after   14 cycles
 SCF Done:  E(RB3LYP) =  -1212.75711516     A.U. after   13 cycles
 SCF Done:  E(RB3LYP) =  -1212.77040353     A.U. after   13 cycles
 SCF Done:  E(RB3LYP) =  -1212.78139431     A.U. after   13 cycles
 SCF Done:  E(RB3LYP) =  -1212.78961885     A.U. after   13 cycles
 SCF Done:  E(RB3LYP) =  -1212.79564555     A.U. after   14 cycles
 SCF Done:  E(RB3LYP) =  -1212.80091757     A.U. after   11 cycles
 SCF Done:  E(RB3LYP) =  -1212.82301249     A.U. after    7 cycles
 SCF Done:  E(RB3LYP) =  -1212.82301535     A.U. after    8 cycles
 SCF Done:  E(RB3LYP) =  -1212.82301230     A.U. after    8 cycles
 SCF Done:  E(RB3LYP) =  -1212.82301278     A.U. after    6 cycles
 SCF Done:  E(RB3LYP) =  -1212.82301539     A.U. after    8 cycles
 SCF Done:  E(RB3LYP) =  -1212.82301253     A.U. after    8 cycles
 Optimization completed.
    -- Stationary point found.
 Normal termination of Gaussian 16 at Sun Jul 18 16:54:18 2021.

 --------------------------------------------------------------------
 #P Geom=AllCheck Guess=TCheck SCRF=Check GenChk RB3LYP/6-31G(d) Freq
 --------------------------------------------------------------------

 Structure from the checkpoint file:  "SET_328_BBB321_conf1.geo_180_330_045.chk"
 ---------------------------------------------
 SET_328_BBB321_conf1.geo_180_330_045 geometry
 ---------------------------------------------
 Charge =  1 Multiplicity = 1

 SCF Done:  E(RB3LYP) =  -1212.82301253     A.U. after    1 cycles

  Exact polarizability: 344.456   4.601 327.433   2.134  -0.020  90.960
 Approx polarizability: 378.945   7.396 363.512   2.842   0.076 109.056

                      1                      2                      3
                      A                      A                      A
 Frequencies --     19.1991                44.7629                62.2385
 Red. masses --      6.2779                 6.0108                 5.4937
 Frc consts  --      0.0014                 0.0071                 0.0125
 IR Inten    --      5.7641                17.6801                11.6569

                      4                      5                      6
                      A                      A                      A
 Frequencies --     69.3505                73.7424                86.6935
 Red. masses --      5.4606                 5.4610                 2.4714
 Frc consts  --      0.0155                 0.0175                 0.0109
 IR Inten    --      0.3244                13.5818                 0.0575

                      7                      8                      9
                      A                      A                      A
 Frequencies --     97.2801               110.5189               133.3144
 Red. masses --      1.3311                 4.9485                 5.5723
 Frc consts  --      0.0074                 0.0356                 0.0584
 IR Inten    --      1.0522                 2.1393                11.0855

                     10                     11                     12
                      A                      A                      A
 Frequencies --    156.6800               218.4820               248.6434
 Red. masses --      1.1494                 5.0349                 4.5920
 Frc consts  --      0.0166                 0.1416                 0.1673
 IR Inten    --    357.1196                 3.3005                 2.7689

                     13                     14                     15
                      A                      A                      A
 Frequencies --    261.4955               279.5494               280.6478
 Red. masses --      4.6902                 5.1660                 6.5578
 Frc consts  --      0.1890                 0.2379                 0.3043
 IR Inten    --      7.1204                 2.7833                 1.8442

                     16                     17                     18
                      A                      A                      A
 Frequencies --    320.4224               334.8102               353.7691
 Red. masses --      4.2483                 6.0454                 5.8544
 Frc consts  --      0.2570                 0.3993                 0.4317
 IR Inten    --     16.7634                21.0258                 3.6841

                     19                     20                     21
                      A                      A                      A
 Frequencies --    365.1756               403.3048               410.7892
 Red. masses --      1.2414                 5.1223                 1.0530
 Frc consts  --      0.0975                 0.4909                 0.1047
 IR Inten    --    322.8098                 2.1326               101.7797

                     22                     23                     24
                      A                      A                      A
 Frequencies --    453.1112               497.6712               530.1473
 Red. masses --      3.3087                 5.1853                 2.1255
 Frc consts  --      0.4002                 0.7567                 0.3520
 IR Inten    --      8.2232                 2.4303                86.4016

                     25                     26                     27
                      A                      A                      A
 Frequencies --    538.1784               548.1397               563.5370
 Red. masses --      3.9444                 2.5059                 2.0614
 Frc consts  --      0.6731                 0.4436                 0.3857
 IR Inten    --     35.7257                 1.6860               175.5925

                     28                     29                     30
                      A                      A                      A
 Frequencies --    583.2140               603.7733               621.3269
 Red. masses --      1.8420                 2.3823                 9.3644
 Frc consts  --      0.3691                 0.5117                 2.1299
 IR Inten    --      0.3689                41.0424                 1.5589

                     31                     32                     33
                      A                      A                      A
 Frequencies --    636.8783               660.1468               669.5727
 Red. masses --      1.7667                 1.1606                 6.1860
 Frc consts  --      0.4222                 0.2980                 1.6340
 IR Inten    --     31.1428                 3.7315                 8.6564

                     34                     35                     36
                      A                      A                      A
 Frequencies --    692.5933               695.8961               700.1295
 Red. masses --      5.8713                 3.4475                 1.8741
 Frc consts  --      1.6594                 0.9836                 0.5413
 IR Inten    --     17.7808                 2.8065                 4.0149

                     37                     38                     39
                      A                      A                      A
 Frequencies --    709.6175               749.1042               806.4139
 Red. masses --      3.3454                 1.8292                 1.7161
 Frc consts  --      0.9925                 0.6048                 0.6575
 IR Inten    --      1.9534                92.3490                33.9204

                     40                     41                     42
                      A                      A                      A
 Frequencies --    820.7193               870.0707               897.7436
 Red. masses --      7.3891                 6.1039                 3.3936
 Frc consts  --      2.9324                 2.7225                 1.6115
 IR Inten    --     35.3294                39.3458                 0.7815

                     43                     44                     45
                      A                      A                      A
 Frequencies --    899.9981               928.6058               973.9771
 Red. masses --      1.5804                 1.4568                 6.0242
 Frc consts  --      0.7542                 0.7402                 3.3670
 IR Inten    --      2.8817                24.1450                 8.5093

                     46                     47                     48
                      A                      A                      A
 Frequencies --    978.8127               989.6458              1009.7639
 Red. masses --      1.2745                 3.2845                 5.0634
 Frc consts  --      0.7194                 1.8953                 3.0418
 IR Inten    --      0.9739                 4.3294                19.0642

                     49                     50                     51
                      A                      A                      A
 Frequencies --   1016.1198              1042.3572              1066.0629
 Red. masses --      6.0976                 1.6653                 1.6867
 Frc consts  --      3.7094                 1.0661                 1.1294
 IR Inten    --      0.8352                19.5153                18.6292

                     52                     53                     54
                      A                      A                      A
 Frequencies --   1090.8804              1109.4098              1130.3512
 Red. masses --      1.4312                 1.7698                 1.6442
 Frc consts  --      1.0035                 1.2834                 1.2377
 IR Inten    --     14.5848                38.3524                 0.8581

                     55                     56                     57
                      A                      A                      A
 Frequencies --   1135.2426              1204.2118              1204.6286
 Red. masses --      1.8048                 1.2723                 1.4938
 Frc consts  --      1.3704                 1.0871                 1.2772
 IR Inten    --     21.9885                 3.4767                55.5738

                     58                     59                     60
                      A                      A                      A
 Frequencies --   1252.1402              1274.1603              1302.4017
 Red. masses --      2.9964                 2.6099                 2.1788
 Frc consts  --      2.7679                 2.4965                 2.1775
 IR Inten    --    236.8989                40.0695               226.3335

                     61                     62                     63
                      A                      A                      A
 Frequencies --   1312.2033              1366.2468              1375.5514
 Red. masses --      2.0991                 2.8450                 6.0151
 Frc consts  --      2.1295                 3.1289                 6.7058
 IR Inten    --     60.2278                15.5777                72.1884

                     64                     65                     66
                      A                      A                      A
 Frequencies --   1421.5591              1457.3435              1489.6489
 Red. masses --      1.2746                 3.2466                 1.0784
 Frc consts  --      1.5176                 4.0626                 1.4099
 IR Inten    --     26.5069               335.4889                15.8825

                     67                     68                     69
                      A                      A                      A
 Frequencies --   1506.1392              1514.4000              1532.4933
 Red. masses --      1.0780                 1.8072                 2.4543
 Frc consts  --      1.4408                 2.4420                 3.3961
 IR Inten    --     20.1947                95.3354                68.1486

                     70                     71                     72
                      A                      A                      A
 Frequencies --   1538.4451              1563.0346              1588.4609
 Red. masses --      1.8638                 4.5972                 3.1631
 Frc consts  --      2.5991                 6.6173                 4.7024
 IR Inten    --    384.6527               116.6394               236.4295

                     73                     74                     75
                      A                      A                      A
 Frequencies --   1603.3780              1625.7453              1640.1109
 Red. masses --      2.2594                 1.7330                 1.5386
 Frc consts  --      3.4222                 2.6987                 2.4385
 IR Inten    --    321.0991               748.8213               780.2080

                     76                     77                     78
                      A                      A                      A
 Frequencies --   1646.0612              1666.0814              1719.1974
 Red. masses --      5.6505                 4.2040                 3.2838
 Frc consts  --      9.0204                 6.8755                 5.7185
 IR Inten    --    111.8762                67.2360               894.8092

                     79                     80                     81
                      A                      A                      A
 Frequencies --   1741.3067              3080.7113              3150.4331
 Red. masses --      6.2345                 1.0390                 1.0981
 Frc consts  --     11.1379                 5.8098                 6.4217
 IR Inten    --    356.7779                 7.0977                15.3083

                     82                     83                     84
                      A                      A                      A
 Frequencies --   3180.3631              3207.9763              3220.9429
 Red. masses --      1.1046                 1.0864                 1.0905
 Frc consts  --      6.5831                 6.5873                 6.6655
 IR Inten    --     19.6356                 8.0063                31.0177

                     85                     86                     87
                      A                      A                      A
 Frequencies --   3230.4666              3312.5291              3323.9762
 Red. masses --      1.0956                 1.0946                 1.0888
 Frc consts  --      6.7365                 7.0764                 7.0878
 IR Inten    --     31.6610                 5.8870                20.0152

                     88                     89                     90
                      A                      A                      A
 Frequencies --   3484.6994              3549.7935              3558.8162
 Red. masses --      1.0511                 1.0519                 1.0746
 Frc consts  --      7.5200                 7.8099                 8.0187
 IR Inten    --    437.2840               193.3575               394.2608

                     91                     92                     93
                      A                      A                      A
 Frequencies --   3614.3262              3620.7609              3663.4076
 Red. masses --      1.0778                 1.1034                 1.1095
 Frc consts  --      8.2958                 8.5229                 8.7729
 IR Inten    --    106.9409               451.9979               246.3131

 - Thermochemistry -
 -------------------
 Temperature   298.150 Kelvin.  Pressure   1.00000 Atm.
 Atom     1 has atomic number  6 and mass  12.00000

 Molecular mass:   276.09191 amu.
 Principal axes and moments of inertia in atomic units:
                           1         2         3
     Eigenvalues --  4036.364128253.69083**********
           X            0.99996  -0.00855  -0.00042
           Y            0.00855   0.99996  -0.00041
           Z            0.00043   0.00040   1.00000
 This molecule is an asymmetric top.
 Rotational symmetry number  1.
 Warning -- assumption of classical behavior for rotation
           may cause significant error
 Rotational temperatures (Kelvin)      0.02146     0.01049     0.00706
 Rotational constants (GHZ):           0.44712     0.21866     0.14701
 Zero-point vibrational energy     683631.3 (Joules/Mol)
                                  163.39181 (Kcal/Mol)
 Warning -- explicit consideration of  29 degrees of freedom as
           vibrations may cause significant error
 Vibrational temperatures:     27.62    64.40    89.55    99.78   106.10
          (Kelvin)            124.73   139.96   159.01   191.81   225.43
                              314.35   357.74   376.23   402.21   403.79
                              461.02   481.72   508.99   525.41   580.27
                              591.03   651.93   716.04   762.76   774.32
                              788.65   810.80   839.11   868.70   893.95
                              916.33   949.80   963.37   996.49  1001.24
                             1007.33  1020.98  1077.79  1160.25  1180.83
                             1251.84  1291.65  1294.90  1336.06  1401.34
                             1408.29  1423.88  1452.83  1461.97  1499.72
                             1533.83  1569.53  1596.19  1626.32  1633.36
                             1732.59  1733.19  1801.55  1833.23  1873.87
                             1887.97  1965.72  1979.11  2045.31  2096.79
                             2143.27  2167.00  2178.88  2204.92  2213.48
                             2248.86  2285.44  2306.90  2339.08  2359.75
                             2368.31  2397.12  2473.54  2505.35  4432.46
                             4532.77  4575.83  4615.56  4634.22  4647.92
                             4765.99  4782.46  5013.71  5107.36  5120.34
                             5200.21  5209.47  5270.83

 Zero-point correction=                           0.260381 (Hartree/Particle)
 Thermal correction to Energy=                    0.278878
 Thermal correction to Enthalpy=                  0.279823
 Thermal correction to Gibbs Free Energy=         0.212191
 Sum of electronic and zero-point Energies=          -1212.562631
 Sum of electronic and thermal Energies=             -1212.544134
 Sum of electronic and thermal Enthalpies=           -1212.543190
 Sum of electronic and thermal Free Energies=        -1212.610822

                     E (Thermal)             CV                S
                      KCal/Mol        Cal/Mol-Kelvin    Cal/Mol-Kelvin
 Total                  174.999             69.714            142.343
 Electronic               0.000              0.000              0.000
 Translational            0.889              2.981             42.745
 Rotational               0.889              2.981             34.369
 Vibrational            173.221             63.752             65.229
 Vibration     1          0.593              1.986              6.715
 Vibration     2          0.595              1.979              5.036
 Vibration     3          0.597              1.972              4.385
 Vibration     4          0.598              1.969              4.172
 Vibration     5          0.599              1.966              4.051
 Vibration     6          0.601              1.958              3.733
 Vibration     7          0.603              1.951              3.508
 Vibration     8          0.606              1.941              3.260
 Vibration     9          0.613              1.920              2.898
 Vibration    10          0.620              1.895              2.589
 Vibration    11          0.646              1.813              1.972
 Vibration    12          0.662              1.765              1.740
 Vibration    13          0.669              1.743              1.652
 Vibration    14          0.680              1.711              1.536
 Vibration    15          0.680              1.709              1.530
 Vibration    16          0.706              1.634              1.308
 Vibration    17          0.716              1.606              1.237
 Vibration    18          0.730              1.568              1.149
 Vibration    19          0.738              1.544              1.100
 Vibration    20          0.769              1.463              0.951
 Vibration    21          0.775              1.447              0.924
 Vibration    22          0.812              1.354              0.786
 Vibration    23          0.853              1.255              0.664
 Vibration    24          0.885              1.183              0.587
 Vibration    25          0.893              1.166              0.569
 Vibration    26          0.903              1.144              0.548
 Vibration    27          0.919              1.110              0.517
 Vibration    28          0.940              1.068              0.479
 Vibration    29          0.962              1.024              0.443

 Optimization completed.
    -- Stationary point found.
 Normal termination of Gaussian 16 at Sun Jul 18 17:04:44 2021.

 ----------------------------------------------------------------------
 #p b3lyp/6-31G(d) scrf=(iefpcm,read,solvent=water) geom=allcheck guess
 =read
 ----------------------------------------------------------------------

 Structure from the checkpoint file:  "SET_328_BBB321_conf1.geo_180_330_045.chk"
 ---------------------------------------------
 SET_328_BBB321_conf1.geo_180_330_045 geometry
 ---------------------------------------------
 Charge =  1 Multiplicity = 1

 SCF Done:  E(RB3LYP) =  -1212.82301253     A.U. after    1 cycles
 Normal termination of Gaussian 16 at Sun Jul 18 17:04:55 2021.

 -----------------------------
 #p B3LYP/6-31G* geom=allcheck
 -----------------------------

 Structure from the checkpoint file:  "SET_328_BBB321_conf1.geo_180_330_045.chk"
 ---------------------------------------------
 SET_328_BBB321_conf1.geo_180_330_045 geometry
 ---------------------------------------------
 Charge =  1 Multiplicity = 1

 SCF Done:  E(RB3LYP) =  -1212.70314095     A.U. after   17 cycles
 Normal termination of Gaussian 16 at Sun Jul 18 17:05:52 2021.
 Gaussian 16:  ES64L-G16RevB.01 20-Dec-2017

 --------------------------------------------------------
 #p mp2/aug-cc-pVDZ scf=tight maxdisk=180GB geom=allcheck
 --------------------------------------------------------

 Structure from the checkpoint file:  "SET_328_BBB321_conf1.geo_180_330_045.chk"
 ---------------------------------------------
 SET_328_BBB321_conf1.geo_180_330_045 geometry
 ---------------------------------------------
 Charge =  1 Multiplicity = 1

                         Standard orientation:
 ---------------------------------------------------------------------
 Center     Atomic      Atomic             Coordinates (Angstroms)
 Number     Number       Type             X           Y           Z
 ---------------------------------------------------------------------
      1          6           0        4.515566    2.926705   -0.064048
      2          1           0        4.235244    3.837768    0.465834
      3          1           0        4.717554    3.190743   -1.107271
      4          1           0        5.430263    2.518849    0.370104
      5          6           0        3.352762    1.956880   -0.013660
      6          8           0        2.184573    2.348916   -0.022726
      7          7           0        3.715266    0.636963    0.012175
      8          1           0        4.710663    0.447371    0.011905
      9          6           0        2.889169   -0.503894    0.015720
     10          6           0        3.511865   -1.761873    0.036162
     11          6           0        2.737733   -2.919722    0.042764
     12          6           0        1.347345   -2.848199    0.029681
     13          1           0        0.758505   -3.758384    0.037106
     14          1           0        3.227807   -3.887482    0.059169
     15          1           0        4.594625   -1.831631    0.047368
     16          6           0        1.489898   -0.427818    0.002134
     17          1           0        1.015516    0.537920   -0.014772
     18          6           0        0.715745   -1.595669    0.009001
     19          6           0       -0.753940   -1.483074   -0.006632
     20          7           0       -1.340508   -0.222675    0.001452
     21          6           0       -1.643862   -2.520928   -0.031211
     22          1           0       -1.444429   -3.580192   -0.044330
     23         16           0       -3.279700   -1.939801   -0.043647
     24          6           0       -2.638648   -0.302341   -0.015396
     25          7           0       -3.504624    0.777848   -0.011181
     26          6           0       -3.156660    2.098721    0.028773
     27          7           0       -1.887002    2.468669    0.074828
     28          1           0       -1.651374    3.456245    0.094715
     29          1           0       -1.155624    1.759692    0.065798
     30          7           0       -4.140187    2.992951    0.018934
     31          1           0       -3.927827    3.984671    0.056525
     32          1           0       -5.111464    2.700638   -0.000827
     33          1           0       -4.503291    0.580265   -0.034361
 ---------------------------------------------------------------------

 SCF Done:  E(RHF) =  -1207.16594681     A.U. after   18 cycles
 E2 =    -0.2816271782D+01 EUMP2 =    -0.12099822185904D+04

 The electronic state is 1-A.
 Alpha  occ. eigenvalues --  -92.12815 -20.62386 -15.80760 -15.79180 -15.77423
 Alpha  occ. eigenvalues --  -15.71226 -15.70122 -11.59669 -11.50706 -11.45751
 Alpha  occ. eigenvalues --  -11.40650 -11.38580 -11.38539 -11.35278 -11.33570
 Alpha  occ. eigenvalues --  -11.33328 -11.33123 -11.32695 -11.32680  -9.12980
 Alpha  occ. eigenvalues --   -6.81143  -6.81038  -6.80843  -1.54231  -1.47496
 Alpha  occ. eigenvalues --   -1.44628  -1.38508  -1.37871  -1.34892  -1.24621
 Alpha  occ. eigenvalues --   -1.19759  -1.16663  -1.12160  -1.10622  -1.07257
 Alpha  occ. eigenvalues --   -1.04684  -0.98781  -0.97909  -0.94844  -0.94364
 Alpha  occ. eigenvalues --   -0.90843  -0.87535  -0.87107  -0.84795  -0.84501
 Alpha  occ. eigenvalues --   -0.82422  -0.81019  -0.80416  -0.77100  -0.76537
 Alpha  occ. eigenvalues --   -0.73111  -0.71475  -0.70799  -0.70688  -0.69432
 Alpha  occ. eigenvalues --   -0.68503  -0.67483  -0.64436  -0.64127  -0.63801
 Alpha  occ. eigenvalues --   -0.62551  -0.60864  -0.60204  -0.59955  -0.58760
 Alpha  occ. eigenvalues --   -0.57278  -0.53691  -0.52021  -0.51237  -0.47187
 Alpha  occ. eigenvalues --   -0.41203  -0.39018
 Alpha virt. eigenvalues --   -0.08456  -0.06218  -0.04448  -0.04029  -0.03571
 Alpha virt. eigenvalues --   -0.03280  -0.02810  -0.02347  -0.01919  -0.01607
 Alpha virt. eigenvalues --   -0.01272  -0.00735  -0.00528  -0.00168   0.00317

 Mulliken charges:
               1
     1  C    0.523737
     2  H   -0.009862
     3  H    0.077626
     4  H   -0.099781
     5  C    0.436506
     6  O   -0.904807
     7  N   -0.680687
     8  H   -0.041531
     9  C   -0.395535
    10  C    1.053047
    11  C   -0.113377
    12  C    0.484012
    13  H   -0.644928
    14  H   -0.489245
    15  H   -0.689198
    16  C    1.433420
    17  H   -0.656433
    18  C    2.119388
    19  C   -1.417782
    20  N   -0.606503
    21  C    0.756183
    22  H   -0.596747
    23  S    0.457789
    24  C    0.609269
    25  N   -0.711976
    26  C    1.334357
    27  N   -0.087981
    28  H    0.015498
    29  H    0.095417
    30  N   -0.261127
    31  H    0.026983
    32  H   -0.006038
    33  H   -0.009693
 Sum of Mulliken charges =   1.00000

 Dipole moment (field-independent basis, Debye):
    X=             -9.1432    Y=              6.2204    Z=              0.0684  Tot=             11.0588
 Quadrupole moment (field-independent basis, Debye-Ang):
   XX=            -14.3689   YY=            -67.6403   ZZ=           -124.5771
   XY=            -26.9361   XZ=             -0.3068   YZ=              0.5309

 Normal termination of Gaussian 16 at Sun Jul 18 17:37:07 2021.
