 Gaussian 16, Revision B.01,

 -----------------------------------------------------------
 #p b3lyp/6-31G(d) opt freq scrf=(iefpcm,read,solvent=water)
 -----------------------------------------------------------

 --------------------------------------------
 SET_328_BBB20_conf1.geo_090_285_300 geometry
 --------------------------------------------
 Symbolic Z-matrix:
 Charge =  1 Multiplicity = 1

 SCF Done:  E(RB3LYP) =  -769.769178849     A.U. after   12 cycles
 SCF Done:  E(RB3LYP) =  -769.809976028     A.U. after   11 cycles
 SCF Done:  E(RB3LYP) =  -769.824587534     A.U. after   11 cycles
 SCF Done:  E(RB3LYP) =  -769.826937962     A.U. after   11 cycles
 SCF Done:  E(RB3LYP) =  -769.828147985     A.U. after   10 cycles
 SCF Done:  E(RB3LYP) =  -769.827980055     A.U. after   10 cycles
 SCF Done:  E(RB3LYP) =  -769.828829479     A.U. after   10 cycles
 SCF Done:  E(RB3LYP) =  -769.829229723     A.U. after   10 cycles
 SCF Done:  E(RB3LYP) =  -769.829364934     A.U. after   10 cycles
 SCF Done:  E(RB3LYP) =  -769.829450136     A.U. after   10 cycles
 SCF Done:  E(RB3LYP) =  -769.832398035     A.U. after    1 cycles
 SCF Done:  E(RB3LYP) =  -769.832398036     A.U. after    4 cycles
 SCF Done:  E(RB3LYP) =  -769.832378060     A.U. after    9 cycles
 SCF Done:  E(RB3LYP) =  -769.832376489     A.U. after    7 cycles
 SCF Done:  E(RB3LYP) =  -769.832397965     A.U. after    9 cycles
 SCF Done:  E(RB3LYP) =  -769.832375392     A.U. after    9 cycles
 Optimization completed.
    -- Stationary point found.
 Normal termination of Gaussian 16 at Sun Jul 18 14:43:19 2021.

 --------------------------------------------------------------------
 #P Geom=AllCheck Guess=TCheck SCRF=Check GenChk RB3LYP/6-31G(d) Freq
 --------------------------------------------------------------------

 Structure from the checkpoint file:  "SET_328_BBB20_conf1.geo_090_285_300.chk"
 --------------------------------------------
 SET_328_BBB20_conf1.geo_090_285_300 geometry
 --------------------------------------------
 Charge =  1 Multiplicity = 1

 SCF Done:  E(RB3LYP) =  -769.832375392     A.U. after    1 cycles

  Exact polarizability: 301.670 -21.891 215.848  -6.859 -52.416 241.264
 Approx polarizability: 316.331 -23.587 239.786  -7.023 -62.398 277.112

                      1                      2                      3
                      A                      A                      A
 Frequencies --     41.1707                51.8541                60.0327
 Red. masses --      4.4040                 3.9449                 3.3278
 Frc consts  --      0.0044                 0.0062                 0.0071
 IR Inten    --      3.5935                17.9914                32.4435

                      4                      5                      6
                      A                      A                      A
 Frequencies --     95.2421               106.8562               145.1862
 Red. masses --      3.6614                 3.5624                 2.9548
 Frc consts  --      0.0196                 0.0240                 0.0367
 IR Inten    --      1.1236                10.5958                 1.8646

                      7                      8                      9
                      A                      A                      A
 Frequencies --    154.0432               193.6325               215.7212
 Red. masses --      3.5117                 2.7840                 2.4051
 Frc consts  --      0.0491                 0.0615                 0.0659
 IR Inten    --      6.7283                 9.9146                 0.2473

                     10                     11                     12
                      A                      A                      A
 Frequencies --    252.9746               295.3813               309.5755
 Red. masses --      3.5988                 2.8678                 2.2916
 Frc consts  --      0.1357                 0.1474                 0.1294
 IR Inten    --      0.1178                 2.3816                 1.6833

                     13                     14                     15
                      A                      A                      A
 Frequencies --    323.6168               351.3404               360.6151
 Red. masses --      1.6202                 2.7500                 3.2204
 Frc consts  --      0.1000                 0.2000                 0.2467
 IR Inten    --      1.8338                 3.7768                 4.5164

                     16                     17                     18
                      A                      A                      A
 Frequencies --    377.0563               426.4182               442.4055
 Red. masses --      2.4885                 3.1119                 2.8135
 Frc consts  --      0.2085                 0.3334                 0.3244
 IR Inten    --      8.9124                 5.3777                 6.0486

                     19                     20                     21
                      A                      A                      A
 Frequencies --    466.5487               479.0051               498.7932
 Red. masses --      3.2796                 2.9618                 3.6666
 Frc consts  --      0.4206                 0.4004                 0.5375
 IR Inten    --      1.2730                 0.3268                 8.5394

                     22                     23                     24
                      A                      A                      A
 Frequencies --    528.2445               548.8781               574.7588
 Red. masses --      2.6051                 3.8391                 4.8552
 Frc consts  --      0.4283                 0.6814                 0.9450
 IR Inten    --      7.1200                 2.0317                 2.3002

                     25                     26                     27
                      A                      A                      A
 Frequencies --    593.3626               612.8919               636.5472
 Red. masses --      3.5783                 3.3007                 5.1267
 Frc consts  --      0.7423                 0.7305                 1.2239
 IR Inten    --      1.3535                12.0123                 7.6483

                     28                     29                     30
                      A                      A                      A
 Frequencies --    697.9991               727.6249               756.3332
 Red. masses --      4.5990                 3.2675                 2.4931
 Frc consts  --      1.3202                 1.0192                 0.8403
 IR Inten    --      5.6821                 4.8402                 7.9322

                     31                     32                     33
                      A                      A                      A
 Frequencies --    767.1169               770.8145               787.0750
 Red. masses --      1.6753                 1.7109                 1.9181
 Frc consts  --      0.5809                 0.5989                 0.7001
 IR Inten    --     74.1911                20.7290                44.3337

                     34                     35                     36
                      A                      A                      A
 Frequencies --    789.1874               810.0177               835.4498
 Red. masses --      1.9328                 2.7217                 2.2249
 Frc consts  --      0.7092                 1.0521                 0.9150
 IR Inten    --     12.2543                 2.4931                14.1430

                     37                     38                     39
                      A                      A                      A
 Frequencies --    872.0184               883.1897               890.9732
 Red. masses --      1.4247                 2.1995                 1.5378
 Frc consts  --      0.6383                 1.0108                 0.7193
 IR Inten    --      2.9237                10.5828                 5.0442

                     40                     41                     42
                      A                      A                      A
 Frequencies --    928.0467               936.0801               947.1294
 Red. masses --      2.1060                 1.7399                 1.4300
 Frc consts  --      1.0687                 0.8982                 0.7558
 IR Inten    --     16.3870                30.5130                10.7131

                     43                     44                     45
                      A                      A                      A
 Frequencies --    953.3521               957.4071               980.7796
 Red. masses --      1.9648                 1.5125                 1.2731
 Frc consts  --      1.0521                 0.8169                 0.7215
 IR Inten    --      7.0407                 9.2159                 0.3155

                     46                     47                     48
                      A                      A                      A
 Frequencies --    985.1704               992.2675              1027.2624
 Red. masses --      2.1206                 1.2591                 1.7877
 Frc consts  --      1.2126                 0.7304                 1.1115
 IR Inten    --      1.9207                 0.2291                16.1455

                     49                     50                     51
                      A                      A                      A
 Frequencies --   1048.2509              1052.5385              1070.3407
 Red. masses --      2.3183                 1.7384                 2.2580
 Frc consts  --      1.5009                 1.1347                 1.5241
 IR Inten    --      2.5964                15.7423                 6.3380

                     52                     53                     54
                      A                      A                      A
 Frequencies --   1089.9980              1092.4555              1126.0325
 Red. masses --      2.5333                 2.3127                 1.6733
 Frc consts  --      1.7733                 1.6262                 1.2500
 IR Inten    --     12.7249                21.5225                 5.5194

                     55                     56                     57
                      A                      A                      A
 Frequencies --   1136.0385              1158.2122              1163.7128
 Red. masses --      2.1114                 1.7924                 1.8280
 Frc consts  --      1.6055                 1.4166                 1.4585
 IR Inten    --     54.2010                52.5314                 7.7745

                     58                     59                     60
                      A                      A                      A
 Frequencies --   1188.2248              1192.1702              1202.6304
 Red. masses --      1.1445                 1.2597                 1.1637
 Frc consts  --      0.9520                 1.0548                 0.9916
 IR Inten    --      2.8748                 0.7109                 4.2503

                     61                     62                     63
                      A                      A                      A
 Frequencies --   1211.4177              1234.0190              1247.3012
 Red. masses --      1.6529                 2.6214                 1.6546
 Frc consts  --      1.4292                 2.3519                 1.5166
 IR Inten    --     11.2551                11.6413                72.0153

                     64                     65                     66
                      A                      A                      A
 Frequencies --   1259.0261              1264.2462              1296.7770
 Red. masses --      1.9409                 1.7791                 1.5438
 Frc consts  --      1.8127                 1.6754                 1.5295
 IR Inten    --    113.5128               126.1769                35.2583

                     67                     68                     69
                      A                      A                      A
 Frequencies --   1318.3785              1329.2986              1338.8965
 Red. masses --      1.4236                 1.5531                 2.9296
 Frc consts  --      1.4579                 1.6169                 3.0943
 IR Inten    --      8.4057                 7.6743                98.7436

                     70                     71                     72
                      A                      A                      A
 Frequencies --   1348.1754              1361.6167              1369.4021
 Red. masses --      3.2393                 1.7307                 1.7032
 Frc consts  --      3.4689                 1.8905                 1.8819
 IR Inten    --     29.9066                 6.7050                54.4479

                     73                     74                     75
                      A                      A                      A
 Frequencies --   1378.9554              1396.3449              1402.0217
 Red. masses --      1.4809                 1.4719                 1.3098
 Frc consts  --      1.6591                 1.6909                 1.5169
 IR Inten    --      7.1676                22.1833                18.6976

                     76                     77                     78
                      A                      A                      A
 Frequencies --   1431.9716              1447.8922              1485.0375
 Red. masses --      1.4634                 1.3438                 1.3906
 Frc consts  --      1.7680                 1.6598                 1.8069
 IR Inten    --      5.7881                17.2098                19.3900

                     79                     80                     81
                      A                      A                      A
 Frequencies --   1490.5021              1492.5887              1497.1168
 Red. masses --      1.6080                 1.1143                 1.1908
 Frc consts  --      2.1047                 1.4626                 1.5725
 IR Inten    --     35.2601                29.5242                 5.5057

                     82                     83                     84
                      A                      A                      A
 Frequencies --   1503.0562              1512.3726              1526.2143
 Red. masses --      2.0331                 1.0850                 1.1891
 Frc consts  --      2.7062                 1.4622                 1.6319
 IR Inten    --     41.5740                24.9864               133.5529

                     85                     86                     87
                      A                      A                      A
 Frequencies --   1531.5312              1545.9972              1571.7188
 Red. masses --      2.2319                 2.4072                 1.1070
 Frc consts  --      3.0845                 3.3899                 1.6112
 IR Inten    --    286.5097                43.9935                 4.0857

                     88                     89                     90
                      A                      A                      A
 Frequencies --   1629.1211              1639.9681              1652.8104
 Red. masses --      5.9291                 6.3890                 3.8825
 Frc consts  --      9.2714                10.1241                 6.2490
 IR Inten    --     24.3027                11.3128                59.6970

                     91                     92                     93
                      A                      A                      A
 Frequencies --   1653.4644              1658.9587              1659.4238
 Red. masses --      1.1280                 1.0533                 5.4927
 Frc consts  --      1.8170                 1.7079                 8.9115
 IR Inten    --     60.3637                69.8990                20.9009

                     94                     95                     96
                      A                      A                      A
 Frequencies --   3023.7016              3041.8086              3059.8161
 Red. masses --      1.0730                 1.0658                 1.0622
 Frc consts  --      5.7802                 5.8104                 5.8595
 IR Inten    --     92.0039                44.4074                41.0454

                     97                     98                     99
                      A                      A                      A
 Frequencies --   3080.4989              3083.0512              3109.1693
 Red. masses --      1.0668                 1.0954                 1.1023
 Frc consts  --      5.9645                 6.1345                 6.2783
 IR Inten    --     42.1219                79.1596                57.0030

                    100                    101                    102
                      A                      A                      A
 Frequencies --   3121.8931              3135.5156              3140.8482
 Red. masses --      1.0911                 1.0786                 1.0761
 Frc consts  --      6.2653                 6.2477                 6.2543
 IR Inten    --      8.2578                24.3511                42.1516

                    103                    104                    105
                      A                      A                      A
 Frequencies --   3194.8985              3195.1338              3195.9476
 Red. masses --      1.1093                 1.0869                 1.0858
 Frc consts  --      6.6713                 6.5375                 6.5343
 IR Inten    --     13.5828                12.4171                 4.4406

                    106                    107                    108
                      A                      A                      A
 Frequencies --   3204.5112              3206.8684              3216.4029
 Red. masses --      1.0895                 1.0890                 1.0937
 Frc consts  --      6.5917                 6.5986                 6.6666
 IR Inten    --     26.5061                27.3795                56.5912

                    109                    110                    111
                      A                      A                      A
 Frequencies --   3223.3840              3226.7621              3249.1051
 Red. masses --      1.0959                 1.0949                 1.0912
 Frc consts  --      6.7090                 6.7170                 6.7872
 IR Inten    --     56.1435                25.9112                20.2405

                    112                    113                    114
                      A                      A                      A
 Frequencies --   3395.0517              3464.4830              3500.0363
 Red. masses --      1.0415                 1.0855                 1.0933
 Frc consts  --      7.0733                 7.6763                 7.8907
 IR Inten    --    152.1748               205.2165               221.0795

 - Thermochemistry -
 -------------------
 Temperature   298.150 Kelvin.  Pressure   1.00000 Atm.
 Atom     1 has atomic number  7 and mass  14.00307

 Molecular mass:   253.17047 amu.
 Principal axes and moments of inertia in atomic units:
                           1         2         3
     Eigenvalues --  3958.265925287.956186899.50404
           X            0.99981   0.01939  -0.00062
           Y           -0.01939   0.99977  -0.00878
           Z            0.00045   0.00879   0.99996
 This molecule is an asymmetric top.
 Rotational symmetry number  1.
 Warning -- assumption of classical behavior for rotation
           may cause significant error
 Rotational temperatures (Kelvin)      0.02188     0.01638     0.01255
 Rotational constants (GHZ):           0.45594     0.34129     0.26158
 Zero-point vibrational energy     931368.0 (Joules/Mol)
                                  222.60228 (Kcal/Mol)
 Warning -- explicit consideration of  26 degrees of freedom as
           vibrations may cause significant error
 Vibrational temperatures:     59.24    74.61    86.37   137.03   153.74
          (Kelvin)            208.89   221.63   278.59   310.37   363.97
                              424.99   445.41   465.61   505.50   518.84
                              542.50   613.52   636.52   671.26   689.18
                              717.65   760.03   789.71   826.95   853.72
                              881.81   915.85  1004.27  1046.89  1088.19
                             1103.71  1109.03  1132.43  1135.46  1165.43
                             1202.03  1254.64  1270.71  1281.91  1335.25
                             1346.81  1362.71  1371.66  1377.50  1411.12
                             1417.44  1427.65  1478.00  1508.20  1514.37
                             1539.98  1568.26  1571.80  1620.11  1634.51
                             1666.41  1674.32  1709.59  1715.27  1730.32
                             1742.96  1775.48  1794.59  1811.46  1818.97
                             1865.77  1896.85  1912.56  1926.37  1939.72
                             1959.06  1970.26  1984.01  2009.03  2017.20
                             2060.29  2083.19  2136.64  2144.50  2147.50
                             2154.02  2162.56  2175.97  2195.88  2203.53
                             2224.35  2261.35  2343.94  2359.55  2378.03
                             2378.97  2386.87  2387.54  4350.43  4376.48
                             4402.39  4432.15  4435.82  4473.40  4491.71
                             4511.31  4518.98  4596.75  4597.08  4598.26
                             4610.58  4613.97  4627.69  4637.73  4642.59
                             4674.74  4884.72  4984.62  5035.77

 Zero-point correction=                           0.354739 (Hartree/Particle)
 Thermal correction to Energy=                    0.370831
 Thermal correction to Enthalpy=                  0.371775
 Thermal correction to Gibbs Free Energy=         0.311295
 Sum of electronic and zero-point Energies=           -769.477636
 Sum of electronic and thermal Energies=              -769.461544
 Sum of electronic and thermal Enthalpies=            -769.460600
 Sum of electronic and thermal Free Energies=         -769.521081

                     E (Thermal)             CV                S
                      KCal/Mol        Cal/Mol-Kelvin    Cal/Mol-Kelvin
 Total                  232.700             65.770            127.292
 Electronic               0.000              0.000              0.000
 Translational            0.889              2.981             42.487
 Rotational               0.889              2.981             33.334
 Vibrational            230.923             59.808             51.471
 Vibration     1          0.594              1.981              5.202
 Vibration     2          0.596              1.977              4.745
 Vibration     3          0.597              1.973              4.456
 Vibration     4          0.603              1.953              3.549
 Vibration     5          0.606              1.944              3.325
 Vibration     6          0.617              1.908              2.734
 Vibration     7          0.620              1.898              2.622
 Vibration     8          0.635              1.849              2.193
 Vibration     9          0.645              1.817              1.995
 Vibration    10          0.664              1.758              1.710
 Vibration    11          0.690              1.682              1.443
 Vibration    12          0.699              1.655              1.365
 Vibration    13          0.708              1.628              1.292
 Vibration    14          0.728              1.573              1.160
 Vibration    15          0.735              1.553              1.119
 Vibration    16          0.748              1.519              1.051
 Vibration    17          0.788              1.413              0.870
 Vibration    18          0.802              1.378              0.819
 Vibration    19          0.824              1.324              0.747
 Vibration    20          0.835              1.297              0.713
 Vibration    21          0.854              1.253              0.661
 Vibration    22          0.883              1.187              0.591
 Vibration    23          0.904              1.142              0.547
 Vibration    24          0.931              1.086              0.495
 Vibration    25          0.951              1.046              0.461
 Vibration    26          0.972              1.005              0.428

 Optimization completed.
    -- Stationary point found.
 Normal termination of Gaussian 16 at Sun Jul 18 15:04:10 2021.

 ----------------------------------------------------------------------
 #p b3lyp/6-31G(d) scrf=(iefpcm,read,solvent=water) geom=allcheck guess
 =read
 ----------------------------------------------------------------------

 Structure from the checkpoint file:  "SET_328_BBB20_conf1.geo_090_285_300.chk"
 --------------------------------------------
 SET_328_BBB20_conf1.geo_090_285_300 geometry
 --------------------------------------------
 Charge =  1 Multiplicity = 1

 SCF Done:  E(RB3LYP) =  -769.832375392     A.U. after    1 cycles
 Normal termination of Gaussian 16 at Sun Jul 18 15:04:29 2021.

 -----------------------------
 #p B3LYP/6-31G* geom=allcheck
 -----------------------------

 Structure from the checkpoint file:  "SET_328_BBB20_conf1.geo_090_285_300.chk"
 --------------------------------------------
 SET_328_BBB20_conf1.geo_090_285_300 geometry
 --------------------------------------------
 Charge =  1 Multiplicity = 1

 SCF Done:  E(RB3LYP) =  -769.720544234     A.U. after   14 cycles
 Normal termination of Gaussian 16 at Sun Jul 18 15:05:45 2021.
 Gaussian 16:  ES64L-G16RevB.01 20-Dec-2017

 --------------------------------------------------------
 #p mp2/aug-cc-pVDZ scf=tight maxdisk=180GB geom=allcheck
 --------------------------------------------------------

 Structure from the checkpoint file:  "SET_328_BBB20_conf1.geo_090_285_300.chk"
 --------------------------------------------
 SET_328_BBB20_conf1.geo_090_285_300 geometry
 --------------------------------------------
 Charge =  1 Multiplicity = 1

                         Standard orientation:
 ---------------------------------------------------------------------
 Center     Atomic      Atomic             Coordinates (Angstroms)
 Number     Number       Type             X           Y           Z
 ---------------------------------------------------------------------
      1          7           0        0.265182    3.676166    1.350121
      2          1           0       -0.645854    3.217411    1.216319
      3          1           0        0.258192    4.550524    0.808372
      4          6           0        1.413626    2.786956    0.949512
      5          1           0        1.314766    1.876996    1.540627
      6          1           0        2.320599    3.310287    1.250114
      7          6           0        1.419339    2.499151   -0.547014
      8          1           0        2.325240    1.924744   -0.753782
      9          1           0        1.510034    3.436730   -1.106381
     10          6           0        0.191760    1.746875   -1.073939
     11          1           0        0.287312    1.640790   -2.163875
     12          1           0       -0.704261    2.348347   -0.910088
     13          7           0       -0.021499    0.465573   -0.394536
     14          6           0       -1.353391   -0.047300   -0.362791
     15          6           0       -2.284581    0.428644   -1.307492
     16          1           0       -1.954317    1.123438   -2.067904
     17          6           0       -3.613474    0.016158   -1.305302
     18          1           0       -4.296978    0.410672   -2.049903
     19          6           0       -4.047745   -0.908861   -0.358153
     20          1           0       -5.079450   -1.242979   -0.336452
     21          6           0       -3.129148   -1.397761    0.566374
     22          1           0       -3.454412   -2.113903    1.315043
     23          6           0       -1.786528   -0.994508    0.597157
     24          6           0       -0.937470   -1.634131    1.686159
     25          1           0       -0.832568   -2.703291    1.461315
     26          1           0       -1.506443   -1.585428    2.620758
     27          6           0        0.466331   -1.061896    1.925538
     28          1           0        0.914484   -1.581034    2.778096
     29          1           0        0.387095   -0.001356    2.190880
     30          6           0        1.346544   -1.221426    0.717106
     31          6           0        2.416844   -2.120260    0.691351
     32          1           0        2.627425   -2.705318    1.581332
     33          6           0        3.220229   -2.256441   -0.442406
     34          1           0        4.054550   -2.950712   -0.439622
     35          6           0        2.945462   -1.487735   -1.574413
     36          1           0        3.560155   -1.582469   -2.463871
     37          6           0        1.870913   -0.598234   -1.571172
     38          1           0        1.653373   -0.010011   -2.455564
     39          6           0        1.065786   -0.463890   -0.432784
     40          1           0        0.328289    3.932339    2.349108
 ---------------------------------------------------------------------

 SCF Done:  E(RHF) =  -764.751633459     A.U. after   16 cycles
 E2 =    -0.2717276163D+01 EUMP2 =    -0.76746890962192D+03

 The electronic state is 1-A.
 Alpha  occ. eigenvalues --  -15.88786 -15.69144 -11.46536 -11.40438 -11.39226
 Alpha  occ. eigenvalues --  -11.38197 -11.37586 -11.34010 -11.33945 -11.33729
 Alpha  occ. eigenvalues --  -11.33692 -11.33390 -11.33330 -11.33136 -11.33063
 Alpha  occ. eigenvalues --  -11.33010 -11.32891 -11.32674 -11.32193  -1.49649
 Alpha  occ. eigenvalues --   -1.37923  -1.25039  -1.24356  -1.21078  -1.17678
 Alpha  occ. eigenvalues --   -1.12363  -1.11838  -1.10965  -1.08197  -1.04552
 Alpha  occ. eigenvalues --   -0.98720  -0.97939  -0.95450  -0.94255  -0.92250
 Alpha  occ. eigenvalues --   -0.91146  -0.88680  -0.87703  -0.83330  -0.80499
 Alpha  occ. eigenvalues --   -0.79692  -0.77878  -0.75840  -0.75069  -0.73958
 Alpha  occ. eigenvalues --   -0.73591  -0.72518  -0.70407  -0.69761  -0.69009
 Alpha  occ. eigenvalues --   -0.68198  -0.67412  -0.65715  -0.64545  -0.64022
 Alpha  occ. eigenvalues --   -0.63543  -0.62363  -0.60410  -0.59863  -0.58558
 Alpha  occ. eigenvalues --   -0.57719  -0.57227  -0.56602  -0.52028  -0.42841
 Alpha  occ. eigenvalues --   -0.42223  -0.41514  -0.39455
 Alpha virt. eigenvalues --   -0.10486  -0.07112  -0.06771  -0.04981  -0.03703
 Alpha virt. eigenvalues --   -0.03486  -0.03273  -0.02957  -0.02674  -0.01690
 Alpha virt. eigenvalues --   -0.01308  -0.01238  -0.01043  -0.00732  -0.00135

 Mulliken charges:
               1
     1  N   -0.536054
     2  H    0.241451
     3  H    0.246597
     4  C    1.125847
     5  H   -0.284491
     6  H   -0.087698
     7  C    0.398927
     8  H   -0.026795
     9  H   -0.169368
    10  C    0.787856
    11  H   -0.182690
    12  H   -0.574847
    13  N   -0.030551
    14  C   -0.017645
    15  C    0.969337
    16  H   -0.900696
    17  C    0.462945
    18  H   -0.515942
    19  C    0.219811
    20  H   -0.466951
    21  C    0.742069
    22  H   -0.741629
    23  C   -0.663800
    24  C    0.164310
    25  H    0.064859
    26  H   -0.029485
    27  C    0.734627
    28  H   -0.159405
    29  H   -0.218190
    30  C    0.628814
    31  C    0.515134
    32  H   -0.629143
    33  C    0.712762
    34  H   -0.451541
    35  C    0.263280
    36  H   -0.513063
    37  C    1.038247
    38  H   -0.725883
    39  C   -0.584065
    40  H    0.193058
 Sum of Mulliken charges =   1.00000

 Dipole moment (field-independent basis, Debye):
    X=              2.1603    Y=             13.6803    Z=              4.7230  Tot=             14.6330
 Quadrupole moment (field-independent basis, Debye-Ang):
   XX=            -96.9929   YY=            -49.2438   ZZ=            -94.9856
   XY=              3.8687   XZ=              0.1535   YZ=             12.3983

 Normal termination of Gaussian 16 at Sun Jul 18 16:18:53 2021.
