 Gaussian 16, Revision B.01,

 -----------------------------------------------------------
 #p b3lyp/6-31G(d) opt freq scrf=(iefpcm,read,solvent=water)
 -----------------------------------------------------------

 -------------------------------------------
 SET_328_BBB6_conf1.geo_165_225_075 geometry
 -------------------------------------------
 Symbolic Z-matrix:
 Charge =  1 Multiplicity = 1

 SCF Done:  E(RB3LYP) =  -1096.82144504     A.U. after   13 cycles
 SCF Done:  E(RB3LYP) =  -1096.85560686     A.U. after   11 cycles
 SCF Done:  E(RB3LYP) =  -1096.87677701     A.U. after   11 cycles
 SCF Done:  E(RB3LYP) =  -1096.88003827     A.U. after   11 cycles
 SCF Done:  E(RB3LYP) =  -1096.88045068     A.U. after   11 cycles
 SCF Done:  E(RB3LYP) =  -1096.88164537     A.U. after   11 cycles
 SCF Done:  E(RB3LYP) =  -1096.88197454     A.U. after   10 cycles
 SCF Done:  E(RB3LYP) =  -1096.88227070     A.U. after   10 cycles
 SCF Done:  E(RB3LYP) =  -1096.88235018     A.U. after   10 cycles
 SCF Done:  E(RB3LYP) =  -1096.88236946     A.U. after    9 cycles
 SCF Done:  E(RB3LYP) =  -1096.88239716     A.U. after    8 cycles
 SCF Done:  E(RB3LYP) =  -1096.88238616     A.U. after    8 cycles
 SCF Done:  E(RB3LYP) =  -1096.88238605     A.U. after    8 cycles
 SCF Done:  E(RB3LYP) =  -1096.88238678     A.U. after    8 cycles
 SCF Done:  E(RB3LYP) =  -1096.88238674     A.U. after    6 cycles
 SCF Done:  E(RB3LYP) =  -1096.88238678     A.U. after    6 cycles
 Optimization completed.
    -- Stationary point found.
 Normal termination of Gaussian 16 at Sun Jul 18 16:48:17 2021.

 --------------------------------------------------------------------
 #P Geom=AllCheck Guess=TCheck SCRF=Check GenChk RB3LYP/6-31G(d) Freq
 --------------------------------------------------------------------

 Structure from the checkpoint file:  "SET_328_BBB6_conf1.geo_165_225_075.chk"
 -------------------------------------------
 SET_328_BBB6_conf1.geo_165_225_075 geometry
 -------------------------------------------
 Charge =  1 Multiplicity = 1

 SCF Done:  E(RB3LYP) =  -1096.88238678     A.U. after    1 cycles

  Exact polarizability: 261.711  -5.663 208.670  21.066  28.238 145.628
 Approx polarizability: 272.567  -5.180 244.937  23.346  40.534 162.104

                      1                      2                      3
                      A                      A                      A
 Frequencies --     26.0278                49.0725                54.3060
 Red. masses --      5.1644                 4.2392                 3.1521
 Frc consts  --      0.0021                 0.0060                 0.0055
 IR Inten    --      0.2563                 1.2263                 1.3974

                      4                      5                      6
                      A                      A                      A
 Frequencies --     85.0546               127.6879               149.1691
 Red. masses --      4.1082                 4.3120                 6.3580
 Frc consts  --      0.0175                 0.0414                 0.0834
 IR Inten    --      4.4366                 2.1418                 4.4983

                      7                      8                      9
                      A                      A                      A
 Frequencies --    163.1485               189.9278               200.6613
 Red. masses --      3.7028                 4.2619                 1.2248
 Frc consts  --      0.0581                 0.0906                 0.0291
 IR Inten    --      1.7040                 0.6996                 0.4729

                     10                     11                     12
                      A                      A                      A
 Frequencies --    217.6523               239.2810               261.0427
 Red. masses --      3.2400                 2.1981                 1.1911
 Frc consts  --      0.0904                 0.0742                 0.0478
 IR Inten    --      3.8002                11.5955                 1.3907

                     13                     14                     15
                      A                      A                      A
 Frequencies --    266.6521               278.6135               297.0524
 Red. masses --      1.2610                 1.0522                 1.9416
 Frc consts  --      0.0528                 0.0481                 0.1009
 IR Inten    --      5.7968                 1.1023                 2.5013

                     16                     17                     18
                      A                      A                      A
 Frequencies --    331.2011               354.1918               370.1490
 Red. masses --      3.1942                 3.4120                 2.6612
 Frc consts  --      0.2064                 0.2522                 0.2148
 IR Inten    --      5.6036                13.6217                 9.9896

                     19                     20                     21
                      A                      A                      A
 Frequencies --    383.8921               415.1601               436.2189
 Red. masses --      3.0025                 9.5945                 2.9797
 Frc consts  --      0.2607                 0.9743                 0.3341
 IR Inten    --     15.1358                12.2537                 4.7064

                     22                     23                     24
                      A                      A                      A
 Frequencies --    443.9714               462.6201               486.9231
 Red. masses --      2.2051                 3.5290                 2.6165
 Frc consts  --      0.2561                 0.4450                 0.3655
 IR Inten    --     29.7023                 1.6814                 1.9648

                     25                     26                     27
                      A                      A                      A
 Frequencies --    517.2887               543.9298               657.0585
 Red. masses --      4.4751                 3.9234                 5.8063
 Frc consts  --      0.7055                 0.6839                 1.4769
 IR Inten    --      4.3440                41.0749                 1.0454

                     28                     29                     30
                      A                      A                      A
 Frequencies --    681.4041               705.7298               742.9919
 Red. masses --      2.9879                 5.1797                 2.8646
 Frc consts  --      0.8174                 1.5199                 0.9317
 IR Inten    --      8.5708                30.0965                35.4576

                     31                     32                     33
                      A                      A                      A
 Frequencies --    755.0963               794.3972               817.9598
 Red. masses --      3.2897                 3.4705                 1.6958
 Frc consts  --      1.1051                 1.2904                 0.6685
 IR Inten    --     24.9721                94.5329                25.8488

                     34                     35                     36
                      A                      A                      A
 Frequencies --    861.8891               900.3517               927.0743
 Red. masses --      2.4815                 1.7621                 1.4912
 Frc consts  --      1.0861                 0.8416                 0.7551
 IR Inten    --     12.3069                20.2908                 4.2617

                     37                     38                     39
                      A                      A                      A
 Frequencies --    931.1550               944.7264               949.8845
 Red. masses --      1.8615                 1.4135                 1.7073
 Frc consts  --      0.9510                 0.7433                 0.9076
 IR Inten    --      8.5251                 3.8373                 3.0295

                     40                     41                     42
                      A                      A                      A
 Frequencies --    953.5952               994.1440              1003.3453
 Red. masses --      1.6020                 1.2130                 1.3310
 Frc consts  --      0.8583                 0.7064                 0.7895
 IR Inten    --      0.2788                 0.2312                 1.1822

                     43                     44                     45
                      A                      A                      A
 Frequencies --   1009.6820              1027.7436              1046.5177
 Red. masses --      5.2839                 3.2250                 1.8284
 Frc consts  --      3.1737                 2.0070                 1.1798
 IR Inten    --     15.5975                34.7994                15.4320

                     46                     47                     48
                      A                      A                      A
 Frequencies --   1063.8148              1096.1103              1099.1426
 Red. masses --      1.4953                 1.9065                 1.8067
 Frc consts  --      0.9970                 1.3496                 1.2860
 IR Inten    --      0.7357                12.3017                14.3119

                     49                     50                     51
                      A                      A                      A
 Frequencies --   1106.3263              1130.2624              1157.5186
 Red. masses --      2.1574                 1.5637                 2.0003
 Frc consts  --      1.5558                 1.1769                 1.5791
 IR Inten    --     39.2269                 2.1384               112.2460

                     52                     53                     54
                      A                      A                      A
 Frequencies --   1208.6672              1225.4653              1249.7964
 Red. masses --      1.1586                 2.1315                 1.7561
 Frc consts  --      0.9972                 1.8860                 1.6162
 IR Inten    --      0.7887                74.1004                94.5300

                     55                     56                     57
                      A                      A                      A
 Frequencies --   1266.4491              1281.8819              1320.9922
 Red. masses --      2.6102                 2.4720                 1.5166
 Frc consts  --      2.4667                 2.3933                 1.5592
 IR Inten    --    342.7718                21.9461                 1.4431

                     58                     59                     60
                      A                      A                      A
 Frequencies --   1327.8615              1366.5822              1381.8515
 Red. masses --      1.7717                 5.4574                 1.3151
 Frc consts  --      1.8405                 6.0050                 1.4796
 IR Inten    --     39.5194                12.2487                46.8086

                     61                     62                     63
                      A                      A                      A
 Frequencies --   1435.9826              1437.4417              1440.3305
 Red. masses --      1.2072                 1.2560                 1.2435
 Frc consts  --      1.4667                 1.5290                 1.5200
 IR Inten    --     10.3003                11.2701                36.1945

                     64                     65                     66
                      A                      A                      A
 Frequencies --   1456.2158              1461.8048              1478.6295
 Red. masses --      1.5273                 1.2610                 1.7739
 Frc consts  --      1.9083                 1.5877                 2.2850
 IR Inten    --     93.3235                 7.8908                67.8660

                     67                     68                     69
                      A                      A                      A
 Frequencies --   1501.3599              1504.8102              1509.2058
 Red. masses --      1.0567                 1.0503                 1.0505
 Frc consts  --      1.4034                 1.4013                 1.4097
 IR Inten    --      9.7357                 7.0673                13.5920

                     70                     71                     72
                      A                      A                      A
 Frequencies --   1509.4040              1519.2465              1520.4544
 Red. masses --      1.0922                 1.0674                 1.8862
 Frc consts  --      1.4661                 1.4516                 2.5692
 IR Inten    --     83.6383                 1.8121                13.6643

                     73                     74                     75
                      A                      A                      A
 Frequencies --   1528.4018              1531.2523              1538.2440
 Red. masses --      1.0970                 1.1299                 1.0708
 Frc consts  --      1.5098                 1.5610                 1.4929
 IR Inten    --     20.4453                 4.9670                27.9640

                     76                     77                     78
                      A                      A                      A
 Frequencies --   1562.5635              1622.5215              1625.4488
 Red. masses --      1.1312                 1.5301                 2.3142
 Frc consts  --      1.6273                 2.3733                 3.6024
 IR Inten    --     31.2992               253.9225                55.8349

                     79                     80                     81
                      A                      A                      A
 Frequencies --   1649.4236              1748.6454              3073.0533
 Red. masses --      5.5429                 9.1828                 1.0357
 Frc consts  --      8.8849                16.5436                 5.7627
 IR Inten    --     19.2070               296.4337                22.3811

                     82                     83                     84
                      A                      A                      A
 Frequencies --   3078.0612              3084.7055              3086.7770
 Red. masses --      1.0357                 1.0367                 1.0356
 Frc consts  --      5.7815                 5.8119                 5.8138
 IR Inten    --     26.8944                 3.1673                14.5313

                     85                     86                     87
                      A                      A                      A
 Frequencies --   3144.3494              3148.1884              3151.3860
 Red. masses --      1.1037                 1.1027                 1.1025
 Frc consts  --      6.4291                 6.4392                 6.4513
 IR Inten    --     27.3483                14.8735                33.0658

                     88                     89                     90
                      A                      A                      A
 Frequencies --   3153.2234              3157.5544              3160.2319
 Red. masses --      1.1035                 1.1033                 1.1024
 Frc consts  --      6.4645                 6.4810                 6.4866
 IR Inten    --     18.2868                31.4776                13.1037

                     91                     92                     93
                      A                      A                      A
 Frequencies --   3161.5612              3175.0177              3180.0533
 Red. masses --      1.1023                 1.0963                 1.0952
 Frc consts  --      6.4917                 6.5115                 6.5253
 IR Inten    --     40.9340                 4.1774                25.8102

                     94                     95                     96
                      A                      A                      A
 Frequencies --   3229.1744              3243.2129              3250.0116
 Red. masses --      1.0882                 1.0922                 1.0952
 Frc consts  --      6.6857                 6.7685                 6.8160
 IR Inten    --      4.8821                 7.3578                12.8346

                     97                     98                     99
                      A                      A                      A
 Frequencies --   3259.9448              3302.1519              3433.5725
 Red. masses --      1.0914                 1.0676                 1.0810
 Frc consts  --      6.8336                 6.8591                 7.5085
 IR Inten    --      3.1070               189.7822               196.6285

 - Thermochemistry -
 -------------------
 Temperature   298.150 Kelvin.  Pressure   1.00000 Atm.
 Atom     1 has atomic number  6 and mass  12.00000

 Molecular mass:   240.11552 amu.
 Principal axes and moments of inertia in atomic units:
                           1         2         3
     Eigenvalues --  1790.400468815.740379237.87403
           X            0.99993   0.01165  -0.00370
           Y           -0.01180   0.99897  -0.04383
           Z            0.00319   0.04387   0.99903
 This molecule is an asymmetric top.
 Rotational symmetry number  1.
 Warning -- assumption of classical behavior for rotation
           may cause significant error
 Rotational temperatures (Kelvin)      0.04838     0.00982     0.00938
 Rotational constants (GHZ):           1.00801     0.20472     0.19536
 Zero-point vibrational energy     797861.2 (Joules/Mol)
                                  190.69341 (Kcal/Mol)
 Warning -- explicit consideration of  26 degrees of freedom as
           vibrations may cause significant error
 Vibrational temperatures:     37.45    70.60    78.13   122.37   183.71
          (Kelvin)            214.62   234.73   273.26   288.71   313.15
                              344.27   375.58   383.65   400.86   427.39
                              476.52   509.60   532.56   552.34   597.32
                              627.62   638.78   665.61   700.57   744.26
                              782.59   945.36   980.39  1015.39  1069.00
                             1086.42  1142.96  1176.86  1240.07  1295.41
                             1333.85  1339.72  1359.25  1366.67  1372.01
                             1430.35  1443.59  1452.71  1478.69  1505.71
                             1530.59  1577.06  1581.42  1591.76  1626.20
                             1665.41  1739.00  1763.17  1798.18  1822.14
                             1844.34  1900.61  1910.50  1966.21  1988.18
                             2066.06  2068.16  2072.31  2095.17  2103.21
                             2127.42  2160.12  2165.09  2171.41  2171.70
                             2185.86  2187.59  2199.03  2203.13  2213.19
                             2248.18  2334.45  2338.66  2373.15  2515.91
                             4421.44  4428.64  4438.20  4441.18  4524.02
                             4529.54  4534.14  4536.79  4543.02  4546.87
                             4548.78  4568.14  4575.39  4646.06  4666.26
                             4676.04  4690.33  4751.06  4940.14

 Zero-point correction=                           0.303889 (Hartree/Particle)
 Thermal correction to Energy=                    0.320665
 Thermal correction to Enthalpy=                  0.321609
 Thermal correction to Gibbs Free Energy=         0.259178
 Sum of electronic and zero-point Energies=          -1096.578497
 Sum of electronic and thermal Energies=             -1096.561722
 Sum of electronic and thermal Enthalpies=           -1096.560778
 Sum of electronic and thermal Free Energies=        -1096.623208

                     E (Thermal)             CV                S
                      KCal/Mol        Cal/Mol-Kelvin    Cal/Mol-Kelvin
 Total                  201.220             64.001            131.397
 Electronic               0.000              0.000              0.000
 Translational            0.889              2.981             42.329
 Rotational               0.889              2.981             33.344
 Vibrational            199.443             58.039             55.724
 Vibration     1          0.593              1.985              6.111
 Vibration     2          0.595              1.978              4.854
 Vibration     3          0.596              1.976              4.654
 Vibration     4          0.601              1.960              3.771
 Vibration     5          0.611              1.926              2.981
 Vibration     6          0.618              1.904              2.683
 Vibration     7          0.623              1.888              2.513
 Vibration     8          0.633              1.854              2.229
 Vibration     9          0.638              1.839              2.127
 Vibration    10          0.646              1.814              1.979
 Vibration    11          0.657              1.780              1.808
 Vibration    12          0.669              1.744              1.655
 Vibration    13          0.672              1.734              1.618
 Vibration    14          0.679              1.713              1.542
 Vibration    15          0.691              1.679              1.433
 Vibration    16          0.714              1.613              1.254
 Vibration    17          0.730              1.567              1.147
 Vibration    18          0.742              1.534              1.079
 Vibration    19          0.753              1.505              1.024
 Vibration    20          0.779              1.437              0.909
 Vibration    21          0.797              1.391              0.839
 Vibration    22          0.803              1.374              0.814
 Vibration    23          0.820              1.333              0.759
 Vibration    24          0.843              1.279              0.692
 Vibration    25          0.872              1.212              0.616
 Vibration    26          0.899              1.153              0.557

                           ! Non-Optimized Parameters !
 Normal termination of Gaussian 16 at Sun Jul 18 16:59:04 2021.

 ----------------------------------------------------------------------
 #p b3lyp/6-31G(d) scrf=(iefpcm,read,solvent=water) geom=allcheck guess
 =read
 ----------------------------------------------------------------------

 Structure from the checkpoint file:  "SET_328_BBB6_conf1.geo_165_225_075.chk"
 -------------------------------------------
 SET_328_BBB6_conf1.geo_165_225_075 geometry
 -------------------------------------------
 Charge =  1 Multiplicity = 1

 SCF Done:  E(RB3LYP) =  -1096.88238678     A.U. after    1 cycles
 Normal termination of Gaussian 16 at Sun Jul 18 16:59:14 2021.

 -----------------------------
 #p B3LYP/6-31G* geom=allcheck
 -----------------------------

 Structure from the checkpoint file:  "SET_328_BBB6_conf1.geo_165_225_075.chk"
 -------------------------------------------
 SET_328_BBB6_conf1.geo_165_225_075 geometry
 -------------------------------------------
 Charge =  1 Multiplicity = 1

 SCF Done:  E(RB3LYP) =  -1096.79119837     A.U. after   15 cycles
 Normal termination of Gaussian 16 at Sun Jul 18 16:59:58 2021.
 Gaussian 16:  ES64L-G16RevB.01 20-Dec-2017

 --------------------------------------------------------
 #p mp2/aug-cc-pVDZ scf=tight maxdisk=180GB geom=allcheck
 --------------------------------------------------------

 Structure from the checkpoint file:  "SET_328_BBB6_conf1.geo_165_225_075.chk"
 -------------------------------------------
 SET_328_BBB6_conf1.geo_165_225_075 geometry
 -------------------------------------------
 Charge =  1 Multiplicity = 1

                         Standard orientation:
 ---------------------------------------------------------------------
 Center     Atomic      Atomic             Coordinates (Angstroms)
 Number     Number       Type             X           Y           Z
 ---------------------------------------------------------------------
      1          6           0       -1.368939    1.573473   -1.964746
      2          1           0       -0.454674    2.167412   -1.940242
      3          1           0       -2.219774    2.256892   -2.003229
      4          1           0       -1.357733    0.961577   -2.869143
      5          6           0       -1.454919    0.692307   -0.711627
      6          7           0       -2.698140   -0.153511   -0.750861
      7          6           0       -3.481285   -0.374978    0.558064
      8          6           0       -2.541136   -0.997339    1.591942
      9          1           0       -1.702548   -0.339582    1.835262
     10          1           0       -2.147938   -1.957846    1.250810
     11          1           0       -3.097459   -1.169858    2.516451
     12          6           0       -4.036609    0.975285    1.027942
     13          1           0       -4.668014    1.436996    0.263283
     14          1           0       -3.245365    1.679279    1.299253
     15          1           0       -4.648726    0.811553    1.918426
     16          6           0       -4.616396   -1.339119    0.194220
     17          1           0       -5.218246   -1.536951    1.084014
     18          1           0       -4.226759   -2.293679   -0.169395
     19          1           0       -5.273919   -0.915217   -0.570056
     20          1           0       -2.411986   -1.076238   -1.127451
     21          1           0       -1.505571    1.317259    0.177349
     22          6           0       -0.247469   -0.254161   -0.649924
     23          8           0       -0.380640   -1.405189   -1.047957
     24          6           0        1.052872    0.261358   -0.160384
     25          6           0        2.166023   -0.584486   -0.285040
     26          1           0        2.042186   -1.561253   -0.733545
     27          6           0        3.399825   -0.149897    0.170510
     28         17           0        4.793748   -1.207302    0.012032
     29          6           0        3.560282    1.109066    0.753586
     30          1           0        4.535461    1.426143    1.103421
     31          6           0        2.449069    1.943343    0.878179
     32          1           0        2.561692    2.920698    1.332846
     33          6           0        1.199374    1.526530    0.425117
     34          1           0        0.349693    2.187256    0.539832
     35          1           0       -3.356078    0.237482   -1.439781
 ---------------------------------------------------------------------

 SCF Done:  E(RHF) =  -1092.04814554     A.U. after   16 cycles
 E2 =    -0.2360536028D+01 EUMP2 =    -0.10944086815638D+04

 The electronic state is 1-A.
 Alpha  occ. eigenvalues -- -104.93406 -20.71421 -15.84609 -11.50227 -11.46756
 Alpha  occ. eigenvalues --  -11.46290 -11.42144 -11.39725 -11.38873 -11.38757
 Alpha  occ. eigenvalues --  -11.38420 -11.38028 -11.38012 -11.37949 -11.37712
 Alpha  occ. eigenvalues --  -11.37230 -10.65951  -8.12732  -8.12387  -8.12375
 Alpha  occ. eigenvalues --   -1.55164  -1.47160  -1.30943  -1.26032  -1.23571
 Alpha  occ. eigenvalues --   -1.20103  -1.16485  -1.12020  -1.10403  -1.10339
 Alpha  occ. eigenvalues --   -1.06390  -1.00106  -0.95353  -0.95331  -0.93262
 Alpha  occ. eigenvalues --   -0.89248  -0.84957  -0.82879  -0.82221  -0.79024
 Alpha  occ. eigenvalues --   -0.77720  -0.76558  -0.75640  -0.75298  -0.73454
 Alpha  occ. eigenvalues --   -0.72317  -0.72101  -0.70619  -0.69731  -0.69087
 Alpha  occ. eigenvalues --   -0.69041  -0.68029  -0.67541  -0.66226  -0.65231
 Alpha  occ. eigenvalues --   -0.64242  -0.63809  -0.63527  -0.62550  -0.57811
 Alpha  occ. eigenvalues --   -0.57299  -0.54954  -0.47221  -0.45296
 Alpha virt. eigenvalues --   -0.07604  -0.07146  -0.05988  -0.05235  -0.04711
 Alpha virt. eigenvalues --   -0.03628  -0.03459  -0.03215  -0.03059  -0.02663
 Alpha virt. eigenvalues --   -0.01970  -0.01261  -0.01164  -0.00975  -0.00743

 Mulliken charges:
               1
     1  C    1.007537
     2  H   -0.036211
     3  H   -0.074692
     4  H    0.029434
     5  C   -0.252666
     6  N   -0.408492
     7  C   -3.582813
     8  C    1.315346
     9  H    0.015997
    10  H    0.030127
    11  H   -0.043563
    12  C    1.330511
    13  H    0.018225
    14  H   -0.006915
    15  H    0.012459
    16  C    1.289477
    17  H    0.058443
    18  H   -0.019062
    19  H   -0.002889
    20  H    0.253912
    21  H   -0.470857
    22  C    0.400174
    23  O   -1.008072
    24  C    1.842786
    25  C    0.635702
    26  H   -0.556296
    27  C   -0.897328
    28  Cl  -0.326787
    29  C    0.890767
    30  H   -0.408038
    31  C    0.409139
    32  H   -0.540132
    33  C    0.747832
    34  H   -0.846757
    35  H    0.193704
 Sum of Mulliken charges =   1.00000

 Dipole moment (field-independent basis, Debye):
    X=            -10.5505    Y=              3.7526    Z=             -0.2258  Tot=             11.2002
 Quadrupole moment (field-independent basis, Debye-Ang):
   XX=            -50.3973   YY=            -93.6482   ZZ=            -94.8685
   XY=              7.2684   XZ=              5.2345   YZ=             -0.7988

 Normal termination of Gaussian 16 at Sun Jul 18 17:41:54 2021.
