 Gaussian 16, Revision B.01,

 -----------------------------------------------------------
 #p b3lyp/6-31G(d) opt freq scrf=(iefpcm,read,solvent=water)
 -----------------------------------------------------------

 ---------------------------------------------
 SET_328_BBB321_conf1.geo_165_030_120 geometry
 ---------------------------------------------
 Symbolic Z-matrix:
 Charge =  1 Multiplicity = 1

 SCF Done:  E(RB3LYP) =  -1212.51845606     A.U. after   14 cycles
 SCF Done:  E(RB3LYP) =  -1212.65742150     A.U. after   12 cycles
 SCF Done:  E(RB3LYP) =  -1212.76775161     A.U. after   13 cycles
 SCF Done:  E(RB3LYP) =  -1212.78884415     A.U. after   11 cycles
 SCF Done:  E(RB3LYP) =  -1212.80077702     A.U. after   13 cycles
 SCF Done:  E(RB3LYP) =  -1212.80613306     A.U. after   11 cycles
 SCF Done:  E(RB3LYP) =  -1212.81246689     A.U. after   14 cycles
 SCF Done:  E(RB3LYP) =  -1212.81658191     A.U. after   11 cycles
 SCF Done:  E(RB3LYP) =  -1212.82002935     A.U. after   11 cycles
 SCF Done:  E(RB3LYP) =  -1212.82119750     A.U. after   11 cycles
 SCF Done:  E(RB3LYP) =  -1212.82255452     A.U. after    8 cycles
 SCF Done:  E(RB3LYP) =  -1212.82255028     A.U. after    7 cycles
 SCF Done:  E(RB3LYP) =  -1212.82255259     A.U. after    7 cycles
 SCF Done:  E(RB3LYP) =  -1212.82255258     A.U. after    7 cycles
 SCF Done:  E(RB3LYP) =  -1212.82255279     A.U. after    7 cycles
 SCF Done:  E(RB3LYP) =  -1212.82255295     A.U. after    6 cycles
 Optimization completed.
    -- Stationary point found.
 Normal termination of Gaussian 16 at Sun Jul 18 16:27:08 2021.

 --------------------------------------------------------------------
 #P Geom=AllCheck Guess=TCheck SCRF=Check GenChk RB3LYP/6-31G(d) Freq
 --------------------------------------------------------------------

 Structure from the checkpoint file:  "SET_328_BBB321_conf1.geo_165_030_120.chk"
 ---------------------------------------------
 SET_328_BBB321_conf1.geo_165_030_120 geometry
 ---------------------------------------------
 Charge =  1 Multiplicity = 1

 SCF Done:  E(RB3LYP) =  -1212.82255295     A.U. after    1 cycles

  Exact polarizability: 362.856  12.953 310.145  -3.365   0.914  91.087
 Approx polarizability: 393.541  15.881 347.826  -4.488   0.991 109.184

                      1                      2                      3
                      A                      A                      A
 Frequencies --     19.0739                35.4291                48.8270
 Red. masses --      4.5599                 8.0202                 5.9606
 Frc consts  --      0.0010                 0.0059                 0.0084
 IR Inten    --      0.6351                 5.7701                 0.9355

                      4                      5                      6
                      A                      A                      A
 Frequencies --     52.7257                57.8000                68.2713
 Red. masses --      2.1104                 2.6946                 5.0144
 Frc consts  --      0.0035                 0.0053                 0.0138
 IR Inten    --      9.4964                 2.8308                 5.9530

                      7                      8                      9
                      A                      A                      A
 Frequencies --     97.2307               105.6026               134.5124
 Red. masses --      2.3776                 3.5777                 5.1002
 Frc consts  --      0.0132                 0.0235                 0.0544
 IR Inten    --      3.2020                 0.4074                11.5864

                     10                     11                     12
                      A                      A                      A
 Frequencies --    199.7555               204.4733               246.9819
 Red. masses --      1.4853                 2.8024                 4.0347
 Frc consts  --      0.0349                 0.0690                 0.1450
 IR Inten    --    250.5512               108.3888                19.8479

                     13                     14                     15
                      A                      A                      A
 Frequencies --    256.5924               260.8562               275.0110
 Red. masses --      4.1767                 6.7287                 4.3786
 Frc consts  --      0.1620                 0.2698                 0.1951
 IR Inten    --     12.5954                 3.7741                10.9954

                     16                     17                     18
                      A                      A                      A
 Frequencies --    309.1907               326.9797               334.5244
 Red. masses --      5.3188                 1.3772                 6.4730
 Frc consts  --      0.2996                 0.0868                 0.4268
 IR Inten    --      8.1933               273.2438                14.3544

                     19                     20                     21
                      A                      A                      A
 Frequencies --    352.0017               403.4233               407.7537
 Red. masses --      3.7846                 4.1440                 1.1740
 Frc consts  --      0.2763                 0.3974                 0.1150
 IR Inten    --      0.3633                28.1120               179.5308

                     22                     23                     24
                      A                      A                      A
 Frequencies --    455.7856               493.2589               519.5570
 Red. masses --      3.3182                 5.2911                 1.6526
 Frc consts  --      0.4061                 0.7585                 0.2628
 IR Inten    --      3.7768                 4.8262                89.5443

                     25                     26                     27
                      A                      A                      A
 Frequencies --    544.1978               548.9734               554.9285
 Red. masses --      4.1468                 2.5816                 1.7356
 Frc consts  --      0.7236                 0.4584                 0.3149
 IR Inten    --     34.1008                 1.1988               162.4732

                     28                     29                     30
                      A                      A                      A
 Frequencies --    574.2695               602.2992               619.0732
 Red. masses --      2.2056                 3.0320                 9.0303
 Frc consts  --      0.4286                 0.6480                 2.0391
 IR Inten    --      0.4988                15.8255                 1.2940

                     31                     32                     33
                      A                      A                      A
 Frequencies --    624.0700               652.2780               660.8484
 Red. masses --      1.8476                 1.1569                 6.5333
 Frc consts  --      0.4240                 0.2900                 1.6811
 IR Inten    --     21.8814                11.4164                 7.1744

                     34                     35                     36
                      A                      A                      A
 Frequencies --    696.4482               703.9556               709.8876
 Red. masses --      3.9471                 2.6666                 5.2094
 Frc consts  --      1.1280                 0.7786                 1.5467
 IR Inten    --      0.1212                 5.6731                10.8180

                     37                     38                     39
                      A                      A                      A
 Frequencies --    711.1924               752.2546               812.8973
 Red. masses --      2.6480                 1.6696                 1.5519
 Frc consts  --      0.7891                 0.5567                 0.6042
 IR Inten    --      1.1892                90.2102                25.2137

                     40                     41                     42
                      A                      A                      A
 Frequencies --    824.4645               867.4104               883.6767
 Red. masses --      6.3563                 6.3259                 4.2879
 Frc consts  --      2.5457                 2.8043                 1.9728
 IR Inten    --     37.5715                32.1999                 6.3428

                     43                     44                     45
                      A                      A                      A
 Frequencies --    906.5067               915.2175               950.8052
 Red. masses --      1.5654                 1.3829                 5.4151
 Frc consts  --      0.7579                 0.6825                 2.8843
 IR Inten    --     32.2262                 0.2112                 1.3006

                     46                     47                     48
                      A                      A                      A
 Frequencies --    990.9733               997.5435              1005.7648
 Red. masses --      1.2698                 3.4012                 4.9107
 Frc consts  --      0.7347                 1.9941                 2.9268
 IR Inten    --      1.4867                21.2168                28.6418

                     49                     50                     51
                      A                      A                      A
 Frequencies --   1014.8446              1036.8574              1060.7201
 Red. masses --      5.2327                 1.8684                 1.7002
 Frc consts  --      3.1752                 1.1835                 1.1270
 IR Inten    --      2.4645                26.0657                 9.9975

                     52                     53                     54
                      A                      A                      A
 Frequencies --   1100.0448              1115.6056              1122.6364
 Red. masses --      1.6085                 1.5134                 1.6589
 Frc consts  --      1.1468                 1.1098                 1.2318
 IR Inten    --     21.8038                 6.0064                29.4736

                     55                     56                     57
                      A                      A                      A
 Frequencies --   1142.4727              1199.9225              1212.9968
 Red. masses --      1.6918                 1.1300                 1.6941
 Frc consts  --      1.3010                 0.9586                 1.4686
 IR Inten    --      8.4158                 8.4067                61.9268

                     58                     59                     60
                      A                      A                      A
 Frequencies --   1252.6421              1273.4425              1290.7015
 Red. masses --      2.9509                 2.7531                 2.2181
 Frc consts  --      2.7280                 2.6304                 2.1771
 IR Inten    --    252.6832                52.1584               107.0202

                     61                     62                     63
                      A                      A                      A
 Frequencies --   1336.4542              1359.7441              1376.7047
 Red. masses --      1.9847                 4.2671                 4.1237
 Frc consts  --      2.0886                 4.6484                 4.6049
 IR Inten    --    236.5850                25.3205                92.8517

                     64                     65                     66
                      A                      A                      A
 Frequencies --   1414.1648              1446.1790              1488.6501
 Red. masses --      1.3303                 2.8421                 1.0757
 Frc consts  --      1.5675                 3.5022                 1.4046
 IR Inten    --     46.7966               145.8266                29.9960

                     67                     68                     69
                      A                      A                      A
 Frequencies --   1499.7154              1523.7096              1534.1364
 Red. masses --      1.0436                 1.9291                 2.7184
 Frc consts  --      1.3830                 2.6389                 3.7696
 IR Inten    --     11.0015               153.5091               259.4697

                     70                     71                     72
                      A                      A                      A
 Frequencies --   1549.2927              1562.5199              1589.8916
 Red. masses --      2.1736                 4.2762                 2.6139
 Frc consts  --      3.0739                 6.1512                 3.8930
 IR Inten    --    465.8064               127.2842               331.9171

                     73                     74                     75
                      A                      A                      A
 Frequencies --   1601.0652              1641.4339              1649.4778
 Red. masses --      2.6139                 2.2175                 3.7410
 Frc consts  --      3.9478                 3.5201                 5.9969
 IR Inten    --    222.1144               995.4631                93.3013

                     76                     77                     78
                      A                      A                      A
 Frequencies --   1654.5774              1662.5194              1729.4727
 Red. masses --      1.2751                 5.4227                 2.7888
 Frc consts  --      2.0566                 8.8308                 4.9147
 IR Inten    --    193.3066               296.1017               889.7051

                     79                     80                     81
                      A                      A                      A
 Frequencies --   1747.1876              3081.3448              3145.5005
 Red. masses --      6.5701                 1.0381                 1.1013
 Frc consts  --     11.8168                 5.8074                 6.4201
 IR Inten    --    392.4537                 5.2205                11.0223

                     82                     83                     84
                      A                      A                      A
 Frequencies --   3191.1744              3207.0305              3227.1706
 Red. masses --      1.1028                 1.0881                 1.0933
 Frc consts  --      6.6166                 6.5939                 6.7086
 IR Inten    --     17.7035                21.5282                34.1034

                     85                     86                     87
                      A                      A                      A
 Frequencies --   3233.4852              3289.4959              3303.3386
 Red. masses --      1.0900                 1.0916                 1.0947
 Frc consts  --      6.7144                 6.9595                 7.0378
 IR Inten    --      5.1658                 5.1845                 5.7413

                     88                     89                     90
                      A                      A                      A
 Frequencies --   3488.7193              3561.3689              3574.1533
 Red. masses --      1.0511                 1.0479                 1.0786
 Frc consts  --      7.5377                 7.8308                 8.1184
 IR Inten    --    428.2782               265.1449               105.1170

                     91                     92                     93
                      A                      A                      A
 Frequencies --   3580.2617              3627.3902              3673.5092
 Red. masses --      1.0786                 1.1031                 1.1088
 Frc consts  --      8.1457                 8.5516                 8.8156
 IR Inten    --    321.0400               448.5235               247.6899

 - Thermochemistry -
 -------------------
 Temperature   298.150 Kelvin.  Pressure   1.00000 Atm.
 Atom     1 has atomic number  6 and mass  12.00000

 Molecular mass:   276.09191 amu.
 Principal axes and moments of inertia in atomic units:
                           1         2         3
     Eigenvalues --  3388.03052********************
           X            1.00000  -0.00306   0.00052
           Y            0.00306   0.99999   0.00115
           Z           -0.00053  -0.00115   1.00000
 This molecule is an asymmetric top.
 Rotational symmetry number  1.
 Warning -- assumption of classical behavior for rotation
           may cause significant error
 Rotational temperatures (Kelvin)      0.02556     0.00804     0.00612
 Rotational constants (GHZ):           0.53268     0.16752     0.12760
 Zero-point vibrational energy     682764.3 (Joules/Mol)
                                  163.18459 (Kcal/Mol)
 Warning -- explicit consideration of  30 degrees of freedom as
           vibrations may cause significant error
 Vibrational temperatures:     27.44    50.97    70.25    75.86    83.16
          (Kelvin)             98.23   139.89   151.94   193.53   287.40
                              294.19   355.35   369.18   375.31   395.68
                              444.86   470.45   481.31   506.45   580.44
                              586.67   655.77   709.69   747.53   782.98
                              789.85   798.42   826.25   866.57   890.71
                              897.90   938.48   950.81  1002.03  1012.84
                             1021.37  1023.25  1082.33  1169.58  1186.22
                             1248.01  1271.41  1304.26  1316.79  1368.00
                             1425.79  1435.24  1447.07  1460.14  1491.81
                             1526.14  1582.72  1605.11  1615.22  1643.76
                             1726.42  1745.23  1802.27  1832.20  1857.03
                             1922.86  1956.37  1980.77  2034.67  2080.73
                             2141.84  2157.76  2192.28  2207.28  2229.09
                             2248.12  2287.50  2303.58  2361.66  2373.23
                             2380.57  2391.99  2488.33  2513.81  4433.37
                             4525.67  4591.39  4614.20  4643.18  4652.26
                             4732.85  4752.77  5019.49  5124.02  5142.41
                             5151.20  5219.01  5285.36

 Zero-point correction=                           0.260051 (Hartree/Particle)
 Thermal correction to Energy=                    0.278783
 Thermal correction to Enthalpy=                  0.279727
 Thermal correction to Gibbs Free Energy=         0.210698
 Sum of electronic and zero-point Energies=          -1212.562502
 Sum of electronic and thermal Energies=             -1212.543770
 Sum of electronic and thermal Enthalpies=           -1212.542826
 Sum of electronic and thermal Free Energies=        -1212.611855

                     E (Thermal)             CV                S
                      KCal/Mol        Cal/Mol-Kelvin    Cal/Mol-Kelvin
 Total                  174.939             69.965            145.284
 Electronic               0.000              0.000              0.000
 Translational            0.889              2.981             42.745
 Rotational               0.889              2.981             34.600
 Vibrational            173.162             64.003             67.938
 Vibration     1          0.593              1.986              6.728
 Vibration     2          0.594              1.982              5.500
 Vibration     3          0.595              1.978              4.864
 Vibration     4          0.596              1.977              4.712
 Vibration     5          0.596              1.974              4.531
 Vibration     6          0.598              1.969              4.203
 Vibration     7          0.603              1.951              3.509
 Vibration     8          0.605              1.945              3.348
 Vibration     9          0.613              1.919              2.880
 Vibration    10          0.638              1.840              2.135
 Vibration    11          0.640              1.834              2.092
 Vibration    12          0.661              1.768              1.752
 Vibration    13          0.666              1.752              1.685
 Vibration    14          0.669              1.744              1.656
 Vibration    15          0.677              1.720              1.565
 Vibration    16          0.699              1.656              1.367
 Vibration    17          0.711              1.622              1.275
 Vibration    18          0.716              1.607              1.238
 Vibration    19          0.729              1.571              1.157
 Vibration    20          0.769              1.463              0.950
 Vibration    21          0.772              1.453              0.935
 Vibration    22          0.814              1.348              0.778
 Vibration    23          0.849              1.265              0.675
 Vibration    24          0.875              1.207              0.611
 Vibration    25          0.899              1.152              0.556
 Vibration    26          0.904              1.142              0.546
 Vibration    27          0.910              1.129              0.534
 Vibration    28          0.931              1.087              0.496
 Vibration    29          0.961              1.027              0.446
 Vibration    30          0.979              0.992              0.418

                           ! Non-Optimized Parameters !
 Normal termination of Gaussian 16 at Sun Jul 18 16:39:05 2021.

 ----------------------------------------------------------------------
 #p b3lyp/6-31G(d) scrf=(iefpcm,read,solvent=water) geom=allcheck guess
 =read
 ----------------------------------------------------------------------

 Structure from the checkpoint file:  "SET_328_BBB321_conf1.geo_165_030_120.chk"
 ---------------------------------------------
 SET_328_BBB321_conf1.geo_165_030_120 geometry
 ---------------------------------------------
 Charge =  1 Multiplicity = 1

 SCF Done:  E(RB3LYP) =  -1212.82255295     A.U. after    1 cycles
 Normal termination of Gaussian 16 at Sun Jul 18 16:39:16 2021.

 -----------------------------
 #p B3LYP/6-31G* geom=allcheck
 -----------------------------

 Structure from the checkpoint file:  "SET_328_BBB321_conf1.geo_165_030_120.chk"
 ---------------------------------------------
 SET_328_BBB321_conf1.geo_165_030_120 geometry
 ---------------------------------------------
 Charge =  1 Multiplicity = 1

 SCF Done:  E(RB3LYP) =  -1212.69093472     A.U. after   17 cycles
 Normal termination of Gaussian 16 at Sun Jul 18 16:40:10 2021.
 Gaussian 16:  ES64L-G16RevB.01 20-Dec-2017

 --------------------------------------------------------
 #p mp2/aug-cc-pVDZ scf=tight maxdisk=180GB geom=allcheck
 --------------------------------------------------------

 Structure from the checkpoint file:  "SET_328_BBB321_conf1.geo_165_030_120.chk"
 ---------------------------------------------
 SET_328_BBB321_conf1.geo_165_030_120 geometry
 ---------------------------------------------
 Charge =  1 Multiplicity = 1

                         Standard orientation:
 ---------------------------------------------------------------------
 Center     Atomic      Atomic             Coordinates (Angstroms)
 Number     Number       Type             X           Y           Z
 ---------------------------------------------------------------------
      1          6           0        4.940324    2.786007    0.096815
      2          1           0        6.022620    2.906355    0.078279
      3          1           0        4.542859    3.231931    1.013316
      4          1           0        4.503383    3.322194   -0.749463
      5          6           0        4.610917    1.307165    0.027904
      6          8           0        5.483942    0.441076   -0.032887
      7          7           0        3.267276    1.036210    0.040402
      8          1           0        2.654234    1.842593    0.089732
      9          6           0        2.615524   -0.210451   -0.002396
     10          6           0        3.294024   -1.436848   -0.061952
     11          6           0        2.554316   -2.620424   -0.097241
     12          6           0        1.163960   -2.611501   -0.075002
     13          1           0        0.616121   -3.546379   -0.107763
     14          1           0        3.081573   -3.567690   -0.144616
     15          1           0        4.372771   -1.446841   -0.079963
     16          6           0        1.214153   -0.199076    0.019327
     17          1           0        0.682694    0.743401    0.066304
     18          6           0        0.477685   -1.386311   -0.015622
     19          6           0       -0.994943   -1.332780    0.011695
     20          7           0       -1.632266   -0.097105   -0.005269
     21          6           0       -1.841875   -2.405640    0.056220
     22          1           0       -1.603134   -3.457533    0.082239
     23         16           0       -3.499681   -1.891071    0.077864
     24          6           0       -2.925627   -0.230545    0.023932
     25          7           0       -3.837437    0.809976    0.012380
     26          6           0       -3.555107    2.145392   -0.041995
     27          7           0       -4.583639    2.987346   -0.066068
     28          1           0       -5.538680    2.648416   -0.014528
     29          1           0       -4.419514    3.988962   -0.077369
     30          7           0       -2.304194    2.576752   -0.072999
     31          1           0       -1.541207    1.901701   -0.063618
     32          1           0       -2.113271    3.573040   -0.114376
     33          1           0       -4.825370    0.566211    0.029874
 ---------------------------------------------------------------------

 SCF Done:  E(RHF) =  -1207.15217960     A.U. after   18 cycles
 E2 =    -0.2816876909D+01 EUMP2 =    -0.12099690565065D+04

 The electronic state is 1-A.
 Alpha  occ. eigenvalues --  -92.13618 -20.61138 -15.81961 -15.80528 -15.79300
 Alpha  occ. eigenvalues --  -15.72294 -15.69494 -11.61195 -11.51646 -11.44489
 Alpha  occ. eigenvalues --  -11.41397 -11.39219 -11.38459 -11.35655 -11.33889
 Alpha  occ. eigenvalues --  -11.33101 -11.32973 -11.32007 -11.31945  -9.13779
 Alpha  occ. eigenvalues --   -6.81942  -6.81834  -6.81641  -1.55644  -1.46148
 Alpha  occ. eigenvalues --   -1.45798  -1.40025  -1.39159  -1.34325  -1.24656
 Alpha  occ. eigenvalues --   -1.20581  -1.17030  -1.12003  -1.11093  -1.06985
 Alpha  occ. eigenvalues --   -1.05480  -0.99907  -0.99175  -0.95755  -0.93221
 Alpha  occ. eigenvalues --   -0.91906  -0.89363  -0.87079  -0.86221  -0.84606
 Alpha  occ. eigenvalues --   -0.83612  -0.82391  -0.80021  -0.77067  -0.76287
 Alpha  occ. eigenvalues --   -0.72562  -0.72330  -0.70953  -0.70107  -0.69805
 Alpha  occ. eigenvalues --   -0.68828  -0.66245  -0.64462  -0.64108  -0.63696
 Alpha  occ. eigenvalues --   -0.62836  -0.61943  -0.60867  -0.59798  -0.58457
 Alpha  occ. eigenvalues --   -0.58052  -0.53377  -0.52363  -0.50013  -0.47448
 Alpha  occ. eigenvalues --   -0.41375  -0.38826
 Alpha virt. eigenvalues --   -0.09516  -0.07616  -0.06040  -0.05109  -0.04127
 Alpha virt. eigenvalues --   -0.04001  -0.03772  -0.03168  -0.02129  -0.01897
 Alpha virt. eigenvalues --   -0.01521  -0.01096  -0.00869   0.00163   0.00299

 Mulliken charges:
               1
     1  C    0.396516
     2  H   -0.084047
     3  H    0.048366
     4  H    0.045264
     5  C    0.678296
     6  O   -0.822142
     7  N   -0.711867
     8  H   -0.058688
     9  C   -0.597800
    10  C    1.298879
    11  C   -0.135313
    12  C    0.873743
    13  H   -0.656822
    14  H   -0.530539
    15  H   -0.639319
    16  C    1.063764
    17  H   -0.766048
    18  C    1.730081
    19  C   -0.774177
    20  N   -0.685834
    21  C    0.568745
    22  H   -0.576743
    23  S    0.455304
    24  C    0.499765
    25  N   -0.703484
    26  C    1.330795
    27  N   -0.266815
    28  H    0.000073
    29  H    0.030444
    30  N   -0.114030
    31  H    0.095794
    32  H    0.010444
    33  H   -0.002604
 Sum of Mulliken charges =   1.00000

 Dipole moment (field-independent basis, Debye):
    X=            -17.5117    Y=             10.2209    Z=              0.0944  Tot=             20.2765
 Quadrupole moment (field-independent basis, Debye-Ang):
   XX=            -49.9315   YY=            -55.9970   ZZ=           -124.5982
   XY=            -24.8222   XZ=              0.7341   YZ=             -0.1745

 Normal termination of Gaussian 16 at Sun Jul 18 17:18:17 2021.
