 Gaussian 16, Revision B.01,

 -----------------------------------------------------------
 #p b3lyp/6-31G(d) opt freq scrf=(iefpcm,read,solvent=water)
 -----------------------------------------------------------

 ---------------------------------------------
 SET_328_BBB301_conf1.geo_165_285_315 geometry
 ---------------------------------------------
 Symbolic Z-matrix:
 Charge =  1 Multiplicity = 1

 SCF Done:  E(RB3LYP) =  -788.851982781     A.U. after   12 cycles
 SCF Done:  E(RB3LYP) =  -788.895500804     A.U. after   11 cycles
 SCF Done:  E(RB3LYP) =  -788.914949325     A.U. after   11 cycles
 SCF Done:  E(RB3LYP) =  -788.923535429     A.U. after   10 cycles
 SCF Done:  E(RB3LYP) =  -788.925347484     A.U. after   10 cycles
 SCF Done:  E(RB3LYP) =  -788.927323539     A.U. after   10 cycles
 SCF Done:  E(RB3LYP) =  -788.928154841     A.U. after   10 cycles
 SCF Done:  E(RB3LYP) =  -788.928574406     A.U. after   10 cycles
 SCF Done:  E(RB3LYP) =  -788.928686586     A.U. after   10 cycles
 SCF Done:  E(RB3LYP) =  -788.928910407     A.U. after   11 cycles
 SCF Done:  E(RB3LYP) =  -788.932476392     A.U. after    9 cycles
 SCF Done:  E(RB3LYP) =  -788.932560361     A.U. after    9 cycles
 SCF Done:  E(RB3LYP) =  -788.932569512     A.U. after    8 cycles
 SCF Done:  E(RB3LYP) =  -788.932558960     A.U. after    8 cycles
 SCF Done:  E(RB3LYP) =  -788.932564866     A.U. after    7 cycles
 SCF Done:  E(RB3LYP) =  -788.932563985     A.U. after    7 cycles
 Optimization completed.
    -- Stationary point found.
 Normal termination of Gaussian 16 at Sun Jul 18 15:24:04 2021.

 --------------------------------------------------------------------
 #P Geom=AllCheck Guess=TCheck SCRF=Check GenChk RB3LYP/6-31G(d) Freq
 --------------------------------------------------------------------

 Structure from the checkpoint file:  "SET_328_BBB301_conf1.geo_165_285_315.chk"
 ---------------------------------------------
 SET_328_BBB301_conf1.geo_165_285_315 geometry
 ---------------------------------------------
 Charge =  1 Multiplicity = 1

 SCF Done:  E(RB3LYP) =  -788.932563985     A.U. after    1 cycles

  Exact polarizability: 243.843 -11.195 209.274  24.235  17.142 151.468
 Approx polarizability: 255.531  -8.910 232.370  31.058  20.951 166.801

                      1                      2                      3
                      A                      A                      A
 Frequencies --     32.1028                48.4207                59.3138
 Red. masses --      4.7016                 4.4440                 3.0799
 Frc consts  --      0.0029                 0.0061                 0.0064
 IR Inten    --      2.7150                 1.9563                 1.1118

                      4                      5                      6
                      A                      A                      A
 Frequencies --     71.9111               111.6137               126.2209
 Red. masses --      3.2226                 3.5392                 3.0297
 Frc consts  --      0.0098                 0.0260                 0.0284
 IR Inten    --      1.6332                 5.6583                 6.6549

                      7                      8                      9
                      A                      A                      A
 Frequencies --    140.2705               171.6682               185.2207
 Red. masses --      3.7449                 2.6753                 3.0527
 Frc consts  --      0.0434                 0.0465                 0.0617
 IR Inten    --      3.5816                 4.9506                 0.8728

                     10                     11                     12
                      A                      A                      A
 Frequencies --    211.3609               246.8260               250.1880
 Red. masses --      3.4382                 1.2378                 1.1748
 Frc consts  --      0.0905                 0.0444                 0.0433
 IR Inten    --     16.0494               194.9790                27.9399

                     13                     14                     15
                      A                      A                      A
 Frequencies --    264.8657               282.3749               287.3425
 Red. masses --      2.3065                 1.0818                 1.1743
 Frc consts  --      0.0953                 0.0508                 0.0571
 IR Inten    --      9.5567                 5.9960                 3.1377

                     16                     17                     18
                      A                      A                      A
 Frequencies --    296.5064               322.3069               342.8459
 Red. masses --      4.1222                 3.4542                 2.0979
 Frc consts  --      0.2135                 0.2114                 0.1453
 IR Inten    --      8.4944                15.8355                 2.2886

                     19                     20                     21
                      A                      A                      A
 Frequencies --    347.5894               357.1040               394.0510
 Red. masses --      2.1458                 2.5683                 2.2082
 Frc consts  --      0.1527                 0.1930                 0.2020
 IR Inten    --     86.5046                 5.8860                37.9826

                     22                     23                     24
                      A                      A                      A
 Frequencies --    416.9709               443.4800               450.3272
 Red. masses --      3.0267                 2.2589                 3.4171
 Frc consts  --      0.3100                 0.2618                 0.4083
 IR Inten    --     30.1755                 3.2251                 0.2299

                     25                     26                     27
                      A                      A                      A
 Frequencies --    461.2397               469.8536               495.2575
 Red. masses --      2.5001                 3.3507                 3.1164
 Frc consts  --      0.3134                 0.4358                 0.4504
 IR Inten    --     18.6022                18.1076                18.6535

                     28                     29                     30
                      A                      A                      A
 Frequencies --    541.7613               578.9086               617.6633
 Red. masses --      3.0294                 4.3563                 3.8491
 Frc consts  --      0.5239                 0.8602                 0.8652
 IR Inten    --     12.6923                31.3144                18.3383

                     31                     32                     33
                      A                      A                      A
 Frequencies --    654.4885               711.5361               730.6387
 Red. masses --      4.7208                 1.1256                 4.1651
 Frc consts  --      1.1914                 0.3357                 1.3100
 IR Inten    --     29.5530               178.9347                22.9990

                     34                     35                     36
                      A                      A                      A
 Frequencies --    748.7147               772.3681               807.5330
 Red. masses --      4.1779                 4.2936                 1.6595
 Frc consts  --      1.3799                 1.5091                 0.6376
 IR Inten    --      7.3025                 5.4276                11.4468

                     37                     38                     39
                      A                      A                      A
 Frequencies --    826.1445               846.5478               881.2426
 Red. masses --      2.5162                 1.4531                 2.7658
 Frc consts  --      1.0118                 0.6135                 1.2655
 IR Inten    --     16.6481                27.7950                 7.6521

                     40                     41                     42
                      A                      A                      A
 Frequencies --    926.1049               934.3457               946.6817
 Red. masses --      1.3808                 2.4927                 1.5314
 Frc consts  --      0.6978                 1.2821                 0.8086
 IR Inten    --     23.0111                37.0288                 1.3687

                     43                     44                     45
                      A                      A                      A
 Frequencies --    949.4001               959.4712               972.2076
 Red. masses --      1.5939                 1.2984                 2.8356
 Frc consts  --      0.8464                 0.7043                 1.5791
 IR Inten    --      1.5582                 1.5681                 1.7573

                     46                     47                     48
                      A                      A                      A
 Frequencies --    986.2968              1017.6863              1020.9507
 Red. masses --      1.2302                 3.1985                 1.9489
 Frc consts  --      0.7051                 1.9517                 1.1968
 IR Inten    --      0.6378                31.5672                19.6584

                     49                     50                     51
                      A                      A                      A
 Frequencies --   1035.8668              1044.6253              1066.4872
 Red. masses --      1.8800                 4.2575                 1.8280
 Frc consts  --      1.1886                 2.7373                 1.2250
 IR Inten    --     28.8138                81.8752                90.6914

                     52                     53                     54
                      A                      A                      A
 Frequencies --   1084.8947              1114.5874              1138.9030
 Red. masses --      1.6133                 2.5350                 1.8389
 Frc consts  --      1.1188                 1.8555                 1.4053
 IR Inten    --     16.1289                41.8406                42.8133

                     55                     56                     57
                      A                      A                      A
 Frequencies --   1167.0172              1194.4405              1219.6453
 Red. masses --      1.4972                 1.2425                 1.5524
 Frc consts  --      1.2014                 1.0444                 1.3606
 IR Inten    --     41.2512                15.9382                 9.3198

                     58                     59                     60
                      A                      A                      A
 Frequencies --   1225.8266              1243.8438              1260.9950
 Red. masses --      2.1771                 1.2141                 1.2885
 Frc consts  --      1.9275                 1.1067                 1.2072
 IR Inten    --     96.3030                68.4095                72.3035

                     61                     62                     63
                      A                      A                      A
 Frequencies --   1266.9958              1284.7184              1295.5244
 Red. masses --      2.1749                 1.5319                 2.1391
 Frc consts  --      2.0571                 1.4897                 2.1153
 IR Inten    --     51.9430               158.2720                70.2526

                     64                     65                     66
                      A                      A                      A
 Frequencies --   1301.6552              1336.3255              1339.1943
 Red. masses --      2.0599                 1.5225                 2.4873
 Frc consts  --      2.0563                 1.6019                 2.6282
 IR Inten    --    117.5188                68.7815                33.1755

                     67                     68                     69
                      A                      A                      A
 Frequencies --   1360.4390              1402.1145              1426.1082
 Red. masses --      1.6624                 1.4645                 1.2308
 Frc consts  --      1.8128                 1.6963                 1.4749
 IR Inten    --     24.9133                58.8274                14.2225

                     70                     71                     72
                      A                      A                      A
 Frequencies --   1431.1229              1432.4715              1432.5793
 Red. masses --      1.7142                 1.3121                 1.3494
 Frc consts  --      2.0686                 1.5863                 1.6316
 IR Inten    --    119.8839                21.7954                30.8638

                     73                     74                     75
                      A                      A                      A
 Frequencies --   1438.7506              1447.3839              1451.6026
 Red. masses --      1.2861                 1.5084                 1.2728
 Frc consts  --      1.5686                 1.8618                 1.5801
 IR Inten    --     50.9767                24.8282                13.3289

                     76                     77                     78
                      A                      A                      A
 Frequencies --   1478.7087              1498.5984              1502.9474
 Red. masses --      1.2257                 1.0463                 1.0816
 Frc consts  --      1.5791                 1.3844                 1.4395
 IR Inten    --     92.3097                 0.7136                 8.8502

                     79                     80                     81
                      A                      A                      A
 Frequencies --   1504.5122              1509.1137              1509.9024
 Red. masses --      1.0518                 1.9694                 1.1230
 Frc consts  --      1.4027                 2.6425                 1.5085
 IR Inten    --      1.8587                23.6949                 2.1716

                     82                     83                     84
                      A                      A                      A
 Frequencies --   1526.5501              1531.7880              1532.5767
 Red. masses --      1.0638                 1.0603                 1.1658
 Frc consts  --      1.4606                 1.4657                 1.6133
 IR Inten    --      1.5909                15.9646                14.0653

                     85                     86                     87
                      A                      A                      A
 Frequencies --   1540.5098              1544.1242              1616.6761
 Red. masses --      1.0828                 2.7719                 1.0724
 Frc consts  --      1.5141                 3.8939                 1.6513
 IR Inten    --      5.0075               191.6020               116.1900

                     88                     89                     90
                      A                      A                      A
 Frequencies --   1650.7905              1680.8065              3035.3935
 Red. masses --      5.0502                 5.8284                 1.0601
 Frc consts  --      8.1086                 9.7014                 5.7546
 IR Inten    --     85.1541                52.5565                77.3024

                     91                     92                     93
                      A                      A                      A
 Frequencies --   3042.3317              3071.7496              3075.2923
 Red. masses --      1.0835                 1.0357                 1.0361
 Frc consts  --      5.9084                 5.7577                 5.7734
 IR Inten    --     69.9493                27.5174                21.3523

                     94                     95                     96
                      A                      A                      A
 Frequencies --   3080.3922              3085.9082              3142.8430
 Red. masses --      1.1039                 1.0363                 1.1035
 Frc consts  --      6.1715                 5.8141                 6.4222
 IR Inten    --     62.9793                 6.8180                25.7758

                     97                     98                     99
                      A                      A                      A
 Frequencies --   3144.3788              3147.5556              3153.0882
 Red. masses --      1.0903                 1.0763                 1.1032
 Frc consts  --      6.3513                 6.2823                 6.4623
 IR Inten    --     18.1792                23.0516                 3.1095

                    100                    101                    102
                      A                      A                      A
 Frequencies --   3156.3946              3158.4344              3161.9473
 Red. masses --      1.0995                 1.1007                 1.1020
 Frc consts  --      6.4537                 6.4693                 6.4915
 IR Inten    --     32.2096                37.8374                51.3507

                    103                    104                    105
                      A                      A                      A
 Frequencies --   3201.6318              3213.3693              3217.0529
 Red. masses --      1.0874                 1.1092                 1.0916
 Frc consts  --      6.5672                 6.7478                 6.6563
 IR Inten    --     19.0467                 8.8577                35.1874

                    106                    107                    108
                      A                      A                      A
 Frequencies --   3218.6659              3360.0654              3411.6586
 Red. masses --      1.0924                 1.0570                 1.0928
 Frc consts  --      6.6677                 7.0314                 7.4939
 IR Inten    --      3.2519               134.0011               170.9936

                    109                    110                    111
                      A                      A                      A
 Frequencies --   3421.1496              3725.2945              3729.8676
 Red. masses --      1.0661                 1.0665                 1.0664
 Frc consts  --      7.3518                 8.7206                 8.7409
 IR Inten    --    733.5023               116.2257               124.8281

 - Thermochemistry -
 -------------------
 Temperature   298.150 Kelvin.  Pressure   1.00000 Atm.
 Atom     1 has atomic number  6 and mass  12.00000

 Molecular mass:   240.15997 amu.
 Principal axes and moments of inertia in atomic units:
                           1         2         3
     Eigenvalues --  1854.21197********************
           X            0.99996  -0.00302  -0.00790
           Y            0.00317   0.99982   0.01881
           Z            0.00784  -0.01884   0.99979
 This molecule is an asymmetric top.
 Rotational symmetry number  1.
 Warning -- assumption of classical behavior for rotation
           may cause significant error
 Rotational temperatures (Kelvin)      0.04671     0.00844     0.00817
 Rotational constants (GHZ):           0.97332     0.17585     0.17017
 Zero-point vibrational energy     907631.4 (Joules/Mol)
                                  216.92910 (Kcal/Mol)
 Warning -- explicit consideration of  30 degrees of freedom as
           vibrations may cause significant error
 Vibrational temperatures:     46.19    69.67    85.34   103.46   160.59
          (Kelvin)            181.60   201.82   246.99   266.49   304.10
                              355.13   359.96   381.08   406.27   413.42
                              426.61   463.73   493.28   500.10   513.79
                              566.95   599.93   638.07   647.92   663.62
                              676.01   712.57   779.47   832.92   888.68
                              941.66  1023.74  1051.23  1077.23  1111.27
                             1161.86  1188.64  1217.99  1267.91  1332.46
                             1344.32  1362.06  1365.97  1380.47  1398.79
                             1419.06  1464.22  1468.92  1490.38  1502.98
                             1534.44  1560.92  1603.64  1638.63  1679.08
                             1718.53  1754.80  1763.69  1789.61  1814.29
                             1822.92  1848.42  1863.97  1872.79  1922.67
                             1926.80  1957.37  2017.33  2051.85  2059.07
                             2061.01  2061.16  2070.04  2082.46  2088.53
                             2127.53  2156.15  2162.41  2164.66  2171.28
                             2172.41  2196.37  2203.90  2205.04  2216.45
                             2221.65  2326.04  2375.12  2418.31  4367.25
                             4377.24  4419.56  4424.66  4432.00  4439.93
                             4521.85  4524.06  4528.63  4536.59  4541.35
                             4544.28  4549.34  4606.43  4623.32  4628.62
                             4630.94  4834.38  4908.62  4922.27  5359.87
                             5366.45

 Zero-point correction=                           0.345699 (Hartree/Particle)
 Thermal correction to Energy=                    0.363869
 Thermal correction to Enthalpy=                  0.364813
 Thermal correction to Gibbs Free Energy=         0.299909
 Sum of electronic and zero-point Energies=           -788.586865
 Sum of electronic and thermal Energies=              -788.568695
 Sum of electronic and thermal Enthalpies=            -788.567751
 Sum of electronic and thermal Free Energies=         -788.632655

                     E (Thermal)             CV                S
                      KCal/Mol        Cal/Mol-Kelvin    Cal/Mol-Kelvin
 Total                  228.331             70.355            136.603
 Electronic               0.000              0.000              0.000
 Translational            0.889              2.981             42.330
 Rotational               0.889              2.981             33.667
 Vibrational            226.554             64.394             60.606
 Vibration     1          0.594              1.983              5.695
 Vibration     2          0.595              1.978              4.881
 Vibration     3          0.597              1.974              4.480
 Vibration     4          0.598              1.967              4.100
 Vibration     5          0.607              1.940              3.241
 Vibration     6          0.611              1.927              3.003
 Vibration     7          0.615              1.913              2.800
 Vibration     8          0.626              1.877              2.417
 Vibration     9          0.631              1.860              2.275
 Vibration    10          0.643              1.824              2.032
 Vibration    11          0.661              1.768              1.753
 Vibration    12          0.663              1.762              1.729
 Vibration    13          0.671              1.737              1.629
 Vibration    14          0.681              1.706              1.519
 Vibration    15          0.685              1.697              1.490
 Vibration    16          0.690              1.680              1.437
 Vibration    17          0.707              1.631              1.298
 Vibration    18          0.722              1.590              1.199
 Vibration    19          0.725              1.580              1.177
 Vibration    20          0.732              1.561              1.135
 Vibration    21          0.761              1.483              0.985
 Vibration    22          0.780              1.433              0.902
 Vibration    23          0.803              1.375              0.816
 Vibration    24          0.809              1.360              0.795
 Vibration    25          0.819              1.336              0.763
 Vibration    26          0.827              1.317              0.738
 Vibration    27          0.851              1.261              0.670
 Vibration    28          0.897              1.158              0.562
 Vibration    29          0.935              1.077              0.487
 Vibration    30          0.977              0.995              0.420

 Optimization completed.
    -- Stationary point found.
 Normal termination of Gaussian 16 at Sun Jul 18 15:35:12 2021.

 ----------------------------------------------------------------------
 #p b3lyp/6-31G(d) scrf=(iefpcm,read,solvent=water) geom=allcheck guess
 =read
 ----------------------------------------------------------------------

 Structure from the checkpoint file:  "SET_328_BBB301_conf1.geo_165_285_315.chk"
 ---------------------------------------------
 SET_328_BBB301_conf1.geo_165_285_315 geometry
 ---------------------------------------------
 Charge =  1 Multiplicity = 1

 SCF Done:  E(RB3LYP) =  -788.932563985     A.U. after    1 cycles
 Normal termination of Gaussian 16 at Sun Jul 18 15:35:23 2021.

 -----------------------------
 #p B3LYP/6-31G* geom=allcheck
 -----------------------------

 Structure from the checkpoint file:  "SET_328_BBB301_conf1.geo_165_285_315.chk"
 ---------------------------------------------
 SET_328_BBB301_conf1.geo_165_285_315 geometry
 ---------------------------------------------
 Charge =  1 Multiplicity = 1

 SCF Done:  E(RB3LYP) =  -788.826804103     A.U. after   14 cycles

 The electronic state is 1-A.
 Alpha  occ. eigenvalues --  -19.29467 -19.26176 -19.24707 -14.60842 -10.40960
 Alpha  occ. eigenvalues --  -10.39076 -10.39047 -10.34268 -10.34049 -10.33202
 Alpha  occ. eigenvalues --  -10.33053 -10.32927 -10.29767 -10.29524 -10.29452
 Alpha  occ. eigenvalues --  -10.29225 -10.27967  -1.17741  -1.15374  -1.14100
 Alpha  occ. eigenvalues --   -1.11903  -0.97239  -0.95769  -0.91077  -0.86920
 Alpha  occ. eigenvalues --   -0.85410  -0.85168  -0.83662  -0.78564  -0.77219
 Alpha  occ. eigenvalues --   -0.74698  -0.74185  -0.70794  -0.69202  -0.65956
 Alpha  occ. eigenvalues --   -0.65588  -0.64484  -0.63146  -0.61671  -0.60184
 Alpha  occ. eigenvalues --   -0.59372  -0.58867  -0.56834  -0.55927  -0.55425
 Alpha  occ. eigenvalues --   -0.54212  -0.53863  -0.53689  -0.53202  -0.52853
 Alpha  occ. eigenvalues --   -0.52149  -0.52026  -0.50913  -0.49776  -0.49484
 Alpha  occ. eigenvalues --   -0.49072  -0.47681  -0.46457  -0.45885  -0.42931
 Alpha  occ. eigenvalues --   -0.42433  -0.41356  -0.38336  -0.34745  -0.31305
 Alpha virt. eigenvalues --   -0.11495  -0.10668  -0.10034  -0.06735  -0.05483
 Alpha virt. eigenvalues --   -0.04641  -0.04069  -0.02826  -0.01893  -0.01031
 Alpha virt. eigenvalues --    0.00088   0.01005   0.01179   0.02058   0.02294

 Mulliken charges:
               1
     1  C   -0.463387
     2  H    0.184201
     3  H    0.169578
     4  H    0.206118
     5  C    0.133542
     6  C   -0.468565
     7  H    0.172055
     8  H    0.176825
     9  H    0.208219
    10  C   -0.462894
    11  H    0.176334
    12  H    0.183263
    13  H    0.204506
    14  N   -0.616722
    15  H    0.390684
    16  C   -0.176940
    17  H    0.219088
    18  H    0.223317
    19  C    0.035061
    20  O   -0.638788
    21  H    0.426108
    22  H    0.144072
    23  C    0.116796
    24  C   -0.258647
    25  H    0.139769
    26  C    0.120638
    27  C   -0.137123
    28  O   -0.622321
    29  H    0.420878
    30  H    0.159764
    31  H    0.169895
    32  C    0.317559
    33  O   -0.649601
    34  H    0.440146
    35  C   -0.157449
    36  H    0.167467
    37  C   -0.193314
    38  H    0.130679
    39  H    0.409188
 Sum of Mulliken charges =   1.00000

 Dipole moment (field-independent basis, Debye):
    X=             10.0783    Y=              1.1503    Z=              2.1597  Tot=             10.3711
 Quadrupole moment (field-independent basis, Debye-Ang):
   XX=            -27.2044   YY=            -87.3837   ZZ=            -92.9452
   XY=            -16.0034   XZ=             -6.2918   YZ=             -1.0608

 Normal termination of Gaussian 16 at Sun Jul 18 15:36:06 2021.
 Gaussian 16:  ES64L-G16RevB.01 20-Dec-2017

 --------------------------------------------------------
 #p mp2/aug-cc-pVDZ scf=tight maxdisk=180GB geom=allcheck
 --------------------------------------------------------

 Structure from the checkpoint file:  "SET_328_BBB301_conf1.geo_165_285_315.chk"
 ---------------------------------------------
 SET_328_BBB301_conf1.geo_165_285_315 geometry
 ---------------------------------------------
 Charge =  1 Multiplicity = 1

                         Standard orientation:
 ---------------------------------------------------------------------
 Center     Atomic      Atomic             Coordinates (Angstroms)
 Number     Number       Type             X           Y           Z
 ---------------------------------------------------------------------
      1          6           0        4.097845   -0.592175   -1.753600
      2          1           0        3.169353   -0.497879   -2.321343
      3          1           0        4.256202   -1.647206   -1.511400
      4          1           0        4.917192   -0.267056   -2.398807
      5          6           0        4.088373    0.274870   -0.494492
      6          6           0        5.402064    0.134705    0.283632
      7          1           0        5.593128   -0.906766    0.558108
      8          1           0        5.390572    0.741050    1.194830
      9          1           0        6.226956    0.478382   -0.344473
     10          6           0        3.801726    1.740395   -0.820609
     11          1           0        3.715811    2.343074    0.087839
     12          1           0        2.891005    1.862397   -1.412017
     13          1           0        4.632229    2.136544   -1.409325
     14          7           0        2.990759   -0.242003    0.442887
     15          1           0        3.234667   -1.205193    0.719041
     16          6           0        1.577018   -0.244512   -0.053565
     17          1           0        1.510835   -0.931913   -0.893923
     18          1           0        1.337227    0.764286   -0.386043
     19          6           0        0.635788   -0.663031    1.074610
     20          8           0        0.849825    0.288820    2.112564
     21          1           0        0.361081   -0.012100    2.898016
     22          1           0        0.923544   -1.667924    1.412415
     23          6           0       -0.799263   -0.704540    0.590851
     24          6           0       -1.595540    0.442605    0.627383
     25          1           0       -1.182870    1.354884    1.044310
     26          6           0       -2.914567    0.436141    0.175476
     27          6           0       -3.784633    1.657530    0.328417
     28          8           0       -4.576943    1.825021   -0.862456
     29          1           0       -5.314687    2.420515   -0.644322
     30          1           0       -3.159517    2.540723    0.502709
     31          1           0       -4.449106    1.542623    1.195227
     32          6           0       -3.441634   -0.756523   -0.360285
     33          8           0       -4.716037   -0.831000   -0.828606
     34          1           0       -5.035087    0.096870   -0.945546
     35          6           0       -2.652353   -1.910799   -0.403997
     36          1           0       -3.080905   -2.820748   -0.811811
     37          6           0       -1.347443   -1.884134    0.077981
     38          1           0       -0.747800   -2.788772    0.049100
     39          1           0        3.015815    0.312304    1.314391
 ---------------------------------------------------------------------

 SCF Done:  E(RHF) =  -784.038011874     A.U. after   15 cycles
