 Gaussian 16, Revision B.01,

 -----------------------------------------------------------
 #p b3lyp/6-31G(d) opt freq scrf=(iefpcm,read,solvent=water)
 -----------------------------------------------------------

 ---------------------------------------------
 SET_328_BBB288_conf1.geo_210_105_285 geometry
 ---------------------------------------------
 Symbolic Z-matrix:
 Charge = -1 Multiplicity = 1

 SCF Done:  E(RB3LYP) =  -962.960343119     A.U. after   14 cycles
 SCF Done:  E(RB3LYP) =  -963.003725736     A.U. after   12 cycles
 SCF Done:  E(RB3LYP) =  -963.023153661     A.U. after   12 cycles
 SCF Done:  E(RB3LYP) =  -963.025003162     A.U. after   11 cycles
 SCF Done:  E(RB3LYP) =  -963.025618400     A.U. after   11 cycles
 SCF Done:  E(RB3LYP) =  -963.026137701     A.U. after   11 cycles
 SCF Done:  E(RB3LYP) =  -963.026828237     A.U. after   12 cycles
 SCF Done:  E(RB3LYP) =  -963.027776649     A.U. after   12 cycles
 SCF Done:  E(RB3LYP) =  -963.028368209     A.U. after   11 cycles
 SCF Done:  E(RB3LYP) =  -963.028563935     A.U. after   11 cycles
 SCF Done:  E(RB3LYP) =  -963.028710368     A.U. after   11 cycles
 SCF Done:  E(RB3LYP) =  -963.028710364     A.U. after    6 cycles
 SCF Done:  E(RB3LYP) =  -963.028651608     A.U. after   11 cycles
 SCF Done:  E(RB3LYP) =  -963.028707768     A.U. after   11 cycles
 SCF Done:  E(RB3LYP) =  -963.028706505     A.U. after    8 cycles
 SCF Done:  E(RB3LYP) =  -963.028706006     A.U. after    7 cycles
 Optimization completed.
    -- Stationary point found.
 Normal termination of Gaussian 16 at Sun Jul 18 14:35:02 2021.

 --------------------------------------------------------------------
 #P Geom=AllCheck Guess=TCheck SCRF=Check GenChk RB3LYP/6-31G(d) Freq
 --------------------------------------------------------------------

 Structure from the checkpoint file:  "SET_328_BBB288_conf1.geo_210_105_285.chk"
 ---------------------------------------------
 SET_328_BBB288_conf1.geo_210_105_285 geometry
 ---------------------------------------------
 Charge = -1 Multiplicity = 1

 SCF Done:  E(RB3LYP) =  -963.028706006     A.U. after    1 cycles

  Exact polarizability: 262.364  33.512 186.223   3.641  16.897 155.169
 Approx polarizability: 295.276  52.933 219.714  -0.899  10.603 181.510

                      1                      2                      3
                      A                      A                      A
 Frequencies --     13.0672                18.1251                29.3865
 Red. masses --      9.8557                 4.3024                 6.7673
 Frc consts  --      0.0010                 0.0008                 0.0034
 IR Inten    --      2.1694                11.1385                 9.4329

                      4                      5                      6
                      A                      A                      A
 Frequencies --     38.6706                79.9616               100.1448
 Red. masses --      8.7583                 6.6185                 1.9667
 Frc consts  --      0.0077                 0.0249                 0.0116
 IR Inten    --      0.6668                 3.2402               118.6401

                      7                      8                      9
                      A                      A                      A
 Frequencies --    103.3566               128.5942               133.4529
 Red. masses --      4.4809                 2.4104                 3.1083
 Frc consts  --      0.0282                 0.0235                 0.0326
 IR Inten    --      1.3835                56.5506                30.5399

                     10                     11                     12
                      A                      A                      A
 Frequencies --    164.8213               182.7203               193.8781
 Red. masses --      6.1462                 1.3976                 2.0950
 Frc consts  --      0.0984                 0.0275                 0.0464
 IR Inten    --      5.1081                 4.1726                 6.3641

                     13                     14                     15
                      A                      A                      A
 Frequencies --    205.1641               249.9847               273.6520
 Red. masses --      9.6968                 4.3240                 4.7539
 Frc consts  --      0.2405                 0.1592                 0.2097
 IR Inten    --      1.5734                 8.5259                13.1116

                     16                     17                     18
                      A                      A                      A
 Frequencies --    285.0516               309.0879               375.5809
 Red. masses --      3.7315                 5.3845                 3.5081
 Frc consts  --      0.1786                 0.3031                 0.2916
 IR Inten    --      5.1298                 5.1093                 8.5297

                     19                     20                     21
                      A                      A                      A
 Frequencies --    377.2652               431.0119               442.4071
 Red. masses --      4.6015                 8.1691                 3.9595
 Frc consts  --      0.3859                 0.8941                 0.4566
 IR Inten    --      5.6556                25.6072                12.8908

                     22                     23                     24
                      A                      A                      A
 Frequencies --    485.4596               496.1816               517.9708
 Red. masses --      3.3639                 4.2092                 5.2055
 Frc consts  --      0.4671                 0.6106                 0.8229
 IR Inten    --      5.3356                12.4950                12.0557

                     25                     26                     27
                      A                      A                      A
 Frequencies --    566.7692               578.0355               621.0601
 Red. masses --      5.4214                13.5456                 5.9458
 Frc consts  --      1.0261                 2.6666                 1.3512
 IR Inten    --     23.0789                24.9576                 4.4375

                     28                     29                     30
                      A                      A                      A
 Frequencies --    642.4861               690.3396               745.3844
 Red. masses --      6.8665                 4.0574                 6.3206
 Frc consts  --      1.6700                 1.1393                 2.0690
 IR Inten    --     19.3660                16.5651                45.5308

                     31                     32                     33
                      A                      A                      A
 Frequencies --    764.7685               771.8808               775.7897
 Red. masses --     11.5397                 6.2976                 7.6519
 Frc consts  --      3.9765                 2.2107                 2.7134
 IR Inten    --     54.0806                12.8913                12.9130

                     34                     35                     36
                      A                      A                      A
 Frequencies --    783.8369               851.5424               880.5270
 Red. masses --      7.0352                 3.0735                 4.6824
 Frc consts  --      2.5467                 1.3131                 2.1390
 IR Inten    --     31.7451                14.8279                29.5338

                     37                     38                     39
                      A                      A                      A
 Frequencies --    898.5743               901.3976               939.4208
 Red. masses --      1.7487                 2.2285                 2.0937
 Frc consts  --      0.8319                 1.0668                 1.0886
 IR Inten    --     55.3749                40.6441                25.9851

                     40                     41                     42
                      A                      A                      A
 Frequencies --    964.7735               995.8071              1022.5471
 Red. masses --      2.6130                 2.2850                 2.6784
 Frc consts  --      1.4330                 1.3350                 1.6501
 IR Inten    --     94.8262               180.9234                19.0983

                     43                     44                     45
                      A                      A                      A
 Frequencies --   1040.3559              1069.1362              1072.5694
 Red. masses --      2.0693                 3.5622                 1.4666
 Frc consts  --      1.3196                 2.3990                 0.9940
 IR Inten    --     14.0827               238.1487                 4.7794

                     46                     47                     48
                      A                      A                      A
 Frequencies --   1088.7970              1101.0370              1126.3440
 Red. masses --      4.2108                 2.9321                 2.7601
 Frc consts  --      2.9411                 2.0943                 2.0631
 IR Inten    --     76.5461               228.4913                24.2026

                     49                     50                     51
                      A                      A                      A
 Frequencies --   1154.9699              1198.2559              1214.9171
 Red. masses --      2.2334                 2.3608                 1.6862
 Frc consts  --      1.7554                 1.9971                 1.4664
 IR Inten    --     80.6063                88.9493                37.9925

                     52                     53                     54
                      A                      A                      A
 Frequencies --   1244.0352              1258.2516              1269.3282
 Red. masses --      1.2556                 1.9424                 1.1106
 Frc consts  --      1.1449                 1.8118                 1.0543
 IR Inten    --    106.3802                34.7963                15.2451

                     55                     56                     57
                      A                      A                      A
 Frequencies --   1287.9634              1323.8698              1329.0501
 Red. masses --      2.2617                 2.8001                 1.7888
 Frc consts  --      2.2105                 2.8915                 1.8617
 IR Inten    --    187.8521               136.6452               160.1675

                     58                     59                     60
                      A                      A                      A
 Frequencies --   1343.1519              1358.7327              1364.2964
 Red. masses --     11.7552                 1.5809                 1.5969
 Frc consts  --     12.4949                 1.7195                 1.7512
 IR Inten    --    224.7121               142.4529               137.1886

                     61                     62                     63
                      A                      A                      A
 Frequencies --   1366.4359              1379.7191              1405.6252
 Red. masses --      1.8275                 1.2545                 1.3215
 Frc consts  --      2.0104                 1.4070                 1.5384
 IR Inten    --    229.2671                 9.3148                 9.3848

                     64                     65                     66
                      A                      A                      A
 Frequencies --   1419.3571              1427.8484              1475.1948
 Red. masses --      1.5989                 1.3473                 2.2870
 Frc consts  --      1.8978                 1.6183                 2.9323
 IR Inten    --     19.8994                 6.8828               185.7331

                     67                     68                     69
                      A                      A                      A
 Frequencies --   1480.7067              1488.2090              1507.0230
 Red. masses --      1.6111                 1.0473                 1.1457
 Frc consts  --      2.0812                 1.3666                 1.5331
 IR Inten    --      4.1566                 7.0149                51.9923

                     70                     71                     72
                      A                      A                      A
 Frequencies --   1510.5177              1527.6068              1595.4888
 Red. masses --      1.1479                 1.0864                11.8366
 Frc consts  --      1.5432                 1.4937                17.7528
 IR Inten    --     18.4605                 3.8749              1740.3372

                     73                     74                     75
                      A                      A                      A
 Frequencies --   1687.7127              1723.0785              2243.2026
 Red. masses --     11.7795                 6.5322                13.6536
 Frc consts  --     19.7684                11.4267                40.4795
 IR Inten    --    374.1941               510.1229              1220.0828

                     76                     77                     78
                      A                      A                      A
 Frequencies --   3017.9696              3036.6825              3044.6688
 Red. masses --      1.0646                 1.0832                 1.0370
 Frc consts  --      5.7131                 5.8854                 5.6637
 IR Inten    --     87.6149                43.3937                76.0850

                     79                     80                     81
                      A                      A                      A
 Frequencies --   3078.2700              3092.5596              3096.2821
 Red. masses --      1.0984                 1.1008                 1.0634
 Frc consts  --      6.1324                 6.2027                 6.0068
 IR Inten    --     90.5496                43.0858                11.8956

                     82                     83                     84
                      A                      A                      A
 Frequencies --   3126.8309              3127.4341              3148.9816
 Red. masses --      1.0876                 1.1016                 1.1004
 Frc consts  --      6.2650                 6.3485                 6.4291
 IR Inten    --     37.1090                45.7242                 7.9019

                     85                     86                     87
                      A                      A                      A
 Frequencies --   3165.4398              3230.6265              3755.5083
 Red. masses --      1.0891                 1.0917                 1.0664
 Frc consts  --      6.4298                 6.7134                 8.8618
 IR Inten    --     26.5356                17.5860                92.6682

 - Thermochemistry -
 -------------------
 Temperature   298.150 Kelvin.  Pressure   1.00000 Atm.
 Atom     1 has atomic number  6 and mass  12.00000

 Molecular mass:   266.08893 amu.
 Principal axes and moments of inertia in atomic units:
                           1         2         3
     Eigenvalues --  2816.340638979.29161**********
           X            0.99992  -0.00173   0.01266
           Y            0.00158   0.99993   0.01139
           Z           -0.01268  -0.01137   0.99986
 This molecule is an asymmetric top.
 Rotational symmetry number  1.
 Warning -- assumption of classical behavior for rotation
           may cause significant error
 Rotational temperatures (Kelvin)      0.03075     0.00965     0.00855
 Rotational constants (GHZ):           0.64081     0.20099     0.17812
 Zero-point vibrational energy     616280.1 (Joules/Mol)
                                  147.29447 (Kcal/Mol)
 Warning -- explicit consideration of  26 degrees of freedom as
           vibrations may cause significant error
 Vibrational temperatures:     18.80    26.08    42.28    55.64   115.05
          (Kelvin)            144.09   148.71   185.02   192.01   237.14
                              262.89   278.95   295.19   359.67   393.72
                              410.13   444.71   540.38   542.80   620.13
                              636.53   698.47   713.89   745.24   815.45
                              831.66   893.57   924.39   993.24  1072.44
                             1100.33  1110.56  1116.19  1127.77  1225.18
                             1266.88  1292.85  1296.91  1351.62  1388.09
                             1432.74  1471.22  1496.84  1538.25  1543.19
                             1566.54  1584.15  1620.56  1661.74  1724.02
                             1747.99  1789.89  1810.34  1826.28  1853.09
                             1904.75  1912.21  1932.50  1954.91  1962.92
                             1966.00  1985.11  2022.38  2042.14  2054.36
                             2122.48  2130.41  2141.20  2168.27  2173.30
                             2197.89  2295.55  2428.24  2479.13  3227.47
                             4342.19  4369.11  4380.60  4428.94  4449.50
                             4454.86  4498.81  4499.68  4530.68  4554.36
                             4648.15  5403.34

 Zero-point correction=                           0.234729 (Hartree/Particle)
 Thermal correction to Energy=                    0.252689
 Thermal correction to Enthalpy=                  0.253633
 Thermal correction to Gibbs Free Energy=         0.184788
 Sum of electronic and zero-point Energies=           -962.793977
 Sum of electronic and thermal Energies=              -962.776017
 Sum of electronic and thermal Enthalpies=            -962.775073
 Sum of electronic and thermal Free Energies=         -962.843918

                     E (Thermal)             CV                S
                      KCal/Mol        Cal/Mol-Kelvin    Cal/Mol-Kelvin
 Total                  158.565             64.461            144.895
 Electronic               0.000              0.000              0.000
 Translational            0.889              2.981             42.635
 Rotational               0.889              2.981             33.904
 Vibrational            156.787             58.499             68.356
 Vibration     1          0.593              1.987              7.480
 Vibration     2          0.593              1.986              6.830
 Vibration     3          0.593              1.984              5.870
 Vibration     4          0.594              1.981              5.326
 Vibration     5          0.600              1.963              3.892
 Vibration     6          0.604              1.949              3.451
 Vibration     7          0.605              1.947              3.390
 Vibration     8          0.611              1.925              2.967
 Vibration     9          0.613              1.920              2.896
 Vibration    10          0.623              1.886              2.494
 Vibration    11          0.630              1.863              2.300
 Vibration    12          0.635              1.848              2.190
 Vibration    13          0.640              1.833              2.086
 Vibration    14          0.663              1.763              1.731
 Vibration    15          0.676              1.722              1.573
 Vibration    16          0.683              1.701              1.503
 Vibration    17          0.698              1.656              1.367
 Vibration    18          0.746              1.522              1.057
 Vibration    19          0.748              1.519              1.050
 Vibration    20          0.792              1.403              0.855
 Vibration    21          0.802              1.378              0.819
 Vibration    22          0.842              1.282              0.695
 Vibration    23          0.852              1.258              0.668
 Vibration    24          0.873              1.210              0.615
 Vibration    25          0.923              1.103              0.510
 Vibration    26          0.935              1.079              0.489

                           ! Non-Optimized Parameters !
 Normal termination of Gaussian 16 at Sun Jul 18 14:45:46 2021.

 ----------------------------------------------------------------------
 #p b3lyp/6-31G(d) scrf=(iefpcm,read,solvent=water) geom=allcheck guess
 =read
 ----------------------------------------------------------------------

 Structure from the checkpoint file:  "SET_328_BBB288_conf1.geo_210_105_285.chk"
 ---------------------------------------------
 SET_328_BBB288_conf1.geo_210_105_285 geometry
 ---------------------------------------------
 Charge = -1 Multiplicity = 1

 SCF Done:  E(RB3LYP) =  -963.028706006     A.U. after    1 cycles
 Normal termination of Gaussian 16 at Sun Jul 18 14:45:56 2021.

 -----------------------------
 #p B3LYP/6-31G* geom=allcheck
 -----------------------------

 Structure from the checkpoint file:  "SET_328_BBB288_conf1.geo_210_105_285.chk"
 ---------------------------------------------
 SET_328_BBB288_conf1.geo_210_105_285 geometry
 ---------------------------------------------
 Charge = -1 Multiplicity = 1

 SCF Done:  E(RB3LYP) =  -962.911506120     A.U. after   25 cycles
 Normal termination of Gaussian 16 at Sun Jul 18 14:47:26 2021.
 Gaussian 16:  ES64L-G16RevB.01 20-Dec-2017

 --------------------------------------------------------
 #p mp2/aug-cc-pVDZ scf=tight maxdisk=180GB geom=allcheck
 --------------------------------------------------------

 Structure from the checkpoint file:  "SET_328_BBB288_conf1.geo_210_105_285.chk"
 ---------------------------------------------
 SET_328_BBB288_conf1.geo_210_105_285 geometry
 ---------------------------------------------
 Charge = -1 Multiplicity = 1

                         Standard orientation:
 ---------------------------------------------------------------------
 Center     Atomic      Atomic             Coordinates (Angstroms)
 Number     Number       Type             X           Y           Z
 ---------------------------------------------------------------------
      1          6           0        3.725378    1.547891    1.708369
      2          1           0        2.990605    2.131088    2.270680
      3          1           0        4.372470    2.245171    1.164317
      4          1           0        4.368136    1.023795    2.425585
      5          6           0        3.052373    0.586328    0.774535
      6          6           0        3.865686   -0.284912   -0.085964
      7          7           0        3.243954   -1.147733   -0.948140
      8          6           0        1.900339   -1.236072   -1.035050
      9          8           0        1.316373   -2.012498   -1.819466
     10          8           0        5.117020   -0.230836   -0.029218
     11          6           0        1.710163    0.477289    0.675532
     12          1           0        1.032759    1.086432    1.262143
     13          7           0        1.108014   -0.413647   -0.184518
     14          6           0       -0.339032   -0.450782   -0.288785
     15          8           0       -0.841226    0.831071   -0.711763
     16          6           0       -1.934620    1.250016    0.124825
     17          6           0       -2.991592    1.944708   -0.710974
     18          8           0       -2.447142    3.177571   -1.165219
     19          1           0       -3.098719    3.575316   -1.765237
     20          1           0       -3.883695    2.105471   -0.087436
     21          1           0       -3.275586    1.294678   -1.546870
     22          1           0       -1.562159    1.968861    0.867175
     23          1           0       -0.545793   -1.188483   -1.061369
     24          6           0       -1.072666   -0.769067    1.021933
     25          1           0       -0.522895   -0.363570    1.875857
     26          1           0       -1.200208   -1.842253    1.176756
     27          6           0       -2.395484   -0.010460    0.870509
     28          1           0       -2.863429    0.232096    1.825822
     29          7           0       -3.359559   -0.755620    0.009131
     30          7           0       -4.022736   -1.624428    0.573874
     31          7           0       -4.697525   -2.447243    0.987985
 ---------------------------------------------------------------------

 SCF Done:  E(RHF) =  -957.448788812     A.U. after   17 cycles
 E2 =    -0.3053667763D+01 EUMP2 =    -0.96050245657401D+03

 The electronic state is 1-A.
 Alpha  occ. eigenvalues --  -20.50187 -20.47603 -20.35096 -20.34598 -15.73105
 Alpha  occ. eigenvalues --  -15.61230 -15.55275 -15.47221 -15.36138 -11.22683
 Alpha  occ. eigenvalues --  -11.21995 -11.21933 -11.21504 -11.21458 -11.17731
 Alpha  occ. eigenvalues --  -11.16392 -11.16231 -11.11111 -11.10077  -1.44060
 Alpha  occ. eigenvalues --   -1.30547  -1.28688  -1.22951  -1.21996  -1.18008
 Alpha  occ. eigenvalues --   -1.12510  -1.01322  -1.00992  -0.95351  -0.93055
 Alpha  occ. eigenvalues --   -0.84396  -0.81437  -0.77317  -0.73025  -0.71681
 Alpha  occ. eigenvalues --   -0.67771  -0.66341  -0.64607  -0.63538  -0.62069
 Alpha  occ. eigenvalues --   -0.60580  -0.59415  -0.58277  -0.56856  -0.55465
 Alpha  occ. eigenvalues --   -0.51943  -0.50982  -0.50361  -0.48815  -0.46770
 Alpha  occ. eigenvalues --   -0.45775  -0.45622  -0.44215  -0.43639  -0.43117
 Alpha  occ. eigenvalues --   -0.42421  -0.42148  -0.40226  -0.39900  -0.37964
 Alpha  occ. eigenvalues --   -0.36340  -0.35560  -0.34170  -0.31994  -0.30921
 Alpha  occ. eigenvalues --   -0.28207  -0.25324  -0.23057  -0.18840  -0.18211
 Alpha virt. eigenvalues --    0.08759   0.09653   0.10691   0.11648   0.12283
 Alpha virt. eigenvalues --    0.13116   0.13457   0.13646   0.15053   0.15280
 Alpha virt. eigenvalues --    0.16240   0.16333   0.17565   0.18032   0.18606

 Mulliken charges:
               1
     1  C    0.479964
     2  H   -0.173759
     3  H    0.067988
     4  H    0.069350
     5  C    0.199769
     6  C    0.685326
     7  N   -0.837885
     8  C    0.949323
     9  O   -0.928151
    10  O   -1.070884
    11  C    1.096984
    12  H   -0.723909
    13  N   -0.895889
    14  C    1.237408
    15  O   -1.171315
    16  C    0.684257
    17  C    1.159264
    18  O   -0.748154
    19  H    0.155082
    20  H   -0.096874
    21  H   -0.035154
    22  H   -0.266407
    23  H   -0.476288
    24  C    0.526192
    25  H   -0.212573
    26  H   -0.150748
    27  C    0.549768
    28  H   -0.252697
    29  N   -0.799649
    30  N    0.393880
    31  N   -0.414220
 Sum of Mulliken charges =  -1.00000

 Dipole moment (field-independent basis, Debye):
    X=            -17.4208    Y=              6.1943    Z=              7.0374  Tot=             19.7833
 Quadrupole moment (field-independent basis, Debye-Ang):
   XX=           -194.1238   YY=           -132.2622   ZZ=           -122.0460
   XY=              5.5558   XZ=             13.6212   YZ=            -10.9399

 Normal termination of Gaussian 16 at Sun Jul 18 15:22:49 2021.
