 Gaussian 16, Revision B.01,

 -----------------------------------------------------------
 #p b3lyp/6-31G(d) opt freq scrf=(iefpcm,read,solvent=water)
 -----------------------------------------------------------

 --------------------------------------------
 SET_328_BBB30_conf1.geo_255_060_195 geometry
 --------------------------------------------
 Symbolic Z-matrix:
 Charge =  1 Multiplicity = 1

 SCF Done:  E(RB3LYP) =  -445.303590694     A.U. after   11 cycles
 SCF Done:  E(RB3LYP) =  -445.325809413     A.U. after   11 cycles
 SCF Done:  E(RB3LYP) =  -445.330094247     A.U. after   10 cycles
 SCF Done:  E(RB3LYP) =  -445.330557137     A.U. after   10 cycles
 SCF Done:  E(RB3LYP) =  -445.330838846     A.U. after    9 cycles
 SCF Done:  E(RB3LYP) =  -445.330814693     A.U. after    9 cycles
 SCF Done:  E(RB3LYP) =  -445.330793788     A.U. after    9 cycles
 SCF Done:  E(RB3LYP) =  -445.330825407     A.U. after    9 cycles
 SCF Done:  E(RB3LYP) =  -445.330837664     A.U. after    8 cycles
 SCF Done:  E(RB3LYP) =  -445.330838728     A.U. after    7 cycles
 SCF Done:  E(RB3LYP) =  -445.330807647     A.U. after    8 cycles
 SCF Done:  E(RB3LYP) =  -445.330854679     A.U. after    8 cycles
 SCF Done:  E(RB3LYP) =  -445.330805718     A.U. after    8 cycles
 SCF Done:  E(RB3LYP) =  -445.330854163     A.U. after    8 cycles
 SCF Done:  E(RB3LYP) =  -445.330809303     A.U. after    8 cycles
 SCF Done:  E(RB3LYP) =  -445.330854693     A.U. after    8 cycles
 Optimization completed.
    -- Stationary point found.
 Normal termination of Gaussian 16 at Sun Jul 18 14:36:11 2021.

 --------------------------------------------------------------------
 #P Geom=AllCheck Guess=TCheck SCRF=Check GenChk RB3LYP/6-31G(d) Freq
 --------------------------------------------------------------------

 Structure from the checkpoint file:  "SET_328_BBB30_conf1.geo_255_060_195.chk"
 --------------------------------------------
 SET_328_BBB30_conf1.geo_255_060_195 geometry
 --------------------------------------------
 Charge =  1 Multiplicity = 1

 SCF Done:  E(RB3LYP) =  -445.330854693     A.U. after    1 cycles

  Exact polarizability: 164.044  26.092 114.075  12.135 -20.749 143.075
 Approx polarizability: 172.638  30.742 125.475  14.240 -26.391 164.954

 ******    1 imaginary frequencies (negative Signs) ******

                      1                      2                      3
                      A                      A                      A
 Frequencies --    -32.2321                48.4536                80.5892
 Red. masses --      2.2248                 2.4755                 3.8035
 Frc consts  --      0.0014                 0.0034                 0.0146
 IR Inten    --     10.5311                 0.4876                 5.5426

                      4                      5                      6
                      A                      A                      A
 Frequencies --    106.6485               173.4262               213.9388
 Red. masses --      2.4175                 1.0604                 3.7554
 Frc consts  --      0.0162                 0.0188                 0.1013
 IR Inten    --      1.2151                 0.0646                16.2068

                      7                      8                      9
                      A                      A                      A
 Frequencies --    230.4949               302.1118               312.9403
 Red. masses --      1.4854                 3.4055                 1.9628
 Frc consts  --      0.0465                 0.1831                 0.1133
 IR Inten    --      5.9004                 2.7252                 0.5731

                     10                     11                     12
                      A                      A                      A
 Frequencies --    343.9905               416.3233               422.8664
 Red. masses --      2.1701                 2.0576                 2.8999
 Frc consts  --      0.1513                 0.2101                 0.3055
 IR Inten    --      0.7778                 4.9947                 0.4296

                     13                     14                     15
                      A                      A                      A
 Frequencies --    448.7920               520.8098               607.4993
 Red. masses --      3.3926                 2.8876                 4.2888
 Frc consts  --      0.4026                 0.4615                 0.9326
 IR Inten    --      7.9912                 4.5798                 5.5697

                     16                     17                     18
                      A                      A                      A
 Frequencies --    634.7054               717.4035               756.2538
 Red. masses --      6.3136                 2.1199                 1.7491
 Frc consts  --      1.4985                 0.6428                 0.5894
 IR Inten    --      0.1526                30.3270                50.2784

                     19                     20                     21
                      A                      A                      A
 Frequencies --    789.0394               828.5344               856.2852
 Red. masses --      2.3462                 3.3134                 1.2349
 Frc consts  --      0.8606                 1.3401                 0.5335
 IR Inten    --      6.5145                 0.6863                27.0211

                     22                     23                     24
                      A                      A                      A
 Frequencies --    869.7598               917.2187               929.7190
 Red. masses --      1.2477                 1.5111                 1.6210
 Frc consts  --      0.5561                 0.7490                 0.8255
 IR Inten    --      0.0756                 2.6142                 3.6412

                     25                     26                     27
                      A                      A                      A
 Frequencies --    952.1002               983.1311              1009.4707
 Red. masses --      1.6458                 1.3539                 1.2579
 Frc consts  --      0.8790                 0.7710                 0.7553
 IR Inten    --      4.6526                 0.0153                 0.2730

                     28                     29                     30
                      A                      A                      A
 Frequencies --   1017.0137              1032.9770              1050.2063
 Red. masses --      6.1243                 2.4669                 1.9326
 Frc consts  --      3.7322                 1.5509                 1.2558
 IR Inten    --      0.6767                 5.0076                21.7307

                     31                     32                     33
                      A                      A                      A
 Frequencies --   1056.8277              1070.2654              1102.9216
 Red. masses --      2.1531                 1.7984                 1.5399
 Frc consts  --      1.4169                 1.2137                 1.1036
 IR Inten    --      5.8084                14.2855                26.4429

                     34                     35                     36
                      A                      A                      A
 Frequencies --   1150.2157              1163.5043              1189.4223
 Red. masses --      1.7183                 1.3701                 1.0942
 Frc consts  --      1.3394                 1.0928                 0.9120
 IR Inten    --     11.5584                 2.3145                 0.1135

                     37                     38                     39
                      A                      A                      A
 Frequencies --   1208.5292              1220.7721              1233.6370
 Red. masses --      1.1411                 1.5783                 2.6097
 Frc consts  --      0.9819                 1.3859                 2.3400
 IR Inten    --      0.6014                23.8196                 0.4639

                     40                     41                     42
                      A                      A                      A
 Frequencies --   1273.9462              1328.3972              1359.1305
 Red. masses --      1.6167                 1.3734                 3.0734
 Frc consts  --      1.5459                 1.4279                 3.3450
 IR Inten    --      1.9556                 3.6769                 1.3357

                     43                     44                     45
                      A                      A                      A
 Frequencies --   1365.9532              1373.9467              1405.9330
 Red. masses --      1.5310                 1.3158                 1.3225
 Frc consts  --      1.6830                 1.4635                 1.5402
 IR Inten    --      0.8696                 9.0152                 2.1344

                     46                     47                     48
                      A                      A                      A
 Frequencies --   1428.3784              1446.3005              1459.1636
 Red. masses --      1.2091                 1.1992                 1.3208
 Frc consts  --      1.4534                 1.4779                 1.6570
 IR Inten    --     14.7055                35.6354                98.9025

                     49                     50                     51
                      A                      A                      A
 Frequencies --   1480.9733              1499.1018              1504.0208
 Red. masses --      1.1681                 2.0016                 1.1018
 Frc consts  --      1.5094                 2.6503                 1.4684
 IR Inten    --     12.7456                 8.5498                 1.9442

                     52                     53                     54
                      A                      A                      A
 Frequencies --   1510.9060              1516.4012              1522.9345
 Red. masses --      1.0593                 1.0830                 1.0483
 Frc consts  --      1.4247                 1.4673                 1.4325
 IR Inten    --     26.1250                 3.3080                30.3705

                     55                     56                     57
                      A                      A                      A
 Frequencies --   1534.2950              1544.4832              1634.9132
 Red. masses --      1.0413                 2.2359                 1.0798
 Frc consts  --      1.4442                 3.1424                 1.7006
 IR Inten    --     13.2089                13.4342               114.8011

                     58                     59                     60
                      A                      A                      A
 Frequencies --   1643.0449              1663.3064              3074.9299
 Red. masses --      5.2429                 5.6489                 1.0503
 Frc consts  --      8.3391                 9.2078                 5.8513
 IR Inten    --      4.9477                 3.5156                 3.8083

                     61                     62                     63
                      A                      A                      A
 Frequencies --   3078.2220              3110.5710              3124.6533
 Red. masses --      1.0500                 1.0906                 1.0984
 Frc consts  --      5.8619                 6.2175                 6.3187
 IR Inten    --     43.6214                 4.4532                28.7288

                     64                     65                     66
                      A                      A                      A
 Frequencies --   3130.5220              3148.6920              3170.1251
 Red. masses --      1.0312                 1.1014                 1.1013
 Frc consts  --      5.9541                 6.4338                 6.5210
 IR Inten    --     10.0861                36.1514                30.4004

                     67                     68                     69
                      A                      A                      A
 Frequencies --   3189.1698              3198.3978              3206.4486
 Red. masses --      1.0882                 1.0867                 1.0895
 Frc consts  --      6.5212                 6.5500                 6.5999
 IR Inten    --     17.6656                 9.0487                13.5717

                     70                     71                     72
                      A                      A                      A
 Frequencies --   3215.8858              3222.8833              3226.4351
 Red. masses --      1.0937                 1.1087                 1.0978
 Frc consts  --      6.6641                 6.7853                 6.7331
 IR Inten    --     63.2643                 6.8521                29.6876

                     73                     74                     75
                      A                      A                      A
 Frequencies --   3234.7551              3390.2843              3433.4798
 Red. masses --      1.1082                 1.0554                 1.0956
 Frc consts  --      6.8320                 7.1470                 7.6094
 IR Inten    --      9.5878               122.6540               211.4825

 - Thermochemistry -
 -------------------
 Temperature   298.150 Kelvin.  Pressure   1.00000 Atm.
 Atom     1 has atomic number  6 and mass  12.00000

 Molecular mass:   150.12827 amu.
 Principal axes and moments of inertia in atomic units:
                           1         2         3
     Eigenvalues --   859.137653083.309693246.98469
           X            1.00000   0.00234  -0.00029
           Y           -0.00234   0.99999  -0.00427
           Z            0.00028   0.00427   0.99999
 This molecule is an asymmetric top.
 Rotational symmetry number  1.
 Warning -- assumption of classical behavior for rotation
           may cause significant error
 Rotational temperatures (Kelvin)      0.10081     0.02809     0.02668
 Rotational constants (GHZ):           2.10064     0.58533     0.55582
    1 imaginary frequencies ignored.
 Zero-point vibrational energy     649690.6 (Joules/Mol)
                                  155.27977 (Kcal/Mol)
 Warning -- explicit consideration of  14 degrees of freedom as
           vibrations may cause significant error
 Vibrational temperatures:     69.71   115.95   153.44   249.52   307.81
          (Kelvin)            331.63   434.67   450.25   494.93   599.00
                              608.41   645.71   749.33   874.06   913.20
                             1032.18  1088.08  1135.25  1192.08  1232.00
                             1251.39  1319.67  1337.66  1369.86  1414.51
                             1452.40  1463.26  1486.22  1511.01  1520.54
                             1539.87  1586.86  1654.90  1674.02  1711.31
                             1738.80  1756.42  1774.93  1832.92  1911.27
                             1955.49  1965.30  1976.80  2022.82  2055.12
                             2080.90  2099.41  2130.79  2156.87  2163.95
                             2173.86  2181.76  2191.16  2207.51  2222.17
                             2352.28  2363.98  2393.13  4424.14  4428.87
                             4475.42  4495.68  4504.12  4530.27  4561.10
                             4588.50  4601.78  4613.36  4626.94  4637.01
                             4642.12  4654.09  4877.86  4940.01

 Zero-point correction=                           0.247454 (Hartree/Particle)
 Thermal correction to Energy=                    0.257914
 Thermal correction to Enthalpy=                  0.258858
 Thermal correction to Gibbs Free Energy=         0.211055
 Sum of electronic and zero-point Energies=           -445.083401
 Sum of electronic and thermal Energies=              -445.072941
 Sum of electronic and thermal Enthalpies=            -445.071997
 Sum of electronic and thermal Free Energies=         -445.119800

                     E (Thermal)             CV                S
                      KCal/Mol        Cal/Mol-Kelvin    Cal/Mol-Kelvin
 Total                  161.843             40.594            100.609
 Electronic               0.000              0.000              0.000
 Translational            0.889              2.981             40.929
 Rotational               0.889              2.981             30.532
 Vibrational            160.066             34.633             29.148
 Vibration     1          0.595              1.978              4.880
 Vibration     2          0.600              1.962              3.876
 Vibration     3          0.606              1.944              3.329
 Vibration     4          0.627              1.875              2.398
 Vibration     5          0.644              1.820              2.010
 Vibration     6          0.652              1.794              1.875
 Vibration     7          0.694              1.670              1.405
 Vibration     8          0.701              1.649              1.347
 Vibration     9          0.723              1.587              1.194
 Vibration    10          0.780              1.435              0.905
 Vibration    11          0.785              1.421              0.882
 Vibration    12          0.808              1.364              0.799
 Vibration    13          0.876              1.204              0.608
 Vibration    14          0.966              1.016              0.437

                           ! Non-Optimized Parameters !
 Normal termination of Gaussian 16 at Sun Jul 18 14:40:51 2021.

 ----------------------------------------------------------------------
 #p b3lyp/6-31G(d) scrf=(iefpcm,read,solvent=water) geom=allcheck guess
 =read
 ----------------------------------------------------------------------

 Structure from the checkpoint file:  "SET_328_BBB30_conf1.geo_255_060_195.chk"
 --------------------------------------------
 SET_328_BBB30_conf1.geo_255_060_195 geometry
 --------------------------------------------
 Charge =  1 Multiplicity = 1

 SCF Done:  E(RB3LYP) =  -445.330854693     A.U. after    1 cycles
 Normal termination of Gaussian 16 at Sun Jul 18 14:40:56 2021.

 -----------------------------
 #p B3LYP/6-31G* geom=allcheck
 -----------------------------

 Structure from the checkpoint file:  "SET_328_BBB30_conf1.geo_255_060_195.chk"
 --------------------------------------------
 SET_328_BBB30_conf1.geo_255_060_195 geometry
 --------------------------------------------
 Charge =  1 Multiplicity = 1

 SCF Done:  E(RB3LYP) =  -445.231270610     A.U. after   13 cycles
 Normal termination of Gaussian 16 at Sun Jul 18 14:41:15 2021.
 Gaussian 16:  ES64L-G16RevB.01 20-Dec-2017

 --------------------------------------------------------
 #p mp2/aug-cc-pVDZ scf=tight maxdisk=180GB geom=allcheck
 --------------------------------------------------------

 Structure from the checkpoint file:  "SET_328_BBB30_conf1.geo_255_060_195.chk"
 --------------------------------------------
 SET_328_BBB30_conf1.geo_255_060_195 geometry
 --------------------------------------------
 Charge =  1 Multiplicity = 1

                         Standard orientation:
 ---------------------------------------------------------------------
 Center     Atomic      Atomic             Coordinates (Angstroms)
 Number     Number       Type             X           Y           Z
 ---------------------------------------------------------------------
      1          6           0       -2.761026    1.761450    0.688976
      2          1           0       -2.650356    2.811940    0.428898
      3          1           0       -2.511569    1.602701    1.736770
      4          1           0       -3.775480    1.429010    0.485598
      5          7           0       -1.809595    0.972766   -0.148166
      6          1           0       -0.868581    1.377065   -0.034038
      7          6           0       -1.743416   -0.508370    0.158215
      8          6           0       -3.079576   -1.167679   -0.156788
      9          1           0       -3.895732   -0.724475    0.414729
     10          1           0       -3.024662   -2.227404    0.104653
     11          1           0       -3.314433   -1.090800   -1.221780
     12          1           0       -1.537828   -0.561952    1.230027
     13          6           0       -0.580193   -1.137922   -0.625248
     14          1           0       -0.775544   -1.037091   -1.697780
     15          1           0       -0.607504   -2.208719   -0.399012
     16          6           0        0.785174   -0.574163   -0.297025
     17          6           0        1.467202    0.223065   -1.223995
     18          1           0        1.008017    0.425627   -2.187003
     19          6           0        2.727420    0.748174   -0.928532
     20          1           0        3.241151    1.360699   -1.662160
     21          6           0        3.323254    0.481347    0.304322
     22          1           0        4.303383    0.885472    0.536202
     23          6           0        2.652994   -0.314100    1.238065
     24          1           0        3.113020   -0.532414    2.196367
     25          6           0        1.395040   -0.837566    0.939051
     26          1           0        0.887039   -1.465023    1.666818
     27          1           0       -2.044987    1.100581   -1.143376
 ---------------------------------------------------------------------

 SCF Done:  E(RHF) =  -442.298107809     A.U. after   15 cycles
 E2 =    -0.1585291563D+01 EUMP2 =    -0.44388339937213D+03

 The electronic state is 1-A.
 Alpha  occ. eigenvalues --  -15.86491 -11.46167 -11.45885 -11.39308 -11.38846
 Alpha  occ. eigenvalues --  -11.37740 -11.36481 -11.36305 -11.35913 -11.35892
 Alpha  occ. eigenvalues --  -11.35514  -1.49009  -1.28436  -1.23614  -1.16207
 Alpha  occ. eigenvalues --   -1.13643  -1.13385  -1.07540  -1.00703  -0.95007
 Alpha  occ. eigenvalues --   -0.94228  -0.92556  -0.85073  -0.83486  -0.81862
 Alpha  occ. eigenvalues --   -0.77626  -0.75686  -0.75220  -0.74389  -0.72642
 Alpha  occ. eigenvalues --   -0.71291  -0.70505  -0.69383  -0.68560  -0.67041
 Alpha  occ. eigenvalues --   -0.65835  -0.61365  -0.60931  -0.60766  -0.45648
 Alpha  occ. eigenvalues --   -0.45273
 Alpha virt. eigenvalues --   -0.08548  -0.06737  -0.06029  -0.05446  -0.03863
 Alpha virt. eigenvalues --   -0.03691  -0.03391  -0.03323  -0.03225  -0.01797
 Alpha virt. eigenvalues --   -0.01547  -0.01517  -0.00996  -0.00510  -0.00203

 Mulliken charges:
               1
     1  C    0.802200
     2  H   -0.130708
     3  H   -0.065298
     4  H   -0.132171
     5  N   -0.504642
     6  H    0.211729
     7  C   -0.312072
     8  C    0.827884
     9  H   -0.077386
    10  H    0.023047
    11  H   -0.038618
    12  H   -0.462425
    13  C    0.571501
    14  H   -0.207491
    15  H   -0.089216
    16  C    1.024540
    17  C    0.546516
    18  H   -0.672572
    19  C    0.168365
    20  H   -0.439163
    21  C    0.675212
    22  H   -0.417725
    23  C    0.128319
    24  H   -0.445818
    25  C    0.512855
    26  H   -0.698346
    27  H    0.201484
 Sum of Mulliken charges =   1.00000

 Dipole moment (field-independent basis, Debye):
    X=             -7.0697    Y=              3.0064    Z=              0.0318  Tot=              7.6824
 Quadrupole moment (field-independent basis, Debye-Ang):
   XX=            -34.8968   YY=            -56.7139   ZZ=            -58.9377
   XY=             -3.6526   XZ=              1.3226   YZ=             -2.4646

 Normal termination of Gaussian 16 at Sun Jul 18 14:47:49 2021.
