 Gaussian 16, Revision B.01,

 -----------------------------------------------------------
 #p b3lyp/6-31G(d) opt freq scrf=(iefpcm,read,solvent=water)
 -----------------------------------------------------------

 ---------------------------------------------
 SET_328_BBB321_conf1.geo_180_015_060 geometry
 ---------------------------------------------
 Symbolic Z-matrix:
 Charge =  1 Multiplicity = 1

 SCF Done:  E(RB3LYP) =  -1212.52722749     A.U. after   14 cycles
 SCF Done:  E(RB3LYP) =  -1212.65307701     A.U. after   12 cycles
 SCF Done:  E(RB3LYP) =  -1212.76496880     A.U. after   13 cycles
 SCF Done:  E(RB3LYP) =  -1212.79628617     A.U. after   13 cycles
 SCF Done:  E(RB3LYP) =  -1212.81136137     A.U. after   13 cycles
 SCF Done:  E(RB3LYP) =  -1212.81701341     A.U. after   13 cycles
 SCF Done:  E(RB3LYP) =  -1212.81168092     A.U. after   14 cycles
 SCF Done:  E(RB3LYP) =  -1212.82054053     A.U. after   12 cycles
 SCF Done:  E(RB3LYP) =  -1212.81728130     A.U. after   14 cycles
 SCF Done:  E(RB3LYP) =  -1212.82177335     A.U. after   12 cycles
 SCF Done:  E(RB3LYP) =  -1212.82302267     A.U. after    9 cycles
 SCF Done:  E(RB3LYP) =  -1212.82301849     A.U. after    8 cycles
 SCF Done:  E(RB3LYP) =  -1212.82302267     A.U. after    9 cycles
 SCF Done:  E(RB3LYP) =  -1212.82301834     A.U. after    8 cycles
 SCF Done:  E(RB3LYP) =  -1212.82302253     A.U. after    8 cycles
 SCF Done:  E(RB3LYP) =  -1212.82301843     A.U. after    8 cycles
 Optimization completed.
    -- Stationary point found.
 Normal termination of Gaussian 16 at Sun Jul 18 16:38:56 2021.

 --------------------------------------------------------------------
 #P Geom=AllCheck Guess=TCheck SCRF=Check GenChk RB3LYP/6-31G(d) Freq
 --------------------------------------------------------------------

 Structure from the checkpoint file:  "SET_328_BBB321_conf1.geo_180_015_060.chk"
 ---------------------------------------------
 SET_328_BBB321_conf1.geo_180_015_060 geometry
 ---------------------------------------------
 Charge =  1 Multiplicity = 1

 SCF Done:  E(RB3LYP) =  -1212.82301843     A.U. after    1 cycles

  Exact polarizability: 344.296   4.746 327.898   2.857  -0.202  90.978
 Approx polarizability: 378.677   7.476 364.041   3.602  -0.369 109.079

                      1                      2                      3
                      A                      A                      A
 Frequencies --     18.6486                44.2579                60.3921
 Red. masses --      5.8644                 6.0854                 5.2016
 Frc consts  --      0.0012                 0.0070                 0.0112
 IR Inten    --      7.5180                18.3157                11.2241

                      4                      5                      6
                      A                      A                      A
 Frequencies --     66.6793                69.9747                77.7473
 Red. masses --      1.9301                 5.3697                 3.2242
 Frc consts  --      0.0051                 0.0155                 0.0115
 IR Inten    --      4.2579                 6.2270                11.8708

                      7                      8                      9
                      A                      A                      A
 Frequencies --     95.6623               109.8004               131.7707
 Red. masses --      2.1087                 4.4975                 5.4407
 Frc consts  --      0.0114                 0.0319                 0.0557
 IR Inten    --      0.5945                 1.4080                11.9322

                     10                     11                     12
                      A                      A                      A
 Frequencies --    154.3257               217.3538               248.0147
 Red. masses --      1.1520                 5.0540                 4.5091
 Frc consts  --      0.0162                 0.1407                 0.1634
 IR Inten    --    361.5181                 3.2343                 4.4263

                     13                     14                     15
                      A                      A                      A
 Frequencies --    261.3037               278.6546               280.3774
 Red. masses --      4.4826                 4.9076                 6.5117
 Frc consts  --      0.1803                 0.2245                 0.3016
 IR Inten    --     10.5647                 6.2613                 1.6746

                     16                     17                     18
                      A                      A                      A
 Frequencies --    320.7255               334.7327               348.7474
 Red. masses --      4.1775                 5.7484                 1.3156
 Frc consts  --      0.2532                 0.3795                 0.0943
 IR Inten    --     18.5920                25.6704               284.6343

                     19                     20                     21
                      A                      A                      A
 Frequencies --    352.9885               403.2242               407.7050
 Red. masses --      5.6041                 4.8001                 1.0709
 Frc consts  --      0.4114                 0.4598                 0.1049
 IR Inten    --      5.8649                 4.2528                99.4234

                     22                     23                     24
                      A                      A                      A
 Frequencies --    452.8472               497.4180               529.7511
 Red. masses --      3.3060                 5.1808                 2.1260
 Frc consts  --      0.3994                 0.7552                 0.3515
 IR Inten    --      7.5065                 2.2653                88.3827

                     25                     26                     27
                      A                      A                      A
 Frequencies --    537.6664               546.8936               565.2362
 Red. masses --      3.9049                 2.4936                 2.2064
 Frc consts  --      0.6651                 0.4394                 0.4153
 IR Inten    --     37.1905                 1.2355               163.2469

                     28                     29                     30
                      A                      A                      A
 Frequencies --    586.5923               605.1041               621.2776
 Red. masses --      1.8634                 2.5015                 9.3522
 Frc consts  --      0.3778                 0.5396                 2.1268
 IR Inten    --      0.4489                45.4562                 2.1001

                     31                     32                     33
                      A                      A                      A
 Frequencies --    641.5264               657.5386               669.3771
 Red. masses --      1.6138                 1.1694                 6.1373
 Frc consts  --      0.3913                 0.2979                 1.6202
 IR Inten    --     36.9283                 7.8554                 8.5782

                     34                     35                     36
                      A                      A                      A
 Frequencies --    692.3936               696.2540               699.7842
 Red. masses --      5.9463                 3.3558                 1.8363
 Frc consts  --      1.6796                 0.9585                 0.5298
 IR Inten    --     17.8028                 2.9347                 4.4140

                     37                     38                     39
                      A                      A                      A
 Frequencies --    709.3977               748.6306               806.4172
 Red. masses --      3.4480                 1.8409                 1.7100
 Frc consts  --      1.0223                 0.6079                 0.6552
 IR Inten    --      1.7801                92.2862                34.3195

                     40                     41                     42
                      A                      A                      A
 Frequencies --    820.6783               869.9327               897.9471
 Red. masses --      7.4310                 6.0801                 3.9388
 Frc consts  --      2.9488                 2.7110                 1.8712
 IR Inten    --     35.7447                39.4498                 0.3144

                     43                     44                     45
                      A                      A                      A
 Frequencies --    899.8587               927.5377               973.9565
 Red. masses --      1.4855                 1.4631                 5.9925
 Frc consts  --      0.7087                 0.7416                 3.3492
 IR Inten    --      3.5241                24.0961                 8.4508

                     46                     47                     48
                      A                      A                      A
 Frequencies --    978.9101               990.0469              1009.7997
 Red. masses --      1.2751                 3.2898                 5.0432
 Frc consts  --      0.7199                 1.8999                 3.0299
 IR Inten    --      0.9554                 4.2926                18.4894

                     49                     50                     51
                      A                      A                      A
 Frequencies --   1016.1488              1042.6124              1066.5085
 Red. masses --      6.0902                 1.6572                 1.6859
 Frc consts  --      3.7051                 1.0614                 1.1298
 IR Inten    --      0.8111                16.2837                19.3539

                     52                     53                     54
                      A                      A                      A
 Frequencies --   1089.6025              1109.1240              1129.4402
 Red. masses --      1.4232                 1.7801                 1.6554
 Frc consts  --      0.9955                 1.2902                 1.2442
 IR Inten    --     13.1466                39.4363                 0.2407

                     55                     56                     57
                      A                      A                      A
 Frequencies --   1134.4561              1204.0838              1204.3691
 Red. masses --      1.7903                 1.5779                 1.2127
 Frc consts  --      1.3575                 1.3478                 1.0364
 IR Inten    --     22.6939                50.5872                 4.7548

                     58                     59                     60
                      A                      A                      A
 Frequencies --   1252.1112              1273.7919              1303.0562
 Red. masses --      2.9896                 2.6379                 2.1666
 Frc consts  --      2.7615                 2.5217                 2.1675
 IR Inten    --    237.7857                44.0519               216.1337

                     61                     62                     63
                      A                      A                      A
 Frequencies --   1312.1533              1366.4280              1376.4531
 Red. masses --      2.0909                 2.8704                 6.0240
 Frc consts  --      2.1211                 3.1577                 6.7245
 IR Inten    --     61.0636                15.7171                70.2556

                     64                     65                     66
                      A                      A                      A
 Frequencies --   1421.2560              1457.7855              1489.8858
 Red. masses --      1.2654                 3.2657                 1.0764
 Frc consts  --      1.5061                 4.0890                 1.4077
 IR Inten    --     28.7807               329.6864                15.0960

                     67                     68                     69
                      A                      A                      A
 Frequencies --   1505.9091              1513.7114              1532.8224
 Red. masses --      1.0844                 1.8031                 2.4626
 Frc consts  --      1.4489                 2.4342                 3.4090
 IR Inten    --     21.3306               107.3733                68.2460

                     70                     71                     72
                      A                      A                      A
 Frequencies --   1537.1851              1563.2014              1588.0176
 Red. masses --      1.8238                 4.6279                 3.2164
 Frc consts  --      2.5391                 6.6628                 4.7789
 IR Inten    --    358.6344               117.7450               251.2838

                     73                     74                     75
                      A                      A                      A
 Frequencies --   1603.1516              1625.3367              1639.5346
 Red. masses --      2.2645                 1.7191                 1.5655
 Frc consts  --      3.4291                 2.6757                 2.4794
 IR Inten    --    328.3254               718.7276               814.5288

                     76                     77                     78
                      A                      A                      A
 Frequencies --   1646.0086              1666.9219              1718.9077
 Red. masses --      5.7063                 4.2761                 3.2853
 Frc consts  --      9.1089                 7.0005                 5.7191
 IR Inten    --    107.5303                67.7251               895.3734

                     79                     80                     81
                      A                      A                      A
 Frequencies --   1739.4875              3080.1257              3149.8994
 Red. masses --      6.2533                 1.0385                 1.0984
 Frc consts  --     11.1481                 5.8050                 6.4212
 IR Inten    --    359.8717                 7.7690                14.5079

                     82                     83                     84
                      A                      A                      A
 Frequencies --   3176.5825              3207.9650              3220.1470
 Red. masses --      1.1052                 1.0864                 1.0908
 Frc consts  --      6.5705                 6.5871                 6.6639
 IR Inten    --     21.2777                 7.3643                31.0326

                     85                     86                     87
                      A                      A                      A
 Frequencies --   3230.8305              3312.2902              3324.2129
 Red. masses --      1.0955                 1.0946                 1.0889
 Frc consts  --      6.7373                 7.0755                 7.0897
 IR Inten    --     32.2392                 5.9235                18.4916

                     88                     89                     90
                      A                      A                      A
 Frequencies --   3484.5130              3549.0480              3558.0560
 Red. masses --      1.0519                 1.0520                 1.0745
 Frc consts  --      7.5252                 7.8068                 8.0149
 IR Inten    --    448.8473               187.7985               398.3083

                     91                     92                     93
                      A                      A                      A
 Frequencies --   3602.4018              3625.4194              3662.4816
 Red. masses --      1.0779                 1.1026                 1.1095
 Frc consts  --      8.2420                 8.5383                 8.7689
 IR Inten    --    105.0100               443.5156               247.7332

 - Thermochemistry -
 -------------------
 Temperature   298.150 Kelvin.  Pressure   1.00000 Atm.
 Atom     1 has atomic number  6 and mass  12.00000

 Molecular mass:   276.09191 amu.
 Principal axes and moments of inertia in atomic units:
                           1         2         3
     Eigenvalues --  4035.167588262.01533**********
           X            0.99996  -0.00853   0.00002
           Y            0.00853   0.99996   0.00013
           Z           -0.00002  -0.00013   1.00000
 This molecule is an asymmetric top.
 Rotational symmetry number  1.
 Warning -- assumption of classical behavior for rotation
           may cause significant error
 Rotational temperatures (Kelvin)      0.02146     0.01048     0.00705
 Rotational constants (GHZ):           0.44725     0.21844     0.14693
 Zero-point vibrational energy     683242.9 (Joules/Mol)
                                  163.29898 (Kcal/Mol)
 Warning -- explicit consideration of  29 degrees of freedom as
           vibrations may cause significant error
 Vibrational temperatures:     26.83    63.68    86.89    95.94   100.68
          (Kelvin)            111.86   137.64   157.98   189.59   222.04
                              312.72   356.84   375.96   400.92   403.40
                              461.45   481.61   501.77   507.87   580.15
                              586.60   651.55   715.67   762.19   773.58
                              786.86   813.25   843.98   870.61   893.88
                              923.01   946.05   963.08   996.20  1001.75
                             1006.83  1020.67  1077.11  1160.25  1180.77
                             1251.64  1291.95  1294.70  1334.52  1401.31
                             1408.43  1424.46  1452.88  1462.01  1500.09
                             1534.47  1567.69  1595.78  1625.01  1632.23
                             1732.41  1732.82  1801.51  1832.70  1874.81
                             1887.90  1965.99  1980.41  2044.87  2097.43
                             2143.61  2166.67  2177.89  2205.39  2211.67
                             2249.10  2284.80  2306.58  2338.50  2358.92
                             2368.24  2398.33  2473.12  2502.73  4431.61
                             4532.00  4570.39  4615.55  4633.07  4648.44
                             4765.65  4782.80  5013.44  5106.29  5119.25
                             5183.05  5216.17  5269.49

 Zero-point correction=                           0.260233 (Hartree/Particle)
 Thermal correction to Energy=                    0.278802
 Thermal correction to Enthalpy=                  0.279746
 Thermal correction to Gibbs Free Energy=         0.211767
 Sum of electronic and zero-point Energies=          -1212.562785
 Sum of electronic and thermal Energies=             -1212.544216
 Sum of electronic and thermal Enthalpies=           -1212.543272
 Sum of electronic and thermal Free Energies=        -1212.611252

                     E (Thermal)             CV                S
                      KCal/Mol        Cal/Mol-Kelvin    Cal/Mol-Kelvin
 Total                  174.951             69.770            143.076
 Electronic               0.000              0.000              0.000
 Translational            0.889              2.981             42.745
 Rotational               0.889              2.981             34.370
 Vibrational            173.174             63.809             65.960
 Vibration     1          0.593              1.986              6.773
 Vibration     2          0.595              1.980              5.059
 Vibration     3          0.597              1.973              4.444
 Vibration     4          0.598              1.970              4.249
 Vibration     5          0.598              1.968              4.154
 Vibration     6          0.599              1.964              3.947
 Vibration     7          0.603              1.952              3.541
 Vibration     8          0.606              1.941              3.272
 Vibration     9          0.612              1.922              2.920
 Vibration    10          0.620              1.898              2.618
 Vibration    11          0.646              1.815              1.981
 Vibration    12          0.662              1.766              1.745
 Vibration    13          0.669              1.744              1.653
 Vibration    14          0.679              1.713              1.542
 Vibration    15          0.680              1.710              1.531
 Vibration    16          0.706              1.634              1.306
 Vibration    17          0.716              1.606              1.237
 Vibration    18          0.726              1.578              1.172
 Vibration    19          0.729              1.569              1.153
 Vibration    20          0.769              1.463              0.951
 Vibration    21          0.772              1.453              0.935
 Vibration    22          0.811              1.355              0.787
 Vibration    23          0.853              1.256              0.665
 Vibration    24          0.885              1.184              0.588
 Vibration    25          0.893              1.167              0.570
 Vibration    26          0.902              1.146              0.551
 Vibration    27          0.921              1.106              0.513
 Vibration    28          0.944              1.060              0.473
 Vibration    29          0.964              1.021              0.441

 Optimization completed.
    -- Stationary point found.
 Normal termination of Gaussian 16 at Sun Jul 18 16:49:56 2021.

 ----------------------------------------------------------------------
 #p b3lyp/6-31G(d) scrf=(iefpcm,read,solvent=water) geom=allcheck guess
 =read
 ----------------------------------------------------------------------

 Structure from the checkpoint file:  "SET_328_BBB321_conf1.geo_180_015_060.chk"
 ---------------------------------------------
 SET_328_BBB321_conf1.geo_180_015_060 geometry
 ---------------------------------------------
 Charge =  1 Multiplicity = 1

 SCF Done:  E(RB3LYP) =  -1212.82301843     A.U. after    3 cycles
 Normal termination of Gaussian 16 at Sun Jul 18 16:50:15 2021.

 -----------------------------
 #p B3LYP/6-31G* geom=allcheck
 -----------------------------

 Structure from the checkpoint file:  "SET_328_BBB321_conf1.geo_180_015_060.chk"
 ---------------------------------------------
 SET_328_BBB321_conf1.geo_180_015_060 geometry
 ---------------------------------------------
 Charge =  1 Multiplicity = 1

 SCF Done:  E(RB3LYP) =  -1212.70310821     A.U. after   17 cycles
 Normal termination of Gaussian 16 at Sun Jul 18 16:51:04 2021.
 Gaussian 16:  ES64L-G16RevB.01 20-Dec-2017

 --------------------------------------------------------
 #p mp2/aug-cc-pVDZ scf=tight maxdisk=180GB geom=allcheck
 --------------------------------------------------------

 Structure from the checkpoint file:  "SET_328_BBB321_conf1.geo_180_015_060.chk"
 ---------------------------------------------
 SET_328_BBB321_conf1.geo_180_015_060 geometry
 ---------------------------------------------
 Charge =  1 Multiplicity = 1

                         Standard orientation:
 ---------------------------------------------------------------------
 Center     Atomic      Atomic             Coordinates (Angstroms)
 Number     Number       Type             X           Y           Z
 ---------------------------------------------------------------------
      1          6           0        4.524462    2.920636   -0.023528
      2          1           0        4.288694    3.767503   -0.669915
      3          1           0        5.463090    2.467379   -0.346335
      4          1           0        4.654796    3.302342    0.994323
      5          6           0        3.358135    1.953940   -0.042748
      6          8           0        2.191731    2.352274   -0.055101
      7          7           0        3.715380    0.633255   -0.019389
      8          1           0        4.711105    0.441296   -0.007056
      9          6           0        2.887939   -0.505531    0.004075
     10          6           0        3.510113   -1.763723    0.035738
     11          6           0        2.734256   -2.920366    0.055479
     12          6           0        1.344519   -2.847468    0.043650
     13          1           0        0.755054   -3.756977    0.060671
     14          1           0        3.222675   -3.888685    0.080870
     15          1           0        4.593010   -1.834375    0.045039
     16          6           0        1.489121   -0.428035   -0.007282
     17          1           0        1.014609    0.537366   -0.032744
     18          6           0        0.713918   -1.595090    0.011716
     19          6           0       -0.755614   -1.482056   -0.004645
     20          7           0       -1.341904   -0.221542    0.002591
     21          6           0       -1.645639   -2.519761   -0.030340
     22          1           0       -1.446361   -3.579053   -0.044218
     23         16           0       -3.281334   -1.938362   -0.044593
     24          6           0       -2.640060   -0.301025   -0.015573
     25          7           0       -3.505740    0.779329   -0.011794
     26          6           0       -3.157262    2.099987    0.031827
     27          7           0       -4.140345    2.994670    0.021824
     28          1           0       -5.111983    2.702744    0.000678
     29          1           0       -3.927614    3.986264    0.062727
     30          7           0       -1.887458    2.469025    0.081233
     31          1           0       -1.156769    1.759358    0.071597
     32          1           0       -1.651229    3.456130    0.103781
     33          1           0       -4.504441    0.582094   -0.036587
 ---------------------------------------------------------------------

 SCF Done:  E(RHF) =  -1207.16587641     A.U. after   18 cycles
 E2 =    -0.2816292144D+01 EUMP2 =    -0.12099821685519D+04

 The electronic state is 1-A.
 Alpha  occ. eigenvalues --  -92.12824 -20.62327 -15.80765 -15.79186 -15.77423
 Alpha  occ. eigenvalues --  -15.71236 -15.70155 -11.59672 -11.50716 -11.45736
 Alpha  occ. eigenvalues --  -11.40659 -11.38584 -11.38549 -11.35287 -11.33575
 Alpha  occ. eigenvalues --  -11.33348 -11.33122 -11.32715 -11.32675  -9.12989
 Alpha  occ. eigenvalues --   -6.81152  -6.81047  -6.80853  -1.54236  -1.47439
 Alpha  occ. eigenvalues --   -1.44635  -1.38516  -1.37875  -1.34923  -1.24647
 Alpha  occ. eigenvalues --   -1.19771  -1.16676  -1.12178  -1.10634  -1.07253
 Alpha  occ. eigenvalues --   -1.04692  -0.98790  -0.97915  -0.94870  -0.94383
 Alpha  occ. eigenvalues --   -0.90859  -0.87544  -0.87101  -0.84799  -0.84510
 Alpha  occ. eigenvalues --   -0.82428  -0.81024  -0.80426  -0.77113  -0.76513
 Alpha  occ. eigenvalues --   -0.73128  -0.71483  -0.70783  -0.70690  -0.69438
 Alpha  occ. eigenvalues --   -0.68515  -0.67469  -0.64437  -0.64143  -0.63814
 Alpha  occ. eigenvalues --   -0.62555  -0.60866  -0.60206  -0.59977  -0.58737
 Alpha  occ. eigenvalues --   -0.57289  -0.53673  -0.52029  -0.51216  -0.47196
 Alpha  occ. eigenvalues --   -0.41223  -0.39032
 Alpha virt. eigenvalues --   -0.08458  -0.06217  -0.04449  -0.04038  -0.03573
 Alpha virt. eigenvalues --   -0.03281  -0.02825  -0.02342  -0.01917  -0.01606
 Alpha virt. eigenvalues --   -0.01295  -0.00667  -0.00540  -0.00181   0.00321

 Mulliken charges:
               1
     1  C    0.548767
     2  H    0.007950
     3  H   -0.133459
     4  H    0.075535
     5  C    0.411601
     6  O   -0.913993
     7  N   -0.660735
     8  H   -0.036121
     9  C   -0.368457
    10  C    1.044989
    11  C   -0.117382
    12  C    0.482390
    13  H   -0.645198
    14  H   -0.488932
    15  H   -0.691135
    16  C    1.426528
    17  H   -0.662796
    18  C    2.114597
    19  C   -1.406705
    20  N   -0.605875
    21  C    0.751082
    22  H   -0.596604
    23  S    0.458425
    24  C    0.611598
    25  N   -0.713246
    26  C    1.333596
    27  N   -0.262031
    28  H   -0.005386
    29  H    0.027110
    30  N   -0.089373
    31  H    0.097589
    32  H    0.015171
    33  H   -0.009499
 Sum of Mulliken charges =   1.00000

 Dipole moment (field-independent basis, Debye):
    X=             -9.1628    Y=              6.1939    Z=              0.2216  Tot=             11.0621
 Quadrupole moment (field-independent basis, Debye-Ang):
   XX=            -14.3679   YY=            -67.6708   ZZ=           -124.5710
   XY=            -27.0484   XZ=              0.1757   YZ=              0.8834

 Normal termination of Gaussian 16 at Sun Jul 18 17:28:13 2021.
