 Gaussian 16, Revision B.01,

 -----------------------------------------------------------
 #p b3lyp/6-31G(d) opt freq scrf=(iefpcm,read,solvent=water)
 -----------------------------------------------------------

 ---------------------------------------------
 SET_328_BBB301_conf1.geo_165_105_270 geometry
 ---------------------------------------------
 Symbolic Z-matrix:
 Charge =  1 Multiplicity = 1

 SCF Done:  E(RB3LYP) =  -788.865959849     A.U. after   12 cycles
 SCF Done:  E(RB3LYP) =  -788.902671723     A.U. after   10 cycles
 SCF Done:  E(RB3LYP) =  -788.918970804     A.U. after   10 cycles
 SCF Done:  E(RB3LYP) =  -788.922514018     A.U. after   10 cycles
 SCF Done:  E(RB3LYP) =  -788.923373167     A.U. after   10 cycles
 SCF Done:  E(RB3LYP) =  -788.923893710     A.U. after   10 cycles
 SCF Done:  E(RB3LYP) =  -788.924038373     A.U. after   10 cycles
 SCF Done:  E(RB3LYP) =  -788.924932570     A.U. after    9 cycles
 SCF Done:  E(RB3LYP) =  -788.925469173     A.U. after   10 cycles
 SCF Done:  E(RB3LYP) =  -788.925618454     A.U. after   10 cycles
 SCF Done:  E(RB3LYP) =  -788.926102253     A.U. after    9 cycles
 SCF Done:  E(RB3LYP) =  -788.926096956     A.U. after    8 cycles
 SCF Done:  E(RB3LYP) =  -788.926099637     A.U. after    8 cycles
 SCF Done:  E(RB3LYP) =  -788.926103056     A.U. after    8 cycles
 SCF Done:  E(RB3LYP) =  -788.926095768     A.U. after    8 cycles
 SCF Done:  E(RB3LYP) =  -788.926095595     A.U. after    6 cycles
 Optimization completed.
    -- Stationary point found.
 Normal termination of Gaussian 16 at Sun Jul 18 15:14:04 2021.

 --------------------------------------------------------------------
 #P Geom=AllCheck Guess=TCheck SCRF=Check GenChk RB3LYP/6-31G(d) Freq
 --------------------------------------------------------------------

 Structure from the checkpoint file:  "SET_328_BBB301_conf1.geo_165_105_270.chk"
 ---------------------------------------------
 SET_328_BBB301_conf1.geo_165_105_270 geometry
 ---------------------------------------------
 Charge =  1 Multiplicity = 1

 SCF Done:  E(RB3LYP) =  -788.926095595     A.U. after    1 cycles

  Exact polarizability: 242.302   7.310 208.817  26.421 -11.651 152.373
 Approx polarizability: 251.706   7.099 233.945  32.225 -16.557 168.281

                      1                      2                      3
                      A                      A                      A
 Frequencies --     32.7236                48.4642                56.3598
 Red. masses --      4.3438                 3.7879                 4.2590
 Frc consts  --      0.0027                 0.0052                 0.0080
 IR Inten    --      0.1003                 2.0381                 0.9214

                      4                      5                      6
                      A                      A                      A
 Frequencies --     81.4711               103.9932               121.2979
 Red. masses --      3.2121                 3.4292                 3.7782
 Frc consts  --      0.0126                 0.0218                 0.0328
 IR Inten    --      1.7301                18.7061                10.8896

                      7                      8                      9
                      A                      A                      A
 Frequencies --    135.7757               153.9389               186.7380
 Red. masses --      3.1888                 2.5300                 2.5366
 Frc consts  --      0.0346                 0.0353                 0.0521
 IR Inten    --      5.4568                34.3013                36.6022

                     10                     11                     12
                      A                      A                      A
 Frequencies --    206.1955               233.9118               239.0206
 Red. masses --      3.1127                 1.2860                 1.7068
 Frc consts  --      0.0780                 0.0415                 0.0575
 IR Inten    --     16.3452                27.8017               124.4165

                     13                     14                     15
                      A                      A                      A
 Frequencies --    256.7084               258.7832               281.7386
 Red. masses --      1.6917                 1.3501                 1.1526
 Frc consts  --      0.0657                 0.0533                 0.0539
 IR Inten    --     47.6453                96.1529                 7.0347

                     16                     17                     18
                      A                      A                      A
 Frequencies --    290.1665               304.9441               316.4556
 Red. masses --      1.1352                 1.7028                 2.5809
 Frc consts  --      0.0563                 0.0933                 0.1523
 IR Inten    --      3.0573                71.4495               108.4256

                     19                     20                     21
                      A                      A                      A
 Frequencies --    340.4592               355.2283               359.2542
 Red. masses --      3.3937                 2.3107                 2.5414
 Frc consts  --      0.2318                 0.1718                 0.1933
 IR Inten    --     14.4579                10.7019                10.5542

                     22                     23                     24
                      A                      A                      A
 Frequencies --    376.9427               412.4093               434.3422
 Red. masses --      1.7698                 3.6564                 3.6039
 Frc consts  --      0.1482                 0.3664                 0.4006
 IR Inten    --     62.1288                 5.5237                38.0341

                     25                     26                     27
                      A                      A                      A
 Frequencies --    451.2172               468.4826               486.4534
 Red. masses --      2.4152                 2.3730                 3.0557
 Frc consts  --      0.2897                 0.3069                 0.4260
 IR Inten    --      3.0921                13.4069                18.7011

                     28                     29                     30
                      A                      A                      A
 Frequencies --    505.9185               536.6542               589.1056
 Red. masses --      3.3240                 3.1999                 3.4151
 Frc consts  --      0.5013                 0.5430                 0.6983
 IR Inten    --     14.9003                 1.3207                26.6680

                     31                     32                     33
                      A                      A                      A
 Frequencies --    616.7129               656.0778               739.2087
 Red. masses --      5.4462                 5.1798                 4.4551
 Frc consts  --      1.2204                 1.3136                 1.4343
 IR Inten    --     11.4590                 9.5012                 2.6578

                     34                     35                     36
                      A                      A                      A
 Frequencies --    748.6666               781.2383               809.0957
 Red. masses --      4.6691                 4.6372                 3.1820
 Frc consts  --      1.5419                 1.6675                 1.2273
 IR Inten    --     11.2483                20.9206                 5.8807

                     37                     38                     39
                      A                      A                      A
 Frequencies --    843.8686               854.7706               885.4083
 Red. masses --      1.3873                 1.4817                 2.8640
 Frc consts  --      0.5821                 0.6378                 1.3228
 IR Inten    --     16.9037                29.5648                14.0023

                     40                     41                     42
                      A                      A                      A
 Frequencies --    915.6438               931.4301               946.6350
 Red. masses --      1.4997                 2.5449                 1.5545
 Frc consts  --      0.7408                 1.3008                 0.8207
 IR Inten    --     16.4774                21.1856                 1.0024

                     43                     44                     45
                      A                      A                      A
 Frequencies --    952.2579               961.7482               975.2717
 Red. masses --      1.6334                 2.0974                 1.2947
 Frc consts  --      0.8727                 1.1430                 0.7255
 IR Inten    --      1.4471                19.8583                 1.1706

                     46                     47                     48
                      A                      A                      A
 Frequencies --    983.2082               987.3749              1018.2373
 Red. masses --      1.5153                 1.3626                 3.1985
 Frc consts  --      0.8631                 0.7827                 1.9538
 IR Inten    --      7.5930                 2.2858                24.0421

                     49                     50                     51
                      A                      A                      A
 Frequencies --   1038.1300              1040.6968              1075.0512
 Red. masses --      4.3347                 2.2271                 1.8519
 Frc consts  --      2.7524                 1.4211                 1.2611
 IR Inten    --    149.2500                44.1111                83.2965

                     52                     53                     54
                      A                      A                      A
 Frequencies --   1088.8326              1121.2828              1135.0418
 Red. masses --      1.6684                 2.1044                 1.9065
 Frc consts  --      1.1654                 1.5588                 1.4472
 IR Inten    --     36.1118                19.0148                21.5930

                     55                     56                     57
                      A                      A                      A
 Frequencies --   1177.6736              1197.2678              1203.9852
 Red. masses --      1.4532                 1.2554                 1.3505
 Frc consts  --      1.1875                 1.0603                 1.1534
 IR Inten    --     25.9802                51.9237               129.7034

                     58                     59                     60
                      A                      A                      A
 Frequencies --   1216.2709              1225.9174              1265.2744
 Red. masses --      1.3639                 2.1905                 2.4020
 Frc consts  --      1.1888                 1.9396                 2.2656
 IR Inten    --    159.8976               113.7501               203.8938

                     61                     62                     63
                      A                      A                      A
 Frequencies --   1270.0737              1295.8848              1307.2956
 Red. masses --      2.2794                 2.0275                 2.2720
 Frc consts  --      2.1664                 2.0061                 2.2877
 IR Inten    --     45.7506                19.6212                70.6910

                     64                     65                     66
                      A                      A                      A
 Frequencies --   1322.7327              1342.3929              1356.1467
 Red. masses --      1.7311                 1.4129                 1.3928
 Frc consts  --      1.7845                 1.5001                 1.5092
 IR Inten    --      8.8469                73.2486                14.9069

                     67                     68                     69
                      A                      A                      A
 Frequencies --   1374.9268              1392.4589              1400.6673
 Red. masses --      1.7493                 1.6071                 1.4144
 Frc consts  --      1.9484                 1.8359                 1.6349
 IR Inten    --     13.3961                79.7740                 8.5287

                     70                     71                     72
                      A                      A                      A
 Frequencies --   1427.2073              1429.0123              1436.3036
 Red. masses --      1.2644                 1.3201                 1.2253
 Frc consts  --      1.5175                 1.5883                 1.4893
 IR Inten    --     47.1712                67.0192                60.0870

                     73                     74                     75
                      A                      A                      A
 Frequencies --   1438.3798              1440.6539              1456.6088
 Red. masses --      1.2232                 1.3305                 1.2309
 Frc consts  --      1.4910                 1.6270                 1.5387
 IR Inten    --     71.7548                18.7452                10.8776

                     76                     77                     78
                      A                      A                      A
 Frequencies --   1479.5596              1486.0990              1498.7378
 Red. masses --      2.8158                 1.2169                 1.0475
 Frc consts  --      3.6318                 1.5835                 1.3862
 IR Inten    --      7.0416                78.5761                 2.9733

                     79                     80                     81
                      A                      A                      A
 Frequencies --   1502.3154              1508.5988              1516.2872
 Red. masses --      1.0460                 1.0569                 1.0723
 Frc consts  --      1.3910                 1.4172                 1.4525
 IR Inten    --      0.2689                 2.8784                 9.1494

                     82                     83                     84
                      A                      A                      A
 Frequencies --   1527.5758              1534.4973              1537.7617
 Red. masses --      1.0694                 1.0698                 2.1081
 Frc consts  --      1.4703                 1.4841                 2.9371
 IR Inten    --      0.6020                26.9720               147.9417

                     85                     86                     87
                      A                      A                      A
 Frequencies --   1543.9094              1548.8859              1636.6549
 Red. masses --      1.0927                 1.3177                 1.0698
 Frc consts  --      1.5346                 1.8626                 1.6883
 IR Inten    --      7.8996                23.5830               115.6293

                     88                     89                     90
                      A                      A                      A
 Frequencies --   1642.3464              1675.0282              3021.8741
 Red. masses --      5.8433                 6.1284                 1.0712
 Frc consts  --      9.2863                10.1307                 5.7635
 IR Inten    --     53.2611                49.5821               112.2524

                     91                     92                     93
                      A                      A                      A
 Frequencies --   3051.5605              3073.0039              3076.8972
 Red. masses --      1.0837                 1.0352                 1.0358
 Frc consts  --      5.9455                 5.7598                 5.7777
 IR Inten    --     65.7910                26.1050                27.7976

                     94                     95                     96
                      A                      A                      A
 Frequencies --   3083.0073              3125.9386              3144.4669
 Red. masses --      1.0375                 1.0931                 1.1029
 Frc consts  --      5.8101                 6.2934                 6.4250
 IR Inten    --      1.8333                43.8870                28.8622

                     97                     98                     99
                      A                      A                      A
 Frequencies --   3147.8437              3150.4936              3152.1762
 Red. masses --      1.0815                 1.1017                 1.0903
 Frc consts  --      6.3141                 6.4428                 6.3831
 IR Inten    --      6.8099                 8.3919                18.5910

                    100                    101                    102
                      A                      A                      A
 Frequencies --   3152.8863              3156.2349              3163.6833
 Red. masses --      1.1004                 1.0989                 1.0988
 Frc consts  --      6.4447                 6.4497                 6.4797
 IR Inten    --     20.8423                60.5690                47.7302

                    103                    104                    105
                      A                      A                      A
 Frequencies --   3183.6656              3210.1319              3217.2628
 Red. masses --      1.0898                 1.0886                 1.1091
 Frc consts  --      6.5080                 6.6093                 6.7640
 IR Inten    --     25.1381                11.9646                 9.3828

                    106                    107                    108
                      A                      A                      A
 Frequencies --   3229.2884              3385.8654              3430.1832
 Red. masses --      1.0932                 1.0545                 1.0946
 Frc consts  --      6.7167                 7.1226                 7.5882
 IR Inten    --     14.3537               129.6170               179.3100

                    109                    110                    111
                      A                      A                      A
 Frequencies --   3729.1224              3734.8476              3736.6581
 Red. masses --      1.0664                 1.0657                 1.0666
 Frc consts  --      8.7378                 8.7588                 8.7746
 IR Inten    --     73.0439               190.8891               127.6463

 - Thermochemistry -
 -------------------
 Temperature   298.150 Kelvin.  Pressure   1.00000 Atm.
 Atom     1 has atomic number  6 and mass  12.00000

 Molecular mass:   240.15997 amu.
 Principal axes and moments of inertia in atomic units:
                           1         2         3
     Eigenvalues --  1872.60270********************
           X            0.99999  -0.00140  -0.00323
           Y            0.00146   0.99983   0.01858
           Z            0.00320  -0.01859   0.99982
 This molecule is an asymmetric top.
 Rotational symmetry number  1.
 Warning -- assumption of classical behavior for rotation
           may cause significant error
 Rotational temperatures (Kelvin)      0.04625     0.00840     0.00800
 Rotational constants (GHZ):           0.96376     0.17506     0.16670
 Zero-point vibrational energy     907388.6 (Joules/Mol)
                                  216.87108 (Kcal/Mol)
 Warning -- explicit consideration of  31 degrees of freedom as
           vibrations may cause significant error
 Vibrational temperatures:     47.08    69.73    81.09   117.22   149.62
          (Kelvin)            174.52   195.35   221.48   268.67   296.67
                              336.55   343.90   369.35   372.33   405.36
                              417.48   438.75   455.31   489.84   511.09
                              516.89   542.34   593.36   624.92   649.20
                              674.04   699.90   727.90   772.13   847.59
                              887.31   943.95  1063.56  1077.16  1124.03
                             1164.11  1214.14  1229.82  1273.91  1317.41
                             1340.12  1362.00  1370.09  1383.74  1403.20
                             1414.62  1420.61  1465.02  1493.64  1497.33
                             1546.76  1566.59  1613.28  1633.07  1694.41
                             1722.60  1732.27  1749.94  1763.82  1820.45
                             1827.35  1864.49  1880.91  1903.12  1931.40
                             1951.19  1978.21  2003.44  2015.25  2053.43
                             2056.03  2066.52  2069.51  2072.78  2095.74
                             2128.76  2138.17  2156.35  2161.50  2170.54
                             2181.60  2197.84  2207.80  2212.50  2221.34
                             2228.50  2354.78  2362.97  2409.99  4347.80
                             4390.51  4421.37  4426.97  4435.76  4497.53
                             4524.19  4529.05  4532.86  4535.28  4536.30
                             4541.12  4551.83  4580.58  4618.66  4628.92
                             4646.23  4871.51  4935.27  5365.38  5373.61
                             5376.22

 Zero-point correction=                           0.345606 (Hartree/Particle)
 Thermal correction to Energy=                    0.364216
 Thermal correction to Enthalpy=                  0.365160
 Thermal correction to Gibbs Free Energy=         0.299358
 Sum of electronic and zero-point Energies=           -788.580490
 Sum of electronic and thermal Energies=              -788.561880
 Sum of electronic and thermal Enthalpies=            -788.560936
 Sum of electronic and thermal Free Energies=         -788.626738

                     E (Thermal)             CV                S
                      KCal/Mol        Cal/Mol-Kelvin    Cal/Mol-Kelvin
 Total                  228.549             71.283            138.492
 Electronic               0.000              0.000              0.000
 Translational            0.889              2.981             42.330
 Rotational               0.889              2.981             33.702
 Vibrational            226.771             65.321             62.461
 Vibration     1          0.594              1.983              5.657
 Vibration     2          0.595              1.978              4.879
 Vibration     3          0.596              1.975              4.581
 Vibration     4          0.600              1.962              3.855
 Vibration     5          0.605              1.946              3.378
 Vibration     6          0.609              1.931              3.080
 Vibration     7          0.614              1.918              2.863
 Vibration     8          0.619              1.898              2.623
 Vibration     9          0.632              1.858              2.260
 Vibration    10          0.641              1.831              2.077
 Vibration    11          0.654              1.789              1.849
 Vibration    12          0.657              1.781              1.810
 Vibration    13          0.666              1.751              1.684
 Vibration    14          0.668              1.748              1.670
 Vibration    15          0.681              1.707              1.523
 Vibration    16          0.686              1.692              1.473
 Vibration    17          0.696              1.664              1.390
 Vibration    18          0.703              1.642              1.328
 Vibration    19          0.720              1.595              1.210
 Vibration    20          0.731              1.565              1.143
 Vibration    21          0.734              1.556              1.125
 Vibration    22          0.747              1.519              1.051
 Vibration    23          0.776              1.443              0.918
 Vibration    24          0.795              1.395              0.845
 Vibration    25          0.810              1.358              0.792
 Vibration    26          0.826              1.320              0.742
 Vibration    27          0.842              1.280              0.693
 Vibration    28          0.861              1.237              0.643
 Vibration    29          0.892              1.169              0.573
 Vibration    30          0.946              1.055              0.469
 Vibration    31          0.976              0.997              0.422

                           ! Non-Optimized Parameters !
 Normal termination of Gaussian 16 at Sun Jul 18 15:25:44 2021.

 ----------------------------------------------------------------------
 #p b3lyp/6-31G(d) scrf=(iefpcm,read,solvent=water) geom=allcheck guess
 =read
 ----------------------------------------------------------------------

 Structure from the checkpoint file:  "SET_328_BBB301_conf1.geo_165_105_270.chk"
 ---------------------------------------------
 SET_328_BBB301_conf1.geo_165_105_270 geometry
 ---------------------------------------------
 Charge =  1 Multiplicity = 1

 SCF Done:  E(RB3LYP) =  -788.926095595     A.U. after    1 cycles
 Normal termination of Gaussian 16 at Sun Jul 18 15:25:55 2021.

 -----------------------------
 #p B3LYP/6-31G* geom=allcheck
 -----------------------------

 Structure from the checkpoint file:  "SET_328_BBB301_conf1.geo_165_105_270.chk"
 ---------------------------------------------
 SET_328_BBB301_conf1.geo_165_105_270 geometry
 ---------------------------------------------
 Charge =  1 Multiplicity = 1

 SCF Done:  E(RB3LYP) =  -788.813857130     A.U. after   14 cycles
 Normal termination of Gaussian 16 at Sun Jul 18 15:26:38 2021.
 Gaussian 16:  ES64L-G16RevB.01 20-Dec-2017

 --------------------------------------------------------
 #p mp2/aug-cc-pVDZ scf=tight maxdisk=180GB geom=allcheck
 --------------------------------------------------------

 Structure from the checkpoint file:  "SET_328_BBB301_conf1.geo_165_105_270.chk"
 ---------------------------------------------
 SET_328_BBB301_conf1.geo_165_105_270 geometry
 ---------------------------------------------
 Charge =  1 Multiplicity = 1

                         Standard orientation:
 ---------------------------------------------------------------------
 Center     Atomic      Atomic             Coordinates (Angstroms)
 Number     Number       Type             X           Y           Z
 ---------------------------------------------------------------------
      1          6           0        3.898941   -1.685524   -1.143402
      2          1           0        4.763595   -1.866634   -1.786284
      3          1           0        3.010790   -1.659608   -1.779247
      4          1           0        3.810636   -2.527184   -0.451563
      5          6           0        4.105836   -0.368557   -0.392688
      6          6           0        5.363041   -0.423897    0.483517
      7          1           0        5.485946    0.497741    1.059692
      8          1           0        6.240473   -0.542793   -0.156889
      9          1           0        5.332143   -1.270755    1.176551
     10          6           0        4.158466    0.828255   -1.345249
     11          1           0        4.245815    1.770723   -0.796004
     12          1           0        3.280124    0.878956   -1.991383
     13          1           0        5.036604    0.727958   -1.987170
     14          7           0        2.928562   -0.172644    0.572292
     15          1           0        3.078424    0.693970    1.111724
     16          6           0        1.549990   -0.096027   -0.008148
     17          1           0        1.305482   -1.060212   -0.447939
     18          1           0        1.559388    0.667379   -0.784525
     19          6           0        0.552943    0.282098    1.087088
     20          8           0        1.062140    1.486298    1.649418
     21          1           0        0.544641    1.689133    2.447357
     22          1           0        0.542207   -0.515849    1.839892
     23          6           0       -0.839818    0.441051    0.507556
     24          6           0       -1.707168   -0.648247    0.407851
     25          1           0       -1.392725   -1.621276    0.777905
     26          6           0       -2.981067   -0.541623   -0.163479
     27          6           0       -3.879950   -1.756691   -0.220574
     28          8           0       -4.794737   -1.851265    0.874940
     29          1           0       -5.389280   -1.083177    0.826058
     30          1           0       -3.263261   -2.656122   -0.164695
     31          1           0       -4.417115   -1.800544   -1.178436
     32          6           0       -3.391856    0.721868   -0.632825
     33          8           0       -4.607542    0.963182   -1.203101
     34          1           0       -5.163909    0.165650   -1.206850
     35          6           0       -2.533228    1.823207   -0.534866
     36          1           0       -2.877644    2.784126   -0.904181
     37          6           0       -1.271096    1.682551    0.028501
     38          1           0       -0.611621    2.538668    0.114855
     39          1           0        2.950257   -0.938157    1.265344
 ---------------------------------------------------------------------

 SCF Done:  E(RHF) =  -784.029978000     A.U. after   15 cycles
 E2 =    -0.2633824354D+01 EUMP2 =    -0.78666380235462D+03

 The electronic state is 1-A.
 Alpha  occ. eigenvalues --  -20.72273 -20.70148 -20.66335 -15.84499 -11.45887
 Alpha  occ. eigenvalues --  -11.44952 -11.44383 -11.41700 -11.38998 -11.37937
 Alpha  occ. eigenvalues --  -11.37877 -11.37671 -11.36043 -11.35673 -11.35499
 Alpha  occ. eigenvalues --  -11.34953 -11.34028  -1.52534  -1.50874  -1.46902
 Alpha  occ. eigenvalues --   -1.45315  -1.26985  -1.24768  -1.18402  -1.14754
 Alpha  occ. eigenvalues --   -1.11889  -1.10162  -1.09407  -1.02835  -1.01108
 Alpha  occ. eigenvalues --   -0.95355  -0.94277  -0.92775  -0.91329  -0.85545
 Alpha  occ. eigenvalues --   -0.83570  -0.82911  -0.82154  -0.79424  -0.78187
 Alpha  occ. eigenvalues --   -0.76347  -0.75770  -0.74955  -0.73264  -0.72449
 Alpha  occ. eigenvalues --   -0.71179  -0.70358  -0.69687  -0.69107  -0.69007
 Alpha  occ. eigenvalues --   -0.68348  -0.68016  -0.67562  -0.67080  -0.66673
 Alpha  occ. eigenvalues --   -0.63840  -0.63686  -0.63399  -0.62638  -0.60004
 Alpha  occ. eigenvalues --   -0.58708  -0.57965  -0.54418  -0.44647  -0.42074
 Alpha virt. eigenvalues --   -0.07780  -0.05744  -0.05643  -0.04887  -0.03638
 Alpha virt. eigenvalues --   -0.03547  -0.03262  -0.03131  -0.03022  -0.02332
 Alpha virt. eigenvalues --   -0.01492  -0.01312  -0.01035  -0.00782  -0.00303

 Mulliken charges:
               1
     1  C    1.308617
     2  H    0.009000
     3  H   -0.029281
     4  H   -0.021756
     5  C   -3.424057
     6  C    1.294912
     7  H    0.001530
     8  H    0.036807
     9  H   -0.007722
    10  C    1.313731
    11  H   -0.000257
    12  H   -0.026275
    13  H   -0.012073
    14  N   -0.756792
    15  H    0.284827
    16  C    0.765430
    17  H   -0.255944
    18  H   -0.214559
    19  C    1.512723
    20  O   -0.898043
    21  H    0.201717
    22  H   -0.256817
    23  C    0.755998
    24  C    0.077630
    25  H   -0.758390
    26  C    0.194589
    27  C    1.238554
    28  O   -0.677445
    29  H    0.170975
    30  H   -0.297185
    31  H   -0.027479
    32  C    0.333689
    33  O   -0.939087
    34  H    0.160719
    35  C    0.343529
    36  H   -0.526597
    37  C    0.628019
    38  H   -0.741506
    39  H    0.238273
 Sum of Mulliken charges =   1.00000

 Dipole moment (field-independent basis, Debye):
    X=             10.9383    Y=             -1.3987    Z=              0.6595  Tot=             11.0470
 Quadrupole moment (field-independent basis, Debye-Ang):
   XX=            -35.7392   YY=            -97.3508   ZZ=            -95.3393
   XY=             -6.1489   XZ=              6.0020   YZ=              4.6175

 Normal termination of Gaussian 16 at Sun Jul 18 16:02:59 2021.
