 Gaussian 16, Revision B.01,

 -----------------------------------------------------------
 #p b3lyp/6-31G(d) opt freq scrf=(iefpcm,read,solvent=water)
 -----------------------------------------------------------

 ---------------------------------------------
 SET_328_BBB256_conf1.geo_180_075_255 geometry
 ---------------------------------------------
 Symbolic Z-matrix:
 Charge =  1 Multiplicity = 1

 SCF Done:  E(RB3LYP) =  -422.034604068     A.U. after   12 cycles
 SCF Done:  E(RB3LYP) =  -422.052985155     A.U. after   11 cycles
 SCF Done:  E(RB3LYP) =  -422.056245440     A.U. after   11 cycles
 SCF Done:  E(RB3LYP) =  -422.056693875     A.U. after   10 cycles
 SCF Done:  E(RB3LYP) =  -422.056874274     A.U. after   10 cycles
 SCF Done:  E(RB3LYP) =  -422.056930580     A.U. after    9 cycles
 SCF Done:  E(RB3LYP) =  -422.057012071     A.U. after   10 cycles
 SCF Done:  E(RB3LYP) =  -422.057084322     A.U. after   10 cycles
 SCF Done:  E(RB3LYP) =  -422.057167445     A.U. after   10 cycles
 SCF Done:  E(RB3LYP) =  -422.056682754     A.U. after   13 cycles
 SCF Done:  E(RB3LYP) =  -422.060245555     A.U. after    9 cycles
 SCF Done:  E(RB3LYP) =  -422.060245280     A.U. after    9 cycles
 SCF Done:  E(RB3LYP) =  -422.060246120     A.U. after    7 cycles
 SCF Done:  E(RB3LYP) =  -422.060245289     A.U. after    7 cycles
 SCF Done:  E(RB3LYP) =  -422.060246218     A.U. after    7 cycles
 SCF Done:  E(RB3LYP) =  -422.060245671     A.U. after    7 cycles
 Optimization completed.
    -- Stationary point found.
 Normal termination of Gaussian 16 at Sun Jul 18 14:14:29 2021.

 --------------------------------------------------------------------
 #P Geom=AllCheck Guess=TCheck SCRF=Check GenChk RB3LYP/6-31G(d) Freq
 --------------------------------------------------------------------

 Structure from the checkpoint file:  "SET_328_BBB256_conf1.geo_180_075_255.chk"
 ---------------------------------------------
 SET_328_BBB256_conf1.geo_180_075_255 geometry
 ---------------------------------------------
 Charge =  1 Multiplicity = 1

 SCF Done:  E(RB3LYP) =  -422.060245671     A.U. after    1 cycles

  Exact polarizability: 152.559  -4.116 139.119  -9.611  -2.313  70.671
 Approx polarizability: 163.224  -3.709 159.502 -12.140  -3.359  79.712

                      1                      2                      3
                      A                      A                      A
 Frequencies --     30.7762                96.5595               136.6183
 Red. masses --      3.8770                 3.1038                 1.8400
 Frc consts  --      0.0022                 0.0171                 0.0202
 IR Inten    --      4.5164                10.7196                 6.1887

                      4                      5                      6
                      A                      A                      A
 Frequencies --    169.6242               236.0764               254.6986
 Red. masses --      1.9691                 1.5044                 3.3021
 Frc consts  --      0.0334                 0.0494                 0.1262
 IR Inten    --     19.0486                19.2240                14.7455

                      7                      8                      9
                      A                      A                      A
 Frequencies --    265.8178               313.5723               415.2828
 Red. masses --      2.1064                 3.2471                 3.4861
 Frc consts  --      0.0877                 0.1881                 0.3542
 IR Inten    --      4.0812                12.6811                 6.3558

                     10                     11                     12
                      A                      A                      A
 Frequencies --    463.8132               507.8904               599.7284
 Red. masses --      2.3372                 3.7393                 2.9251
 Frc consts  --      0.2962                 0.5683                 0.6199
 IR Inten    --      3.0974                 2.0821                 2.8373

                     13                     14                     15
                      A                      A                      A
 Frequencies --    644.3451               758.3949               774.9952
 Red. masses --      6.8267                 4.1670                 1.3601
 Frc consts  --      1.6699                 1.4121                 0.4813
 IR Inten    --      7.8548                 1.7421                37.9780

                     16                     17                     18
                      A                      A                      A
 Frequencies --    794.5626               829.7327               863.4147
 Red. masses --      2.3741                 2.1531                 1.2702
 Frc consts  --      0.8831                 0.8733                 0.5579
 IR Inten    --     31.0102                10.5665                24.8589

                     19                     20                     21
                      A                      A                      A
 Frequencies --    915.7445               962.1666               982.5910
 Red. masses --      1.2951                 1.7364                 1.3978
 Frc consts  --      0.6399                 0.9471                 0.7951
 IR Inten    --      0.3929                 9.0964                 0.9044

                     22                     23                     24
                      A                      A                      A
 Frequencies --    998.6513              1022.7013              1022.8962
 Red. masses --      1.9932                 2.1115                 2.2744
 Frc consts  --      1.1712                 1.3012                 1.4021
 IR Inten    --     13.2182                16.2838                16.7354

                     25                     26                     27
                      A                      A                      A
 Frequencies --   1041.1199              1064.2668              1077.0980
 Red. masses --      2.4323                 2.6203                 2.2275
 Frc consts  --      1.5534                 1.7486                 1.5226
 IR Inten    --      1.3573                 3.9766                 6.9877

                     28                     29                     30
                      A                      A                      A
 Frequencies --   1123.3595              1154.1737              1176.8778
 Red. masses --      1.5304                 1.2866                 1.3994
 Frc consts  --      1.1378                 1.0098                 1.1420
 IR Inten    --     27.6350                 7.2981                16.6291

                     31                     32                     33
                      A                      A                      A
 Frequencies --   1184.8784              1238.2655              1268.1884
 Red. masses --      1.1114                 2.1211                 1.5360
 Frc consts  --      0.9193                 1.9162                 1.4555
 IR Inten    --      7.0680                 6.7239                 3.9368

                     34                     35                     36
                      A                      A                      A
 Frequencies --   1306.3779              1316.2725              1342.2244
 Red. masses --      2.7521                 1.9303                 1.3676
 Frc consts  --      2.7672                 1.9705                 1.4517
 IR Inten    --      2.9986                21.4719                19.1449

                     37                     38                     39
                      A                      A                      A
 Frequencies --   1393.7103              1395.5077              1428.6997
 Red. masses --      1.4809                 1.4095                 1.1051
 Frc consts  --      1.6948                 1.6173                 1.3290
 IR Inten    --      3.3783                21.0637                38.5324

                     40                     41                     42
                      A                      A                      A
 Frequencies --   1460.4129              1478.9793              1483.6997
 Red. masses --      1.2653                 1.4079                 1.1472
 Frc consts  --      1.5900                 1.8144                 1.4879
 IR Inten    --    184.0166                36.1857                23.6767

                     43                     44                     45
                      A                      A                      A
 Frequencies --   1489.8678              1514.0732              1516.0361
 Red. masses --      1.6156                 1.1246                 1.0405
 Frc consts  --      2.1129                 1.5189                 1.4090
 IR Inten    --     85.2872                24.0568                19.4741

                     46                     47                     48
                      A                      A                      A
 Frequencies --   1522.3826              1524.9221              1629.6638
 Red. masses --      1.3588                 1.4177                 5.8124
 Frc consts  --      1.8554                 1.9423                 9.0951
 IR Inten    --     28.3678                27.9165                31.5526

                     49                     50                     51
                      A                      A                      A
 Frequencies --   1652.6421              1654.5342              3055.5772
 Red. masses --      1.0687                 5.4816                 1.0703
 Frc consts  --      1.7198                 8.8412                 5.8876
 IR Inten    --     89.7987                80.4877                17.8823

                     52                     53                     54
                      A                      A                      A
 Frequencies --   3119.5854              3121.7014              3131.8494
 Red. masses --      1.0417                 1.0545                 1.0871
 Frc consts  --      5.9731                 6.0545                 6.2826
 IR Inten    --     91.0240                 3.0155                34.5837

                     55                     56                     57
                      A                      A                      A
 Frequencies --   3175.2662              3188.4806              3201.8270
 Red. masses --      1.0939                 1.0918                 1.0899
 Frc consts  --      6.4982                 6.5399                 6.5832
 IR Inten    --    420.9264               253.5560                37.4661

                     58                     59                     60
                      A                      A                      A
 Frequencies --   3214.8240              3216.3361              3219.7951
 Red. masses --      1.1073                 1.0887                 1.1073
 Frc consts  --      6.7426                 6.6355                 6.7635
 IR Inten    --      6.5503                 9.4903                14.6471

                     61                     62                     63
                      A                      A                      A
 Frequencies --   3228.6174              3243.2320              3443.5885
 Red. masses --      1.0934                 1.0973                 1.0783
 Frc consts  --      6.7154                 6.8004                 7.5334
 IR Inten    --     26.7854                14.6415               174.4218

 - Thermochemistry -
 -------------------
 Temperature   298.150 Kelvin.  Pressure   1.00000 Atm.
 Atom     1 has atomic number  6 and mass  12.00000

 Molecular mass:   137.10787 amu.
 Principal axes and moments of inertia in atomic units:
                           1         2         3
     Eigenvalues --   603.133872369.884932866.42777
           X            0.99998   0.00670   0.00103
           Y           -0.00671   0.99997   0.00276
           Z           -0.00101  -0.00276   1.00000
 This molecule is an asymmetric top.
 Rotational symmetry number  1.
 Warning -- assumption of classical behavior for rotation
           may cause significant error
 Rotational temperatures (Kelvin)      0.14361     0.03655     0.03022
 Rotational constants (GHZ):           2.99227     0.76153     0.62961
 Zero-point vibrational energy     544657.2 (Joules/Mol)
                                  130.17619 (Kcal/Mol)
 Warning -- explicit consideration of  12 degrees of freedom as
           vibrations may cause significant error
 Vibrational temperatures:     44.28   138.93   196.56   244.05   339.66
          (Kelvin)            366.45   382.45   451.16   597.50   667.32
                              730.74   862.88   927.07  1091.16  1115.05
                             1143.20  1193.80  1242.26  1317.55  1384.34
                             1413.73  1436.84  1471.44  1471.72  1497.94
                             1531.24  1549.70  1616.26  1660.60  1693.26
                             1704.78  1781.59  1824.64  1879.59  1893.82
                             1931.16  2005.24  2007.82  2055.58  2101.21
                             2127.92  2134.71  2143.59  2178.41  2181.24
                             2190.37  2194.02  2344.72  2377.78  2380.51
                             4396.29  4488.39  4491.43  4506.03  4568.50
                             4587.51  4606.71  4625.41  4627.59  4632.57
                             4645.26  4666.29  4954.56

 Zero-point correction=                           0.207449 (Hartree/Particle)
 Thermal correction to Energy=                    0.217013
 Thermal correction to Enthalpy=                  0.217957
 Thermal correction to Gibbs Free Energy=         0.171854
 Sum of electronic and zero-point Energies=           -421.852797
 Sum of electronic and thermal Energies=              -421.843233
 Sum of electronic and thermal Enthalpies=            -421.842288
 Sum of electronic and thermal Free Energies=         -421.888392

                     E (Thermal)             CV                S
                      KCal/Mol        Cal/Mol-Kelvin    Cal/Mol-Kelvin
 Total                  136.178             35.888             97.033
 Electronic               0.000              0.000              0.000
 Translational            0.889              2.981             40.659
 Rotational               0.889              2.981             29.795
 Vibrational            134.400             29.926             26.579
 Vibration     1          0.594              1.984              5.779
 Vibration     2          0.603              1.952              3.523
 Vibration     3          0.614              1.917              2.851
 Vibration     4          0.625              1.880              2.440
 Vibration     5          0.655              1.786              1.832
 Vibration     6          0.665              1.755              1.698
 Vibration     7          0.672              1.736              1.623
 Vibration     8          0.701              1.648              1.343
 Vibration     9          0.779              1.437              0.908
 Vibration    10          0.821              1.330              0.755
 Vibration    11          0.863              1.233              0.639
 Vibration    12          0.958              1.032              0.450

 Optimization completed.
    -- Stationary point found.
 Normal termination of Gaussian 16 at Sun Jul 18 14:17:46 2021.

 ----------------------------------------------------------------------
 #p b3lyp/6-31G(d) scrf=(iefpcm,read,solvent=water) geom=allcheck guess
 =read
 ----------------------------------------------------------------------

 Structure from the checkpoint file:  "SET_328_BBB256_conf1.geo_180_075_255.chk"
 ---------------------------------------------
 SET_328_BBB256_conf1.geo_180_075_255 geometry
 ---------------------------------------------
 Charge =  1 Multiplicity = 1

 SCF Done:  E(RB3LYP) =  -422.060245671     A.U. after    1 cycles
 Normal termination of Gaussian 16 at Sun Jul 18 14:17:51 2021.

 -----------------------------
 #p B3LYP/6-31G* geom=allcheck
 -----------------------------

 Structure from the checkpoint file:  "SET_328_BBB256_conf1.geo_180_075_255.chk"
 ---------------------------------------------
 SET_328_BBB256_conf1.geo_180_075_255 geometry
 ---------------------------------------------
 Charge =  1 Multiplicity = 1

 SCF Done:  E(RB3LYP) =  -421.971034816     A.U. after   14 cycles
 Normal termination of Gaussian 16 at Sun Jul 18 14:18:09 2021.
 Gaussian 16:  ES64L-G16RevB.01 20-Dec-2017

 --------------------------------------------------------
 #p mp2/aug-cc-pVDZ scf=tight maxdisk=180GB geom=allcheck
 --------------------------------------------------------

 Structure from the checkpoint file:  "SET_328_BBB256_conf1.geo_180_075_255.chk"
 ---------------------------------------------
 SET_328_BBB256_conf1.geo_180_075_255 geometry
 ---------------------------------------------
 Charge =  1 Multiplicity = 1

                         Standard orientation:
 ---------------------------------------------------------------------
 Center     Atomic      Atomic             Coordinates (Angstroms)
 Number     Number       Type             X           Y           Z
 ---------------------------------------------------------------------
      1          6           0       -3.507521   -0.952333   -0.300010
      2          1           0       -3.227532   -1.246641   -1.310192
      3          1           0       -4.342246   -0.253770   -0.328852
      4          1           0       -3.772759   -1.829719    0.286512
      5          7           0       -2.340421   -0.289067    0.344142
      6          1           0       -1.518523   -0.932543    0.381973
      7          6           0       -1.863935    0.950540   -0.358080
      8          1           0       -2.670717    1.681355   -0.311655
      9          1           0       -1.696490    0.672938   -1.399959
     10          6           0       -0.590031    1.498275    0.287000
     11          1           0       -0.773705    1.676449    1.355118
     12          1           0       -0.388444    2.477424   -0.153410
     13          6           0        0.631439    0.615971    0.123867
     14          7           0        0.446010   -0.714140    0.216004
     15          6           0        1.509846   -1.522027    0.101866
     16          1           0        1.310907   -2.587060    0.178345
     17          6           0        2.804882   -1.053215   -0.100714
     18          1           0        3.632072   -1.748244   -0.181519
     19          6           0        2.998214    0.324626   -0.200075
     20          1           0        3.989040    0.733699   -0.365064
     21          6           0        1.897200    1.170204   -0.090670
     22          1           0        2.009196    2.246103   -0.171296
     23          1           0       -2.570487   -0.059791    1.319874
 ---------------------------------------------------------------------

 SCF Done:  E(RHF) =  -419.269248365     A.U. after   14 cycles
 E2 =    -0.1460601104D+01 EUMP2 =    -0.42072984946837D+03

 The electronic state is 1-A.
 Alpha  occ. eigenvalues --  -15.84808 -15.71315 -11.45599 -11.45012 -11.42609
 Alpha  occ. eigenvalues --  -11.41111 -11.40104 -11.38764 -11.37094 -11.36663
 Alpha  occ. eigenvalues --   -1.47721  -1.39833  -1.22994  -1.21403  -1.15804
 Alpha  occ. eigenvalues --   -1.11209  -1.04673  -0.99094  -0.95784  -0.93883
 Alpha  occ. eigenvalues --   -0.84524  -0.83485  -0.82367  -0.79185  -0.78081
 Alpha  occ. eigenvalues --   -0.75552  -0.73516  -0.73008  -0.70976  -0.70447
 Alpha  occ. eigenvalues --   -0.69060  -0.67947  -0.65623  -0.63896  -0.55948
 Alpha  occ. eigenvalues --   -0.51008  -0.46728
 Alpha virt. eigenvalues --   -0.08277  -0.06302  -0.06194  -0.05350  -0.03870
 Alpha virt. eigenvalues --   -0.03610  -0.03462  -0.03330  -0.02951  -0.01916
 Alpha virt. eigenvalues --   -0.01780  -0.01515  -0.00978  -0.00337   0.00326

 Mulliken charges:
               1
     1  C    0.783049
     2  H   -0.079762
     3  H   -0.071300
     4  H   -0.125402
     5  N   -0.623393
     6  H    0.235965
     7  C    1.026249
     8  H   -0.218247
     9  H   -0.244615
    10  C    0.328650
    11  H    0.033666
    12  H    0.005729
    13  C   -0.128867
    14  N   -0.619265
    15  C    0.448540
    16  H   -0.408055
    17  C    0.833832
    18  H   -0.401795
    19  C   -0.155515
    20  H   -0.389784
    21  C    1.119098
    22  H   -0.566436
    23  H    0.217659
 Sum of Mulliken charges =   1.00000

 Dipole moment (field-independent basis, Debye):
    X=             -6.2551    Y=              0.0927    Z=              0.4212  Tot=              6.2699
 Quadrupole moment (field-independent basis, Debye-Ang):
   XX=            -16.3807   YY=            -47.1771   ZZ=            -58.7221
   XY=              2.0956   XZ=             -3.0198   YZ=             -0.3067

 Normal termination of Gaussian 16 at Sun Jul 18 14:21:50 2021.
