 Gaussian 09, Revision D.01,

 -----------------
 #p b3lyp/6-31G(d)
 -----------------

 ------------------------------------------
 SET_328_BBB282_conf1_geo_000_090.n.pdb.xyz
 ------------------------------------------
 Symbolic Z-matrix:
 Charge =  0 Multiplicity = 1

 SCF Done:  E(RB3LYP) =  -799.720724841     A.U. after   16 cycles
 Normal termination of Gaussian 09 at Sun Nov 22 16:10:07 2020.
 Gaussian 09:  AM64L-G09RevD.01 24-Apr-2013

 ----------------------------------------------------------------------
 #p b3lyp/6-31G(d) scrf=(iefpcm,read,solvent=Water) geom=allcheck guess
 =read
 ----------------------------------------------------------------------

 Structure from the checkpoint file:  "SET_328_BBB282_conf1_geo_000_090.n.pdb.xyz.mst.n.w.chk"
 ------------------------------------------
 SET_328_BBB282_conf1_geo_000_090.n.pdb.xyz
 ------------------------------------------
 Charge =  0 Multiplicity = 1

                         Standard orientation:
 ---------------------------------------------------------------------
 Center     Atomic      Atomic             Coordinates (Angstroms)
 Number     Number       Type             X           Y           Z
 ---------------------------------------------------------------------
      1          6           0       -1.059774    3.276647    0.905071
      2          1           0       -0.179187    3.371731    1.544651
      3          1           0       -1.813289    2.685904    1.431017
      4          1           0       -1.466859    4.275973    0.730929
      5          6           0       -0.700741    2.639689   -0.432596
      6          1           0        0.046608    3.232154   -0.958680
      7          1           0       -1.578939    2.542438   -1.068227
      8          7           0       -0.123715    1.288050   -0.281873
      9          6           0        1.210044    1.133056   -0.235626
     10          1           0        1.791713    2.039754   -0.344492
     11          6           0        1.871052   -0.066816   -0.067590
     12          6           0        3.344201    0.042269   -0.050087
     13          8           0        3.991033   -1.115024    0.166599
     14          1           0        4.948692   -0.907855    0.157196
     15          8           0        3.947115    1.098193   -0.210935
     16          6           0        1.105973   -1.301417    0.066931
     17          8           0        1.581517   -2.438169    0.207304
     18          6           0       -0.359669   -1.098467    0.018637
     19          6           0       -1.237237   -2.184514    0.140660
     20          1           0       -0.813725   -3.173908    0.269807
     21          6           0       -2.604576   -1.976035    0.095204
     22          1           0       -3.301689   -2.799600    0.188854
     23          6           0       -3.089791   -0.666082   -0.076186
     24          6           0       -4.565070   -0.378420   -0.130146
     25          1           0       -4.823815    0.123380   -1.067088
     26          1           0       -4.852676    0.292048    0.686195
     27          1           0       -5.150665   -1.295649   -0.049751
     28          7           0       -2.269397    0.385035   -0.195212
     29          6           0       -0.949698    0.170427   -0.148365
 ---------------------------------------------------------------------

 SCF Done:  E(RB3LYP) =  -799.741059105     A.U. after   12 cycles

 The electronic state is 1-A.
 Alpha  occ. eigenvalues --  -19.18948 -19.13378 -19.11805 -14.41302 -14.34192
 Alpha  occ. eigenvalues --  -10.32416 -10.28011 -10.27338 -10.26016 -10.24719
 Alpha  occ. eigenvalues --  -10.23194 -10.21456 -10.20906 -10.20490 -10.20092
 Alpha  occ. eigenvalues --  -10.18458 -10.18174  -1.10069  -1.02296  -1.01328
 Alpha  occ. eigenvalues --   -1.00597  -0.94741  -0.83194  -0.80434  -0.79903
 Alpha  occ. eigenvalues --   -0.75899  -0.72152  -0.68729  -0.65854  -0.64124
 Alpha  occ. eigenvalues --   -0.61608  -0.59949  -0.55605  -0.53501  -0.52450
 Alpha  occ. eigenvalues --   -0.48664  -0.48245  -0.47818  -0.46748  -0.45231
 Alpha  occ. eigenvalues --   -0.44981  -0.44389  -0.44104  -0.42910  -0.41407
 Alpha  occ. eigenvalues --   -0.40555  -0.40052  -0.39380  -0.38892  -0.38055
 Alpha  occ. eigenvalues --   -0.37714  -0.37374  -0.35911  -0.35144  -0.31603
 Alpha  occ. eigenvalues --   -0.29280  -0.28075  -0.28019  -0.26819  -0.24569
 Alpha  occ. eigenvalues --   -0.23124
 Alpha virt. eigenvalues --   -0.06098  -0.04717  -0.00228   0.02424   0.09492
 Alpha virt. eigenvalues --    0.10359   0.10819   0.11101   0.12579   0.13042
 Alpha virt. eigenvalues --    0.14734   0.15866   0.16475   0.16758   0.17112

 Mulliken charges:
               1
     1  C   -0.452677
     2  H    0.164212
     3  H    0.170857
     4  H    0.168544
     5  C   -0.149182
     6  H    0.185026
     7  H    0.191979
     8  N   -0.488671
     9  C    0.076714
    10  H    0.211484
    11  C   -0.062272
    12  C    0.564691
    13  O   -0.588372
    14  H    0.454390
    15  O   -0.552258
    16  C    0.384280
    17  O   -0.592834
    18  C    0.043228
    19  C   -0.139771
    20  H    0.171077
    21  C   -0.187382
    22  H    0.165673
    23  C    0.324385
    24  C   -0.515993
    25  H    0.181905
    26  H    0.182549
    27  H    0.172093
    28  N   -0.583838
    29  C    0.500162
 Sum of Mulliken charges =   0.00000

 Dipole moment (field-independent basis, Debye):
    X=             -5.9982    Y=              3.8292    Z=             -0.3150  Tot=              7.1232
 Quadrupole moment (field-independent basis, Debye-Ang):
   XX=            -89.1211   YY=            -96.5235   ZZ=            -96.6912
   XY=              4.9287   XZ=              0.4293   YZ=              0.1628

 Normal termination of Gaussian 09 at Sun Nov 22 16:13:13 2020.
