 Gaussian 09, Revision D.01,

 -----------------
 #p b3lyp/6-31G(d)
 -----------------

 ------------------------------------------
 SET_328_BBB212_conf1_geo_060_225.n.pdb.xyz
 ------------------------------------------
 Symbolic Z-matrix:
 Charge =  0 Multiplicity = 1

 SCF Done:  E(RB3LYP) =  -731.666769534     A.U. after   14 cycles
 Normal termination of Gaussian 09 at Sun Nov 22 16:10:07 2020.
 Gaussian 09:  AM64L-G09RevD.01 24-Apr-2013

 ----------------------------------------------------------------------
 #p b3lyp/6-31G(d) scrf=(iefpcm,read,solvent=Water) geom=allcheck guess
 =read
 ----------------------------------------------------------------------

 Structure from the checkpoint file:  "SET_328_BBB212_conf1_geo_060_225.n.pdb.xyz.mst.n.w.chk"
 ------------------------------------------
 SET_328_BBB212_conf1_geo_060_225.n.pdb.xyz
 ------------------------------------------
 Charge =  0 Multiplicity = 1

                         Standard orientation:
 ---------------------------------------------------------------------
 Center     Atomic      Atomic             Coordinates (Angstroms)
 Number     Number       Type             X           Y           Z
 ---------------------------------------------------------------------
      1          6           0        0.043917    2.410989   -1.195654
      2          1           0        0.055004    1.848158   -2.133083
      3          1           0        0.951269    3.021481   -1.159007
      4          1           0       -0.817072    3.087627   -1.213523
      5          6           0       -0.003320    1.474109    0.030792
      6          6           0       -0.058512    2.360871    1.296612
      7          1           0       -0.070478    1.761377    2.210391
      8          1           0       -0.967034    2.968106    1.279568
      9          1           0        0.803615    3.036351    1.343670
     10          6           0        1.257851    0.589038    0.006372
     11          6           0        1.484661   -0.262618   -1.088190
     12          6           0        2.612449   -1.069634   -1.170701
     13          6           0        3.564163   -1.050894   -0.141584
     14          8           0        4.650363   -1.866089   -0.276948
     15          1           0        5.227118   -1.773470    0.502566
     16          6           0        3.362261   -0.213233    0.957304
     17          6           0        2.220893    0.592568    1.020680
     18          1           0        2.092533    1.230684    1.887297
     19          1           0        4.086587   -0.182896    1.764710
     20          1           0        2.771777   -1.721657   -2.022979
     21          1           0        0.758298   -0.296119   -1.893636
     22          6           0       -1.257435    0.577538    0.013811
     23          6           0       -2.262220    0.689605   -0.954794
     24          1           0       -2.164930    1.414991   -1.753258
     25          6           0       -3.402059   -0.114748   -0.926610
     26          1           0       -4.169794   -0.014751   -1.685141
     27          6           0       -3.566008   -1.063914    0.085761
     28          8           0       -4.701363   -1.822797    0.066485
     29          1           0       -4.698421   -2.431322    0.826117
     30          6           0       -2.571108   -1.197954    1.064239
     31          1           0       -2.680546   -1.935577    1.853287
     32          6           0       -1.440556   -0.386636    1.017746
     33          1           0       -0.679793   -0.512408    1.782024
 ---------------------------------------------------------------------

 SCF Done:  E(RB3LYP) =  -731.685998583     A.U. after   11 cycles

 The electronic state is 1-A.
 Alpha  occ. eigenvalues --  -19.17334 -19.17313 -10.24749 -10.24748 -10.20687
 Alpha  occ. eigenvalues --  -10.18853 -10.18836 -10.18802 -10.18780 -10.18737
 Alpha  occ. eigenvalues --  -10.18719 -10.18695 -10.18576 -10.18450 -10.18337
 Alpha  occ. eigenvalues --  -10.17308 -10.17281  -1.05283  -1.05254  -0.86332
 Alpha  occ. eigenvalues --   -0.84507  -0.80374  -0.74706  -0.74549  -0.73111
 Alpha  occ. eigenvalues --   -0.71694  -0.68564  -0.63041  -0.61859  -0.60765
 Alpha  occ. eigenvalues --   -0.59596  -0.55485  -0.53965  -0.53918  -0.49373
 Alpha  occ. eigenvalues --   -0.47753  -0.46342  -0.45152  -0.44426  -0.44299
 Alpha  occ. eigenvalues --   -0.42042  -0.41887  -0.41109  -0.40640  -0.40448
 Alpha  occ. eigenvalues --   -0.40093  -0.39250  -0.37906  -0.37835  -0.37173
 Alpha  occ. eigenvalues --   -0.35299  -0.34711  -0.33715  -0.33289  -0.31917
 Alpha  occ. eigenvalues --   -0.31873  -0.31400  -0.25244  -0.25180  -0.22387
 Alpha  occ. eigenvalues --   -0.20872
 Alpha virt. eigenvalues --   -0.00446  -0.00284   0.00847   0.02096   0.09302
 Alpha virt. eigenvalues --    0.09773   0.09812   0.10954   0.12665   0.13124
 Alpha virt. eigenvalues --    0.14384   0.14495   0.15754   0.15823   0.16001

 Mulliken charges:
               1
     1  C   -0.469296
     2  H    0.156157
     3  H    0.151652
     4  H    0.152114
     5  C   -0.054406
     6  C   -0.466297
     7  H    0.155381
     8  H    0.152001
     9  H    0.150916
    10  C    0.166963
    11  C   -0.209224
    12  C   -0.188698
    13  C    0.343489
    14  O   -0.679852
    15  H    0.457457
    16  C   -0.215704
    17  C   -0.224185
    18  H    0.145611
    19  H    0.150593
    20  H    0.144784
    21  H    0.144712
    22  C    0.165676
    23  C   -0.221583
    24  H    0.145347
    25  C   -0.191857
    26  H    0.143603
    27  C    0.342998
    28  O   -0.679923
    29  H    0.457436
    30  C   -0.212563
    31  H    0.151867
    32  C   -0.210116
    33  H    0.144950
 Sum of Mulliken charges =   0.00000

 Dipole moment (field-independent basis, Debye):
    X=              1.2237    Y=             -0.2220    Z=              3.2334  Tot=              3.4643
 Quadrupole moment (field-independent basis, Debye-Ang):
   XX=            -92.0591   YY=            -95.3545   ZZ=            -92.4403
   XY=              4.4527   XZ=              4.6786   YZ=             -7.5687

 Normal termination of Gaussian 09 at Sun Nov 22 16:13:26 2020.
