 Gaussian 09, Revision D.01,

 -----------------
 #p b3lyp/6-31G(d)
 -----------------

 ------------------------------------------
 SET_328_BBB315_conf1_geo_180_090.n.pdb.xyz
 ------------------------------------------
 Symbolic Z-matrix:
 Charge =  0 Multiplicity = 1

 SCF Done:  E(RB3LYP) =  -513.825787201     A.U. after   15 cycles
 Normal termination of Gaussian 09 at Thu Nov 12 20:38:40 2020.
 Gaussian 09:  AM64L-G09RevD.01 24-Apr-2013

 ----------------------------------------------------------------------
 #p b3lyp/6-31G(d) scrf=(iefpcm,read,solvent=Water) geom=allcheck guess
 =read
 ----------------------------------------------------------------------

 Structure from the checkpoint file:  "SET_328_BBB315_conf1_geo_180_090.n.pdb.xyz.mst.n.w.chk"
 ------------------------------------------
 SET_328_BBB315_conf1_geo_180_090.n.pdb.xyz
 ------------------------------------------
 Charge =  0 Multiplicity = 1

                         Standard orientation:
 ---------------------------------------------------------------------
 Center     Atomic      Atomic             Coordinates (Angstroms)
 Number     Number       Type             X           Y           Z
 ---------------------------------------------------------------------
      1          7           0       -4.675295   -0.235274    0.463129
      2          1           0       -4.925428   -0.780160   -0.359804
      3          1           0       -4.978875    0.716659    0.255951
      4          6           0       -3.217103   -0.244024    0.610179
      5          1           0       -2.898691   -1.270434    0.825795
      6          1           0       -2.956814    0.359180    1.488073
      7          6           0       -2.425850    0.280047   -0.610903
      8          1           0       -2.727982    1.311726   -0.817397
      9          1           0       -2.702505   -0.319624   -1.487503
     10          6           0       -0.941063    0.221594   -0.416828
     11          6           0       -0.081105    1.281246   -0.204082
     12          1           0       -0.241871    2.346254   -0.159645
     13          7           0        1.172340    0.725494   -0.043054
     14          6           0        2.395780    1.304172    0.186909
     15          1           0        2.412224    2.382592    0.263625
     16          6           0        3.498316    0.506392    0.305847
     17          1           0        4.460005    0.967300    0.488207
     18          6           0        3.380790   -0.905882    0.190845
     19          1           0        4.265172   -1.524255    0.288746
     20          6           0        2.155524   -1.483782   -0.041134
     21          1           0        2.032615   -2.556292   -0.134286
     22          6           0        1.011110   -0.664664   -0.164531
     23          7           0       -0.267937   -0.976439   -0.390014
 ---------------------------------------------------------------------

 SCF Done:  E(RB3LYP) =  -513.841325555     A.U. after   11 cycles

 The electronic state is 1-A.
 Alpha  occ. eigenvalues --  -14.41454 -14.31259 -14.30549 -10.25037 -10.23851
 Alpha  occ. eigenvalues --  -10.21348 -10.20974 -10.20272 -10.20174 -10.20080
 Alpha  occ. eigenvalues --  -10.19864 -10.18217  -1.02990  -0.90537  -0.87232
 Alpha  occ. eigenvalues --   -0.83076  -0.77280  -0.74509  -0.71531  -0.64285
 Alpha  occ. eigenvalues --   -0.62179  -0.61371  -0.57162  -0.52678  -0.50148
 Alpha  occ. eigenvalues --   -0.48511  -0.47850  -0.46149  -0.45889  -0.44214
 Alpha  occ. eigenvalues --   -0.42682  -0.40476  -0.39993  -0.38197  -0.37100
 Alpha  occ. eigenvalues --   -0.36211  -0.34029  -0.33260  -0.32051  -0.28062
 Alpha  occ. eigenvalues --   -0.24804  -0.22818  -0.20938
 Alpha virt. eigenvalues --   -0.03127   0.00620   0.06306   0.09467   0.10178
 Alpha virt. eigenvalues --    0.12494   0.14028   0.14211   0.14477   0.15592
 Alpha virt. eigenvalues --    0.16233   0.17366   0.18032   0.18703   0.19876

 Mulliken charges:
               1
     1  N   -0.766431
     2  H    0.325539
     3  H    0.325115
     4  C   -0.137747
     5  H    0.146722
     6  H    0.141495
     7  C   -0.349108
     8  H    0.149835
     9  H    0.149853
    10  C    0.227323
    11  C   -0.047071
    12  H    0.183263
    13  N   -0.469282
    14  C    0.071835
    15  H    0.197598
    16  C   -0.203251
    17  H    0.169253
    18  C   -0.133451
    19  H    0.163919
    20  C   -0.200353
    21  H    0.165022
    22  C    0.519420
    23  N   -0.629500
 Sum of Mulliken charges =   0.00000

 Dipole moment (field-independent basis, Debye):
    X=              3.0837    Y=              4.1748    Z=             -0.8510  Tot=              5.2595
 Quadrupole moment (field-independent basis, Debye-Ang):
   XX=            -60.9809   YY=            -63.3000   ZZ=            -74.7281
   XY=             -4.2942   XZ=             10.2622   YZ=              0.9619

 Normal termination of Gaussian 09 at Thu Nov 12 20:39:48 2020.
