 Gaussian 09, Revision D.01,

 -----------------
 #p b3lyp/6-31G(d)
 -----------------

 ------------------------------------------
 SET_328_BBB181_conf1_geo_075_180.n.pdb.xyz
 ------------------------------------------
 Symbolic Z-matrix:
 Charge =  0 Multiplicity = 1

 SCF Done:  E(RB3LYP) =  -233.661025108     A.U. after   12 cycles
 Normal termination of Gaussian 09 at Thu Nov 12 20:29:36 2020.
 Gaussian 09:  AM64L-G09RevD.01 24-Apr-2013

 ----------------------------------------------------------------------
 #p b3lyp/6-31G(d) scrf=(iefpcm,read,solvent=Water) geom=allcheck guess
 =read
 ----------------------------------------------------------------------

 Structure from the checkpoint file:  "SET_328_BBB181_conf1_geo_075_180.n.pdb.xyz.mst.n.w.chk"
 ------------------------------------------
 SET_328_BBB181_conf1_geo_075_180.n.pdb.xyz
 ------------------------------------------
 Charge =  0 Multiplicity = 1

                         Standard orientation:
 ---------------------------------------------------------------------
 Center     Atomic      Atomic             Coordinates (Angstroms)
 Number     Number       Type             X           Y           Z
 ---------------------------------------------------------------------
      1          6           0        2.336540    0.147067   -0.175536
      2          1           0        2.352642    0.433504   -1.230670
      3          1           0        2.692759   -0.883725   -0.091638
      4          1           0        3.027292    0.797380    0.369461
      5          6           0        0.937086    0.277482    0.394600
      6          1           0        0.591999    1.318636    0.326724
      7          1           0        0.922706    0.000400    1.459089
      8          8           0        0.069707   -0.586738   -0.329727
      9          6           0       -1.255924   -0.619453    0.193266
     10          1           0       -1.215041   -0.752625    1.285065
     11          1           0       -1.720031   -1.513332   -0.234330
     12          6           0       -2.075077    0.614571   -0.161182
     13          1           0       -3.092303    0.515808    0.230078
     14          1           0       -2.135009    0.736789   -1.246643
     15          1           0       -1.638417    1.523072    0.263792
 ---------------------------------------------------------------------

 SCF Done:  E(RB3LYP) =  -233.663387900     A.U. after    9 cycles

 The electronic state is 1-A.
 Alpha  occ. eigenvalues --  -19.14364 -10.22584 -10.22515 -10.17325 -10.17173
 Alpha  occ. eigenvalues --   -1.02470  -0.76790  -0.72484  -0.62967  -0.58838
 Alpha  occ. eigenvalues --   -0.48850  -0.46691  -0.46279  -0.41185  -0.38859
 Alpha  occ. eigenvalues --   -0.38662  -0.37046  -0.35545  -0.34071  -0.30921
 Alpha  occ. eigenvalues --   -0.25217
 Alpha virt. eigenvalues --    0.09587   0.11958   0.12704   0.14367   0.15272
 Alpha virt. eigenvalues --    0.16959   0.17623   0.18481   0.19371   0.19609
 Alpha virt. eigenvalues --    0.22402   0.24116   0.25141   0.26606   0.50413

 Mulliken charges:
               1
     1  C   -0.463784
     2  H    0.155370
     3  H    0.154269
     4  H    0.155463
     5  C   -0.016653
     6  H    0.134184
     7  H    0.129276
     8  O   -0.502347
     9  C   -0.023298
    10  H    0.131026
    11  H    0.147848
    12  C   -0.465918
    13  H    0.153030
    14  H    0.153841
    15  H    0.157693
 Sum of Mulliken charges =   0.00000

 Dipole moment (field-independent basis, Debye):
    X=             -0.4756    Y=              0.9411    Z=              1.2396  Tot=              1.6274
 Quadrupole moment (field-independent basis, Debye-Ang):
   XX=            -29.9296   YY=            -33.1780   ZZ=            -33.0392
   XY=              1.3865   XZ=              0.3590   YZ=             -0.4828

 Normal termination of Gaussian 09 at Thu Nov 12 20:29:51 2020.
