 Gaussian 09, Revision D.01,

 -----------------
 #p b3lyp/6-31G(d)
 -----------------

 ------------------------------------------
 SET_328_BBB212_conf1_geo_225_060.n.pdb.xyz
 ------------------------------------------
 Symbolic Z-matrix:
 Charge =  0 Multiplicity = 1

 SCF Done:  E(RB3LYP) =  -731.667294176     A.U. after   14 cycles
 Normal termination of Gaussian 09 at Sun Nov 22 16:10:06 2020.
 Gaussian 09:  AM64L-G09RevD.01 24-Apr-2013

 ----------------------------------------------------------------------
 #p b3lyp/6-31G(d) scrf=(iefpcm,read,solvent=Water) geom=allcheck guess
 =read
 ----------------------------------------------------------------------

 Structure from the checkpoint file:  "SET_328_BBB212_conf1_geo_225_060.n.pdb.xyz.mst.n.w.chk"
 ------------------------------------------
 SET_328_BBB212_conf1_geo_225_060.n.pdb.xyz
 ------------------------------------------
 Charge =  0 Multiplicity = 1

                         Standard orientation:
 ---------------------------------------------------------------------
 Center     Atomic      Atomic             Coordinates (Angstroms)
 Number     Number       Type             X           Y           Z
 ---------------------------------------------------------------------
      1          6           0       -0.067849    2.356938    1.248511
      2          1           0       -0.991166    2.942833    1.228531
      3          1           0        0.773379    3.057134    1.281999
      4          1           0       -0.060155    1.770700    2.169490
      5          6           0        0.000166    1.456539   -0.003361
      6          6           0        0.068688    2.381795   -1.239051
      7          1           0       -0.780010    3.072290   -1.263471
      8          1           0        0.075381    1.814205   -2.173791
      9          1           0        0.986309    2.977689   -1.198054
     10          6           0       -1.258765    0.572885   -0.011522
     11          6           0       -2.296046    0.717194   -0.941522
     12          6           0       -3.444172   -0.074942   -0.887516
     13          6           0       -3.585112   -1.041872    0.110124
     14          8           0       -4.728608   -1.786548    0.115445
     15          1           0       -4.704731   -2.415606    0.858187
     16          6           0       -2.559610   -1.205798    1.051677
     17          6           0       -1.421460   -0.406757    0.980531
     18          1           0       -0.635375   -0.556107    1.714977
     19          1           0       -2.650753   -1.956673    1.830488
     20          1           0       -4.237563    0.048107   -1.617979
     21          1           0       -2.224928    1.457458   -1.730979
     22          6           0        1.257636    0.568578    0.002018
     23          6           0        1.418264   -0.421514   -0.980565
     24          1           0        0.629325   -0.581203   -1.707455
     25          6           0        2.558797   -1.218946   -1.045332
     26          1           0        2.650662   -1.979700   -1.816921
     27          6           0        3.585779   -1.041553   -0.109081
     28          8           0        4.731330   -1.785124   -0.110265
     29          1           0        4.702491   -2.418544   -0.848694
     30          6           0        3.445477   -0.066217    0.881631
     31          1           0        4.240111    0.066039    1.609557
     32          6           0        2.296410    0.724159    0.929095
     33          1           0        2.216026    1.471821    1.708855
 ---------------------------------------------------------------------

 SCF Done:  E(RB3LYP) =  -731.686210783     A.U. after   10 cycles

 The electronic state is 1-A.
 Alpha  occ. eigenvalues --  -19.17316 -19.17311 -10.24734 -10.24723 -10.20621
 Alpha  occ. eigenvalues --  -10.18821 -10.18814 -10.18776 -10.18773 -10.18735
 Alpha  occ. eigenvalues --  -10.18724 -10.18697 -10.18667 -10.18356 -10.18325
 Alpha  occ. eigenvalues --  -10.17302 -10.17255  -1.05288  -1.05269  -0.86343
 Alpha  occ. eigenvalues --   -0.84478  -0.80399  -0.74617  -0.74580  -0.73126
 Alpha  occ. eigenvalues --   -0.71660  -0.68513  -0.63450  -0.61389  -0.60390
 Alpha  occ. eigenvalues --   -0.59966  -0.55613  -0.53929  -0.53890  -0.48868
 Alpha  occ. eigenvalues --   -0.47859  -0.47173  -0.44457  -0.44430  -0.44090
 Alpha  occ. eigenvalues --   -0.41946  -0.41849  -0.41290  -0.40968  -0.40554
 Alpha  occ. eigenvalues --   -0.40169  -0.38917  -0.38336  -0.37494  -0.37350
 Alpha  occ. eigenvalues --   -0.34723  -0.34703  -0.33667  -0.33612  -0.31902
 Alpha  occ. eigenvalues --   -0.31884  -0.31393  -0.25304  -0.25093  -0.22320
 Alpha  occ. eigenvalues --   -0.20879
 Alpha virt. eigenvalues --   -0.00629  -0.00023   0.00952   0.01892   0.09407
 Alpha virt. eigenvalues --    0.09757   0.09851   0.10889   0.12598   0.13460
 Alpha virt. eigenvalues --    0.14229   0.14365   0.15889   0.15950   0.16008

 Mulliken charges:
               1
     1  C   -0.466257
     2  H    0.151326
     3  H    0.151803
     4  H    0.154860
     5  C   -0.047267
     6  C   -0.464833
     7  H    0.152015
     8  H    0.153995
     9  H    0.151293
    10  C    0.161536
    11  C   -0.222876
    12  C   -0.192161
    13  C    0.343628
    14  O   -0.679870
    15  H    0.457530
    16  C   -0.213739
    17  C   -0.206685
    18  H    0.144477
    19  H    0.151634
    20  H    0.143236
    21  H    0.144993
    22  C    0.160094
    23  C   -0.206614
    24  H    0.144050
    25  C   -0.213862
    26  H    0.151946
    27  C    0.343265
    28  O   -0.679810
    29  H    0.457202
    30  C   -0.192506
    31  H    0.143582
    32  C   -0.220328
    33  H    0.144343
 Sum of Mulliken charges =   0.00000

 Dipole moment (field-independent basis, Debye):
    X=             -0.0226    Y=             -1.7802    Z=              0.0172  Tot=              1.7804
 Quadrupole moment (field-independent basis, Debye-Ang):
   XX=           -105.0384   YY=            -87.7990   ZZ=            -92.5743
   XY=              0.0235   XZ=            -10.7515   YZ=             -0.0102

 Normal termination of Gaussian 09 at Sun Nov 22 16:13:10 2020.
