 Gaussian 09, Revision D.01,

 -----------------
 #p b3lyp/6-31G(d)
 -----------------

 -----------------------------------------
 SET_328_BBB65_conf1_geo_060_150.n.pdb.xyz
 -----------------------------------------
 Symbolic Z-matrix:
 Charge =  0 Multiplicity = 1

 SCF Done:  E(RB3LYP) =  -717.616636797     A.U. after   14 cycles
 Normal termination of Gaussian 09 at Sun Nov 22 16:12:11 2020.
 Gaussian 09:  AM64L-G09RevD.01 24-Apr-2013

 ----------------------------------------------------------------------
 #p b3lyp/6-31G(d) scrf=(iefpcm,read,solvent=Water) geom=allcheck guess
 =read
 ----------------------------------------------------------------------

 Structure from the checkpoint file:  "SET_328_BBB65_conf1_geo_060_150.n.pdb.xyz.mst.n.w.chk"
 -----------------------------------------
 SET_328_BBB65_conf1_geo_060_150.n.pdb.xyz
 -----------------------------------------
 Charge =  0 Multiplicity = 1

                         Standard orientation:
 ---------------------------------------------------------------------
 Center     Atomic      Atomic             Coordinates (Angstroms)
 Number     Number       Type             X           Y           Z
 ---------------------------------------------------------------------
      1          6           0        2.019913    3.172611   -0.046040
      2          6           0        2.035433    2.286976    1.201542
      3          6           0        0.868795    1.293017    1.190863
      4          1           0        0.935181    0.660721    2.076841
      5          1           0       -0.079585    1.856131    1.267041
      6          1           0        2.978459    1.726819    1.246064
      7          1           0        1.977048    2.894614    2.112324
      8          1           0        1.141728    3.831736   -0.009871
      9          1           0        2.902700    3.820515   -0.077320
     10          6           0        1.941118    2.296973   -1.297525
     11          1           0        2.876728    1.739131   -1.416296
     12          1           0        1.816830    2.912212   -2.196524
     13          6           0        0.778978    1.302827   -1.207304
     14          1           0        0.776973    0.674946   -2.098355
     15          1           0       -0.173691    1.863592   -1.206975
     16          7           0        0.901580    0.454098   -0.013764
     17          6           0        0.018625   -0.760114    0.004439
     18          6           0        0.352321   -1.650283   -1.227840
     19          6           0        1.799360   -2.159549   -1.240924
     20          6           0        2.128356   -2.956434    0.022530
     21          6           0        1.791168   -2.155698    1.282113
     22          6           0        0.345952   -1.637278    1.249603
     23          1           0        0.127306   -1.108021    2.178138
     24          1           0       -0.341906   -2.491385    1.221309
     25          1           0        2.484092   -1.312439    1.376971
     26          1           0        1.928317   -2.778184    2.173964
     27          1           0        3.184452   -3.252436    0.025779
     28          1           0        1.543545   -3.887453    0.021601
     29          1           0        2.482623   -1.308045   -1.326265
     30          1           0        1.953014   -2.780275   -2.131270
     31          1           0        0.146177   -1.128973   -2.162807
     32          1           0       -0.333373   -2.506445   -1.202310
     33          6           0       -1.480427   -0.361804    0.009003
     34          6           0       -2.144958   -0.038120    1.205629
     35          1           0       -1.622946   -0.113317    2.153414
     36          6           0       -3.479248    0.374041    1.215174
     37          1           0       -3.958547    0.611317    2.160162
     38          6           0       -4.194339    0.475364    0.021227
     39          1           0       -5.232242    0.792873    0.026949
     40          6           0       -3.555522    0.161164   -1.178537
     41          1           0       -4.095294    0.230504   -2.118622
     42          6           0       -2.220516   -0.249614   -1.181480
     43          1           0       -1.758681   -0.491296   -2.132437
 ---------------------------------------------------------------------

 SCF Done:  E(RB3LYP) =  -717.616979374     A.U. after    9 cycles

 The electronic state is 1-A.
 Alpha  occ. eigenvalues --  -14.31658 -10.22194 -10.19504 -10.19491 -10.19143
 Alpha  occ. eigenvalues --  -10.18768 -10.18751 -10.18657 -10.18504 -10.18494
 Alpha  occ. eigenvalues --  -10.17399 -10.17303 -10.17259 -10.17229 -10.17204
 Alpha  occ. eigenvalues --  -10.17069 -10.17038 -10.16974  -0.91607  -0.85008
 Alpha  occ. eigenvalues --   -0.81995  -0.78167  -0.75313  -0.74927  -0.73910
 Alpha  occ. eigenvalues --   -0.72895  -0.70973  -0.63763  -0.62466  -0.60708
 Alpha  occ. eigenvalues --   -0.60273  -0.58419  -0.57105  -0.55294  -0.53177
 Alpha  occ. eigenvalues --   -0.51092  -0.48736  -0.46474  -0.45433  -0.45119
 Alpha  occ. eigenvalues --   -0.44366  -0.44189  -0.42766  -0.42025  -0.41711
 Alpha  occ. eigenvalues --   -0.41442  -0.41232  -0.39881  -0.39104  -0.37602
 Alpha  occ. eigenvalues --   -0.36548  -0.36254  -0.35651  -0.35444  -0.34262
 Alpha  occ. eigenvalues --   -0.33926  -0.33782  -0.32888  -0.32125  -0.31640
 Alpha  occ. eigenvalues --   -0.30869  -0.30264  -0.29907  -0.28179  -0.24863
 Alpha  occ. eigenvalues --   -0.24486  -0.20165
 Alpha virt. eigenvalues --   -0.00113  -0.00016   0.07797   0.09951   0.10451
 Alpha virt. eigenvalues --    0.11298   0.11350   0.12759   0.13347   0.13766
 Alpha virt. eigenvalues --    0.15110   0.15452   0.15859   0.16275   0.16808

 Mulliken charges:
               1
     1  C   -0.264843
     2  C   -0.261965
     3  C   -0.127571
     4  H    0.144831
     5  H    0.113342
     6  H    0.134823
     7  H    0.132033
     8  H    0.129725
     9  H    0.133888
    10  C   -0.262021
    11  H    0.135532
    12  H    0.131963
    13  C   -0.127326
    14  H    0.144513
    15  H    0.113250
    16  N   -0.414450
    17  C    0.147498
    18  C   -0.303179
    19  C   -0.255103
    20  C   -0.262388
    21  C   -0.256196
    22  C   -0.303365
    23  H    0.146957
    24  H    0.138167
    25  H    0.142318
    26  H    0.128878
    27  H    0.128292
    28  H    0.127066
    29  H    0.142516
    30  H    0.127648
    31  H    0.147615
    32  H    0.137321
    33  C    0.153066
    34  C   -0.198212
    35  H    0.143872
    36  C   -0.159728
    37  H    0.145537
    38  C   -0.151008
    39  H    0.145426
    40  C   -0.158507
    41  H    0.145286
    42  C   -0.198056
    43  H    0.142554
 Sum of Mulliken charges =   0.00000

 Dipole moment (field-independent basis, Debye):
    X=             -0.0090    Y=              0.1690    Z=              0.0307  Tot=              0.1720
 Quadrupole moment (field-independent basis, Debye-Ang):
   XX=           -109.5733   YY=           -111.7737   ZZ=           -104.7114
   XY=             -0.9759   XZ=              0.2902   YZ=              0.5854

 Normal termination of Gaussian 09 at Sun Nov 22 16:16:20 2020.
