 Gaussian 09, Revision D.01,

 -----------------
 #p b3lyp/6-31G(d)
 -----------------

 -----------------------------------------
 SET_328_BBB87_conf1_geo_075_075.n.pdb.xyz
 -----------------------------------------
 Symbolic Z-matrix:
 Charge =  0 Multiplicity = 1

 SCF Done:  E(RB3LYP) =  -703.023241844     A.U. after   15 cycles
 Normal termination of Gaussian 09 at Thu Nov 12 20:44:33 2020.
 Gaussian 09:  AM64L-G09RevD.01 24-Apr-2013

 ----------------------------------------------------------------------
 #p b3lyp/6-31G(d) scrf=(iefpcm,read,solvent=Water) geom=allcheck guess
 =read
 ----------------------------------------------------------------------

 Structure from the checkpoint file:  "SET_328_BBB87_conf1_geo_075_075.n.pdb.xyz.mst.n.w.chk"
 -----------------------------------------
 SET_328_BBB87_conf1_geo_075_075.n.pdb.xyz
 -----------------------------------------
 Charge =  0 Multiplicity = 1

                         Standard orientation:
 ---------------------------------------------------------------------
 Center     Atomic      Atomic             Coordinates (Angstroms)
 Number     Number       Type             X           Y           Z
 ---------------------------------------------------------------------
      1          7           0       -2.440012   -0.809716   -0.828059
      2          1           0       -1.638878   -0.870695   -1.454870
      3          1           0       -3.256164   -0.814354   -1.436605
      4          6           0       -2.394465    0.470012   -0.114764
      5          1           0       -3.360983    0.618482    0.376493
      6          1           0       -2.230853    1.338730   -0.769905
      7          6           0       -1.308981    0.473235    0.977009
      8          1           0       -1.494896   -0.356636    1.665067
      9          1           0       -1.386481    1.406820    1.544462
     10          6           0        0.084038    0.381894    0.425988
     11          7           0        0.744339    1.387533   -0.087150
     12          6           0        1.984118    0.993449   -0.545732
     13          1           0        2.640894    1.730384   -0.993478
     14          6           0        2.292402   -0.325454   -0.387425
     15          1           0        3.197621   -0.846769   -0.662092
     16         16           0        0.966048   -1.138094    0.375434
 ---------------------------------------------------------------------

 SCF Done:  E(RB3LYP) =  -703.034172783     A.U. after   11 cycles

 The electronic state is 1-A.
 Alpha  occ. eigenvalues --  -88.91449 -14.33736 -14.30692 -10.25586 -10.21939
 Alpha  occ. eigenvalues --  -10.21761 -10.20859 -10.19586  -7.97610  -5.93979
 Alpha  occ. eigenvalues --   -5.93634  -5.93348  -0.96266  -0.87601  -0.79717
 Alpha  occ. eigenvalues --   -0.77739  -0.71026  -0.61951  -0.58816  -0.53227
 Alpha  occ. eigenvalues --   -0.49964  -0.48499  -0.46829  -0.42624  -0.41683
 Alpha  occ. eigenvalues --   -0.41262  -0.36876  -0.36611  -0.36266  -0.35394
 Alpha  occ. eigenvalues --   -0.28456  -0.27926  -0.24504  -0.23540
 Alpha virt. eigenvalues --   -0.02450   0.02185   0.04653   0.09670   0.10146
 Alpha virt. eigenvalues --    0.12921   0.13706   0.15458   0.16214   0.17173
 Alpha virt. eigenvalues --    0.17611   0.20099   0.22451   0.23448   0.25475

 Mulliken charges:
               1
     1  N   -0.774698
     2  H    0.330266
     3  H    0.335110
     4  C   -0.132797
     5  H    0.153349
     6  H    0.134833
     7  C   -0.303567
     8  H    0.164631
     9  H    0.174069
    10  C    0.087077
    11  N   -0.455971
    12  C    0.033289
    13  H    0.170398
    14  C   -0.357282
    15  H    0.206701
    16  S    0.234590
 Sum of Mulliken charges =   0.00000

 Dipole moment (field-independent basis, Debye):
    X=             -0.0874    Y=             -0.4626    Z=             -1.2524  Tot=              1.3380
 Quadrupole moment (field-independent basis, Debye-Ang):
   XX=            -44.2084   YY=            -59.9790   ZZ=            -51.4780
   XY=             -4.1500   XZ=             -0.2173   YZ=              1.1460

 Normal termination of Gaussian 09 at Thu Nov 12 20:45:04 2020.
