 Gaussian 09, Revision D.01,

 -----------------
 #p b3lyp/6-31G(d)
 -----------------

 -----------------------------------------
 SET_328_BBB87_conf1_geo_285_285.n.pdb.xyz
 -----------------------------------------
 Symbolic Z-matrix:
 Charge =  0 Multiplicity = 1

 SCF Done:  E(RB3LYP) =  -703.023275762     A.U. after   15 cycles
 Normal termination of Gaussian 09 at Thu Nov 12 20:49:04 2020.
 Gaussian 09:  AM64L-G09RevD.01 24-Apr-2013

 ----------------------------------------------------------------------
 #p b3lyp/6-31G(d) scrf=(iefpcm,read,solvent=Water) geom=allcheck guess
 =read
 ----------------------------------------------------------------------

 Structure from the checkpoint file:  "SET_328_BBB87_conf1_geo_285_285.n.pdb.xyz.mst.n.w.chk"
 -----------------------------------------
 SET_328_BBB87_conf1_geo_285_285.n.pdb.xyz
 -----------------------------------------
 Charge =  0 Multiplicity = 1

                         Standard orientation:
 ---------------------------------------------------------------------
 Center     Atomic      Atomic             Coordinates (Angstroms)
 Number     Number       Type             X           Y           Z
 ---------------------------------------------------------------------
      1          7           0        2.449097   -0.833271   -0.786655
      2          1           0        3.271123   -0.864150   -1.387159
      3          1           0        1.653829   -0.930319   -1.417394
      4          6           0        2.392470    0.479438   -0.137328
      5          1           0        2.220691    1.315567   -0.831621
      6          1           0        3.356622    0.657924    0.348775
      7          6           0        1.305988    0.521278    0.954309
      8          1           0        1.375577    1.476843    1.482759
      9          1           0        1.497975   -0.277609    1.676614
     10          6           0       -0.089487    0.399325    0.413266
     11          7           0       -0.770055    1.388092   -0.104345
     12          6           0       -2.006744    0.970887   -0.548976
     13          1           0       -2.678140    1.692584   -0.997740
     14          6           0       -2.291748   -0.351319   -0.375056
     15          1           0       -3.189686   -0.890562   -0.636871
     16         16           0       -0.945260   -1.136355    0.385147
 ---------------------------------------------------------------------

 SCF Done:  E(RB3LYP) =  -703.034161689     A.U. after   11 cycles

 The electronic state is 1-A.
 Alpha  occ. eigenvalues --  -88.91436 -14.33716 -14.30704 -10.25572 -10.21924
 Alpha  occ. eigenvalues --  -10.21757 -10.20874 -10.19553  -7.97595  -5.93964
 Alpha  occ. eigenvalues --   -5.93619  -5.93332  -0.96269  -0.87590  -0.79679
 Alpha  occ. eigenvalues --   -0.77711  -0.71017  -0.61950  -0.58817  -0.53221
 Alpha  occ. eigenvalues --   -0.49958  -0.48481  -0.46821  -0.42643  -0.41658
 Alpha  occ. eigenvalues --   -0.41250  -0.36861  -0.36562  -0.36279  -0.35386
 Alpha  occ. eigenvalues --   -0.28443  -0.27901  -0.24514  -0.23537
 Alpha virt. eigenvalues --   -0.02449   0.02190   0.04680   0.09706   0.10135
 Alpha virt. eigenvalues --    0.12955   0.13701   0.15410   0.16208   0.17210
 Alpha virt. eigenvalues --    0.17602   0.20101   0.22417   0.23380   0.25568

 Mulliken charges:
               1
     1  N   -0.774077
     2  H    0.335003
     3  H    0.330211
     4  C   -0.132944
     5  H    0.134960
     6  H    0.153568
     7  C   -0.303561
     8  H    0.173425
     9  H    0.164702
    10  C    0.087413
    11  N   -0.455526
    12  C    0.033653
    13  H    0.170540
    14  C   -0.357535
    15  H    0.206327
    16  S    0.233841
 Sum of Mulliken charges =   0.00000

 Dipole moment (field-independent basis, Debye):
    X=              0.1337    Y=             -0.5354    Z=             -1.2896  Tot=              1.4027
 Quadrupole moment (field-independent basis, Debye-Ang):
   XX=            -44.1555   YY=            -59.8098   ZZ=            -51.6719
   XY=              4.1716   XZ=             -0.0140   YZ=              1.4659

 Normal termination of Gaussian 09 at Thu Nov 12 20:49:34 2020.
