 Gaussian 09, Revision D.01,

 -----------------
 #p b3lyp/6-31G(d)
 -----------------

 ----------------------------------------
 SET_328_BBB2_conf1_geo_240_195.n.pdb.xyz
 ----------------------------------------
 Symbolic Z-matrix:
 Charge =  0 Multiplicity = 1

 SCF Done:  E(RB3LYP) =  -1633.19143335     A.U. after   15 cycles
 Normal termination of Gaussian 09 at Sun Nov 22 16:11:48 2020.
 Gaussian 09:  AM64L-G09RevD.01 24-Apr-2013

 ----------------------------------------------------------------------
 #p b3lyp/6-31G(d) scrf=(iefpcm,read,solvent=Water) geom=allcheck guess
 =read
 ----------------------------------------------------------------------

 Structure from the checkpoint file:  "SET_328_BBB2_conf1_geo_240_195.n.pdb.xyz.mst.n.w.chk"
 ----------------------------------------
 SET_328_BBB2_conf1_geo_240_195.n.pdb.xyz
 ----------------------------------------
 Charge =  0 Multiplicity = 1

                         Standard orientation:
 ---------------------------------------------------------------------
 Center     Atomic      Atomic             Coordinates (Angstroms)
 Number     Number       Type             X           Y           Z
 ---------------------------------------------------------------------
      1          6           0       -5.423182   -1.814992    1.090968
      2          1           0       -6.507498   -1.688351    1.030522
      3          1           0       -5.144931   -1.848706    2.150227
      4          1           0       -5.169588   -2.790321    0.649909
      5          7           0       -4.771948   -0.668918    0.459532
      6          1           0       -5.089572   -0.594015   -0.509139
      7          6           0       -3.306051   -0.747104    0.466212
      8          6           0       -2.694274    0.579528    0.018382
      9          6           0       -1.448767    0.639283   -0.636826
     10          6           0       -0.944624    1.890939   -1.019954
     11          6           0       -1.636310    3.069139   -0.756437
     12          6           0       -2.864864    3.010703   -0.094914
     13          6           0       -3.380803    1.772655    0.282673
     14          1           0       -4.340186    1.702739    0.779695
     15          1           0       -3.418168    3.919864    0.120196
     16          1           0       -1.220315    4.023430   -1.064376
     17          1           0        0.011895    1.935405   -1.534214
     18          1           0       -3.024781   -0.904870    1.519227
     19          6           0       -2.721479   -1.916620   -0.338635
     20          1           0       -3.073121   -1.853071   -1.377191
     21          1           0       -3.087823   -2.863499    0.067878
     22          6           0       -1.196506   -1.876472   -0.297072
     23          1           0       -0.761589   -2.763811   -0.768210
     24          1           0       -0.863326   -1.879306    0.747790
     25          6           0       -0.659384   -0.617947   -1.007521
     26          1           0       -0.801071   -0.775592   -2.084423
     27          6           0        0.838594   -0.479231   -0.789322
     28          6           0        1.355800   -0.102809    0.455643
     29          1           0        0.690408    0.143131    1.274625
     30          6           0        2.730304   -0.028018    0.664585
     31         17           0        3.314449    0.449095    2.246241
     32          6           0        3.618191   -0.329374   -0.375068
     33         17           0        5.352270   -0.243718   -0.149487
     34          6           0        3.114367   -0.703136   -1.618350
     35          1           0        3.802814   -0.932500   -2.422242
     36          6           0        1.737285   -0.775238   -1.819347
     37          1           0        1.356487   -1.067339   -2.791915
 ---------------------------------------------------------------------

 SCF Done:  E(RB3LYP) =  -1633.19775469     A.U. after   10 cycles

 The electronic state is 1-A.
 Alpha  occ. eigenvalues -- -101.56107-101.56093 -14.31460 -10.26746 -10.26577
 Alpha  occ. eigenvalues --  -10.21299 -10.21179 -10.21158 -10.20952 -10.20346
 Alpha  occ. eigenvalues --  -10.20243 -10.19680 -10.19603 -10.19241 -10.18715
 Alpha  occ. eigenvalues --  -10.18636 -10.18572 -10.18448 -10.18146 -10.17656
 Alpha  occ. eigenvalues --   -9.47721  -9.47709  -7.24127  -7.24114  -7.23154
 Alpha  occ. eigenvalues --   -7.23143  -7.23106  -7.23093  -0.91847  -0.90371
 Alpha  occ. eigenvalues --   -0.86475  -0.86209  -0.84409  -0.80833  -0.76953
 Alpha  occ. eigenvalues --   -0.75038  -0.73880  -0.73689  -0.70350  -0.66239
 Alpha  occ. eigenvalues --   -0.63049  -0.62049  -0.60864  -0.60198  -0.57962
 Alpha  occ. eigenvalues --   -0.55449  -0.51935  -0.50868  -0.49225  -0.47388
 Alpha  occ. eigenvalues --   -0.47168  -0.46632  -0.45365  -0.44287  -0.43996
 Alpha  occ. eigenvalues --   -0.43666  -0.42412  -0.41989  -0.41592  -0.39761
 Alpha  occ. eigenvalues --   -0.39301  -0.38917  -0.38579  -0.37372  -0.37294
 Alpha  occ. eigenvalues --   -0.36208  -0.35365  -0.35219  -0.34426  -0.33864
 Alpha  occ. eigenvalues --   -0.33317  -0.33268  -0.32111  -0.31382  -0.30872
 Alpha  occ. eigenvalues --   -0.26218  -0.25075  -0.24512  -0.23761  -0.21733
 Alpha virt. eigenvalues --   -0.02384  -0.02151  -0.00690  -0.00018   0.00269
 Alpha virt. eigenvalues --    0.05727   0.09625   0.10707   0.11060   0.11125
 Alpha virt. eigenvalues --    0.12490   0.13078   0.14002   0.14784   0.15781

 Mulliken charges:
               1
     1  C   -0.310050
     2  H    0.154387
     3  H    0.153198
     4  H    0.135800
     5  N   -0.582394
     6  H    0.327650
     7  C   -0.017907
     8  C    0.063212
     9  C    0.107543
    10  C   -0.204802
    11  C   -0.151249
    12  C   -0.153438
    13  C   -0.191160
    14  H    0.141189
    15  H    0.144378
    16  H    0.145461
    17  H    0.140728
    18  H    0.149595
    19  C   -0.286128
    20  H    0.139970
    21  H    0.148312
    22  C   -0.279692
    23  H    0.148017
    24  H    0.148304
    25  C   -0.240930
    26  H    0.166414
    27  C    0.171398
    28  C   -0.176241
    29  H    0.173578
    30  C   -0.078771
    31  Cl  -0.010722
    32  C   -0.079983
    33  Cl  -0.010478
    34  C   -0.134126
    35  H    0.180915
    36  C   -0.197429
    37  H    0.165453
 Sum of Mulliken charges =   0.00000

 Dipole moment (field-independent basis, Debye):
    X=             -3.4118    Y=             -2.5114    Z=             -3.0814  Tot=              5.2386
 Quadrupole moment (field-independent basis, Debye-Ang):
   XX=           -139.3997   YY=           -126.0372   ZZ=           -126.6273
   XY=              5.6193   XZ=             -4.7685   YZ=              1.2684

 Normal termination of Gaussian 09 at Sun Nov 22 16:15:54 2020.
