 Gaussian 09, Revision D.01,

 -----------------
 #p b3lyp/6-31G(d)
 -----------------

 ------------------------------------------
 SET_328_BBB285_conf1_geo_300_075.n.pdb.xyz
 ------------------------------------------
 Symbolic Z-matrix:
 Charge =  0 Multiplicity = 1

 SCF Done:  E(RB3LYP) =  -907.131652309     A.U. after   16 cycles
 Normal termination of Gaussian 09 at Sun Nov 22 16:09:45 2020.
 Gaussian 09:  AM64L-G09RevD.01 24-Apr-2013

 ----------------------------------------------------------------------
 #p b3lyp/6-31G(d) scrf=(iefpcm,read,solvent=Water) geom=allcheck guess
 =read
 ----------------------------------------------------------------------

 Structure from the checkpoint file:  "SET_328_BBB285_conf1_geo_300_075.n.pdb.xyz.mst.n.w.chk"
 ------------------------------------------
 SET_328_BBB285_conf1_geo_300_075.n.pdb.xyz
 ------------------------------------------
 Charge =  0 Multiplicity = 1

                         Standard orientation:
 ---------------------------------------------------------------------
 Center     Atomic      Atomic             Coordinates (Angstroms)
 Number     Number       Type             X           Y           Z
 ---------------------------------------------------------------------
      1          7           0       -3.594948    1.156639    1.695271
      2          1           0       -4.353132    1.575059    2.222528
      3          1           0       -2.655562    1.211334    2.064799
      4          6           0       -3.859475    0.579739    0.506339
      5          8           0       -4.987618    0.506934    0.006530
      6          6           0       -2.688562    0.008648   -0.207388
      7          6           0       -2.676870   -0.644519   -1.453174
      8          7           0       -1.424592   -1.002045   -1.732952
      9          1           0       -3.491127   -0.859979   -2.126395
     10          7           0       -1.436370    0.038243    0.263809
     11          7           0       -0.728213   -0.579826   -0.671878
     12          6           0        0.728576   -0.711404   -0.608679
     13          1           0        0.975088   -1.383235   -1.431883
     14          8           0        1.341860    0.544081   -0.784044
     15          6           0        2.181124    0.852427    0.361516
     16          6           0        3.380446    1.662774   -0.108196
     17          8           0        3.013507    2.896512   -0.707667
     18          1           0        2.631296    3.458333   -0.011677
     19          1           0        3.914098    1.088712   -0.867100
     20          1           0        4.057152    1.811218    0.744864
     21          1           0        1.593916    1.439603    1.079584
     22          6           0        2.519526   -0.505484    0.972643
     23          8           0        3.573726   -1.115036    0.246880
     24          1           0        3.394878   -2.076032    0.276904
     25          1           0        2.765761   -0.423241    2.037294
     26          6           0        1.211659   -1.283727    0.737461
     27          1           0        0.483275   -1.049171    1.518723
     28          8           0        1.406472   -2.678212    0.602507
     29          1           0        1.411094   -3.068633    1.495833
 ---------------------------------------------------------------------

 SCF Done:  E(RB3LYP) =  -907.173299789     A.U. after   12 cycles

 The electronic state is 1-A.
 Alpha  occ. eigenvalues --  -19.16799 -19.16778 -19.14756 -19.14354 -19.12143
 Alpha  occ. eigenvalues --  -14.46038 -14.38816 -14.38448 -14.35590 -10.30365
 Alpha  occ. eigenvalues --  -10.29254 -10.25386 -10.24296 -10.24226 -10.23480
 Alpha  occ. eigenvalues --  -10.23032 -10.22992  -1.12585  -1.06710  -1.04045
 Alpha  occ. eigenvalues --   -1.03647  -1.01424  -1.01353  -0.91714  -0.89962
 Alpha  occ. eigenvalues --   -0.86245  -0.78073  -0.76057  -0.69911  -0.66513
 Alpha  occ. eigenvalues --   -0.63472  -0.61164  -0.59407  -0.58157  -0.55757
 Alpha  occ. eigenvalues --   -0.54184  -0.52588  -0.52221  -0.50855  -0.49295
 Alpha  occ. eigenvalues --   -0.48532  -0.47917  -0.46582  -0.45563  -0.44401
 Alpha  occ. eigenvalues --   -0.43232  -0.41868  -0.41237  -0.40742  -0.39058
 Alpha  occ. eigenvalues --   -0.37882  -0.35748  -0.35155  -0.33891  -0.32593
 Alpha  occ. eigenvalues --   -0.31567  -0.30860  -0.29846  -0.28735  -0.28038
 Alpha  occ. eigenvalues --   -0.27374  -0.27177  -0.26774  -0.26083
 Alpha virt. eigenvalues --   -0.04126  -0.00157   0.06348   0.08627   0.10533
 Alpha virt. eigenvalues --    0.11079   0.11303   0.11743   0.12528   0.13007
 Alpha virt. eigenvalues --    0.14018   0.15077   0.15173   0.15922   0.17149

 Mulliken charges:
               1
     1  N   -0.769691
     2  H    0.387355
     3  H    0.392577
     4  C    0.566827
     5  O   -0.593372
     6  C    0.253832
     7  C   -0.014517
     8  N   -0.293277
     9  H    0.193005
    10  N   -0.371363
    11  N   -0.061240
    12  C    0.307192
    13  H    0.184167
    14  O   -0.521346
    15  C    0.105849
    16  C   -0.037948
    17  O   -0.661167
    18  H    0.435256
    19  H    0.161243
    20  H    0.143130
    21  H    0.151926
    22  C    0.091843
    23  O   -0.676687
    24  H    0.432550
    25  H    0.153291
    26  C    0.056611
    27  H    0.182743
    28  O   -0.660427
    29  H    0.461636
 Sum of Mulliken charges =   0.00000

 Dipole moment (field-independent basis, Debye):
    X=              2.9418    Y=             -1.0420    Z=              9.4731  Tot=              9.9739
 Quadrupole moment (field-independent basis, Debye-Ang):
   XX=           -124.9390   YY=            -87.0081   ZZ=            -87.4257
   XY=             -8.1055   XZ=              2.9343   YZ=              4.7086

 Normal termination of Gaussian 09 at Sun Nov 22 16:12:38 2020.
