 Gaussian 09, Revision D.01,

 -----------------
 #p b3lyp/6-31G(d)
 -----------------

 ----------------------------------------
 SET_328_BBB2_conf1_geo_225_285.n.pdb.xyz
 ----------------------------------------
 Symbolic Z-matrix:
 Charge =  0 Multiplicity = 1

 SCF Done:  E(RB3LYP) =  -1633.18860554     A.U. after   15 cycles
 Normal termination of Gaussian 09 at Sun Nov 22 16:12:06 2020.
 Gaussian 09:  AM64L-G09RevD.01 24-Apr-2013

 ----------------------------------------------------------------------
 #p b3lyp/6-31G(d) scrf=(iefpcm,read,solvent=Water) geom=allcheck guess
 =read
 ----------------------------------------------------------------------

 Structure from the checkpoint file:  "SET_328_BBB2_conf1_geo_225_285.n.pdb.xyz.mst.n.w.chk"
 ----------------------------------------
 SET_328_BBB2_conf1_geo_225_285.n.pdb.xyz
 ----------------------------------------
 Charge =  0 Multiplicity = 1

                         Standard orientation:
 ---------------------------------------------------------------------
 Center     Atomic      Atomic             Coordinates (Angstroms)
 Number     Number       Type             X           Y           Z
 ---------------------------------------------------------------------
      1          6           0        5.299864   -0.740856   -0.991553
      2          1           0        5.390580    0.231031   -0.481913
      3          1           0        5.374907   -0.558265   -2.069363
      4          1           0        6.151747   -1.359781   -0.693685
      5          7           0        4.066657   -1.468844   -0.709534
      6          1           0        4.040008   -1.677700    0.285136
      7          6           0        2.818630   -0.761473   -1.083254
      8          6           0        2.493190    0.407417   -0.153883
      9          6           0        1.573385    0.275566    0.905279
     10          6           0        1.394792    1.346848    1.794022
     11          6           0        2.092058    2.541675    1.641085
     12          6           0        2.976224    2.690611    0.571778
     13          6           0        3.167410    1.631830   -0.313343
     14          1           0        3.846406    1.750130   -1.151044
     15          1           0        3.509905    3.624544    0.425913
     16          1           0        1.937745    3.354137    2.343119
     17          1           0        0.686867    1.238235    2.611077
     18          1           0        2.993308   -0.369625   -2.092244
     19          6           0        1.666841   -1.773950   -1.128392
     20          1           0        1.992755   -2.650703   -1.694423
     21          1           0        0.813799   -1.340455   -1.664075
     22          6           0        1.239910   -2.181168    0.282312
     23          1           0        2.094107   -2.622354    0.810152
     24          1           0        0.467288   -2.954029    0.246386
     25          6           0        0.718795   -0.973187    1.096716
     26          1           0        0.757466   -1.250517    2.155274
     27          6           0       -0.754434   -0.714973    0.791230
     28          6           0       -1.167690    0.174713   -0.203743
     29          1           0       -0.438647    0.753531   -0.756858
     30          6           0       -2.521497    0.350602   -0.489580
     31         17           0       -2.970958    1.481407   -1.750796
     32          6           0       -3.490350   -0.359502    0.225153
     33         17           0       -5.198845   -0.159459   -0.097986
     34          6           0       -3.089437   -1.243894    1.227651
     35          1           0       -3.842818   -1.785820    1.786649
     36          6           0       -1.737059   -1.415487    1.503071
     37          1           0       -1.439177   -2.102202    2.288654
 ---------------------------------------------------------------------

 SCF Done:  E(RB3LYP) =  -1633.19508313     A.U. after   10 cycles

 The electronic state is 1-A.
 Alpha  occ. eigenvalues -- -101.56102-101.56078 -14.31542 -10.26700 -10.26539
 Alpha  occ. eigenvalues --  -10.21327 -10.21253 -10.21160 -10.20856 -10.20314
 Alpha  occ. eigenvalues --  -10.20313 -10.19720 -10.19559 -10.19333 -10.18910
 Alpha  occ. eigenvalues --  -10.18858 -10.18793 -10.18772 -10.18424 -10.17705
 Alpha  occ. eigenvalues --   -9.47716  -9.47693  -7.24121  -7.24096  -7.23149
 Alpha  occ. eigenvalues --   -7.23127  -7.23101  -7.23077  -0.91819  -0.90329
 Alpha  occ. eigenvalues --   -0.86451  -0.86177  -0.84453  -0.80767  -0.76872
 Alpha  occ. eigenvalues --   -0.75078  -0.73982  -0.73839  -0.70746  -0.65851
 Alpha  occ. eigenvalues --   -0.63175  -0.62477  -0.60835  -0.60158  -0.58865
 Alpha  occ. eigenvalues --   -0.54210  -0.51837  -0.50736  -0.49319  -0.47571
 Alpha  occ. eigenvalues --   -0.47338  -0.46591  -0.46047  -0.44122  -0.44029
 Alpha  occ. eigenvalues --   -0.43543  -0.42905  -0.42160  -0.41684  -0.40282
 Alpha  occ. eigenvalues --   -0.39737  -0.38795  -0.38068  -0.37611  -0.37325
 Alpha  occ. eigenvalues --   -0.36131  -0.35277  -0.35181  -0.34852  -0.33688
 Alpha  occ. eigenvalues --   -0.33441  -0.32654  -0.31558  -0.31370  -0.31162
 Alpha  occ. eigenvalues --   -0.26296  -0.25086  -0.24922  -0.24071  -0.21734
 Alpha virt. eigenvalues --   -0.02471  -0.02099  -0.00862  -0.00098   0.00202
 Alpha virt. eigenvalues --    0.05764   0.09191   0.10104   0.11016   0.11964
 Alpha virt. eigenvalues --    0.12484   0.13409   0.14074   0.14800   0.15447

 Mulliken charges:
               1
     1  C   -0.311339
     2  H    0.134231
     3  H    0.151897
     4  H    0.153363
     5  N   -0.576292
     6  H    0.330411
     7  C   -0.057028
     8  C    0.107588
     9  C    0.089965
    10  C   -0.190185
    11  C   -0.151726
    12  C   -0.150107
    13  C   -0.207111
    14  H    0.146767
    15  H    0.147714
    16  H    0.147710
    17  H    0.143211
    18  H    0.144216
    19  C   -0.269473
    20  H    0.141278
    21  H    0.142373
    22  C   -0.287378
    23  H    0.152424
    24  H    0.149767
    25  C   -0.250473
    26  H    0.162119
    27  C    0.170327
    28  C   -0.181442
    29  H    0.173146
    30  C   -0.080506
    31  Cl  -0.011373
    32  C   -0.080696
    33  Cl  -0.010725
    34  C   -0.134278
    35  H    0.180758
    36  C   -0.184147
    37  H    0.165012
 Sum of Mulliken charges =   0.00000

 Dipole moment (field-independent basis, Debye):
    X=              3.2577    Y=             -1.1945    Z=              2.8430  Tot=              4.4858
 Quadrupole moment (field-independent basis, Debye-Ang):
   XX=           -138.5928   YY=           -127.9277   ZZ=           -126.3519
   XY=              8.8500   XZ=             -4.8056   YZ=             -4.9764

 Normal termination of Gaussian 09 at Sun Nov 22 16:16:25 2020.
