 Gaussian 09, Revision D.01,

 -----------------
 #p b3lyp/6-31G(d)
 -----------------

 ------------------------------------------
 SET_328_BBB315_conf1_geo_285_285.n.pdb.xyz
 ------------------------------------------
 Symbolic Z-matrix:
 Charge =  0 Multiplicity = 1

 SCF Done:  E(RB3LYP) =  -513.825993127     A.U. after   15 cycles
 Normal termination of Gaussian 09 at Thu Nov 12 20:41:15 2020.
 Gaussian 09:  AM64L-G09RevD.01 24-Apr-2013

 ----------------------------------------------------------------------
 #p b3lyp/6-31G(d) scrf=(iefpcm,read,solvent=Water) geom=allcheck guess
 =read
 ----------------------------------------------------------------------

 Structure from the checkpoint file:  "SET_328_BBB315_conf1_geo_285_285.n.pdb.xyz.mst.n.w.chk"
 ------------------------------------------
 SET_328_BBB315_conf1_geo_285_285.n.pdb.xyz
 ------------------------------------------
 Charge =  0 Multiplicity = 1

                         Standard orientation:
 ---------------------------------------------------------------------
 Center     Atomic      Atomic             Coordinates (Angstroms)
 Number     Number       Type             X           Y           Z
 ---------------------------------------------------------------------
      1          7           0        3.375804    0.567384    1.280246
      2          1           0        3.965692    0.267388    2.058721
      3          1           0        2.433978    0.624806    1.666766
      4          6           0        3.395839   -0.473984    0.245262
      5          1           0        3.063021   -1.461154    0.602728
      6          1           0        4.428418   -0.590589   -0.096366
      7          6           0        2.528200   -0.071848   -0.956035
      8          1           0        2.686937   -0.802023   -1.758644
      9          1           0        2.867547    0.901424   -1.324328
     10          6           0        1.065666   -0.004080   -0.639146
     11          6           0        0.279563    1.127335   -0.536666
     12          1           0        0.498141    2.174305   -0.669243
     13          7           0       -0.985980    0.681907   -0.213385
     14          6           0       -2.155097    1.366395    0.003796
     15          1           0       -2.107429    2.442665   -0.086221
     16          6           0       -3.288259    0.668515    0.315049
     17          1           0       -4.208403    1.212896    0.487235
     18          6           0       -3.253773   -0.750932    0.411125
     19          1           0       -4.160071   -1.290882    0.659078
     20          6           0       -2.082276   -1.434399    0.192129
     21          1           0       -2.024185   -2.514258    0.257345
     22          6           0       -0.907442   -0.716967   -0.129523
     23          7           0        0.333295   -1.138546   -0.385863
 ---------------------------------------------------------------------

 SCF Done:  E(RB3LYP) =  -513.840051596     A.U. after   11 cycles

 The electronic state is 1-A.
 Alpha  occ. eigenvalues --  -14.41457 -14.31251 -14.30282 -10.25057 -10.23871
 Alpha  occ. eigenvalues --  -10.21303 -10.20992 -10.20202 -10.20158 -10.20099
 Alpha  occ. eigenvalues --  -10.19906 -10.18289  -1.03054  -0.90598  -0.86984
 Alpha  occ. eigenvalues --   -0.83077  -0.77215  -0.74520  -0.71811  -0.64476
 Alpha  occ. eigenvalues --   -0.62183  -0.61337  -0.56397  -0.52625  -0.49956
 Alpha  occ. eigenvalues --   -0.48439  -0.47574  -0.46435  -0.45674  -0.44923
 Alpha  occ. eigenvalues --   -0.43715  -0.41113  -0.38948  -0.37340  -0.37063
 Alpha  occ. eigenvalues --   -0.35732  -0.34797  -0.33166  -0.32071  -0.27963
 Alpha  occ. eigenvalues --   -0.24080  -0.23158  -0.21027
 Alpha virt. eigenvalues --   -0.03147   0.00598   0.06175   0.09913   0.10369
 Alpha virt. eigenvalues --    0.12542   0.13622   0.14170   0.15282   0.16193
 Alpha virt. eigenvalues --    0.16630   0.17252   0.17522   0.18328   0.19205

 Mulliken charges:
               1
     1  N   -0.776733
     2  H    0.328154
     3  H    0.322018
     4  C   -0.131003
     5  H    0.126845
     6  H    0.142333
     7  C   -0.330231
     8  H    0.152909
     9  H    0.148883
    10  C    0.225202
    11  C   -0.045428
    12  H    0.183421
    13  N   -0.468509
    14  C    0.072180
    15  H    0.197879
    16  C   -0.203699
    17  H    0.169617
    18  C   -0.133332
    19  H    0.164010
    20  C   -0.199691
    21  H    0.165208
    22  C    0.519019
    23  N   -0.629054
 Sum of Mulliken charges =   0.00000

 Dipole moment (field-independent basis, Debye):
    X=             -2.9287    Y=              2.3003    Z=              1.2284  Tot=              3.9214
 Quadrupole moment (field-independent basis, Debye-Ang):
   XX=            -59.8678   YY=            -67.9086   ZZ=            -69.0909
   XY=             -5.2527   XZ=             -0.0148   YZ=             -3.0799

 Normal termination of Gaussian 09 at Thu Nov 12 20:42:26 2020.
