 Gaussian 09, Revision D.01,

 -----------------
 #p b3lyp/6-31G(d)
 -----------------

 -----------------------------------------
 SET_328_BBB87_conf1_geo_285_105.n.pdb.xyz
 -----------------------------------------
 Symbolic Z-matrix:
 Charge =  0 Multiplicity = 1

 SCF Done:  E(RB3LYP) =  -703.020995315     A.U. after   15 cycles
 Normal termination of Gaussian 09 at Thu Nov 12 20:47:35 2020.
 Gaussian 09:  AM64L-G09RevD.01 24-Apr-2013

 ----------------------------------------------------------------------
 #p b3lyp/6-31G(d) scrf=(iefpcm,read,solvent=Water) geom=allcheck guess
 =read
 ----------------------------------------------------------------------

 Structure from the checkpoint file:  "SET_328_BBB87_conf1_geo_285_105.n.pdb.xyz.mst.n.w.chk"
 -----------------------------------------
 SET_328_BBB87_conf1_geo_285_105.n.pdb.xyz
 -----------------------------------------
 Charge =  0 Multiplicity = 1

                         Standard orientation:
 ---------------------------------------------------------------------
 Center     Atomic      Atomic             Coordinates (Angstroms)
 Number     Number       Type             X           Y           Z
 ---------------------------------------------------------------------
      1          7           0       -2.409671    0.355584   -1.144019
      2          1           0       -2.771520    1.292172   -0.947880
      3          1           0       -3.101281   -0.079047   -1.753461
      4          6           0       -2.344912   -0.396693    0.111442
      5          1           0       -2.064417   -1.428804   -0.124980
      6          1           0       -3.298843   -0.446136    0.656413
      7          6           0       -1.300619    0.209714    1.057731
      8          1           0       -1.300116   -0.362059    1.992010
      9          1           0       -1.581477    1.237342    1.310880
     10          6           0        0.084948    0.263757    0.489301
     11          7           0        0.768691    1.359369    0.299651
     12          6           0        2.014623    1.092545   -0.233572
     13          1           0        2.686475    1.915874   -0.442762
     14          6           0        2.300096   -0.220264   -0.457823
     15          1           0        3.201303   -0.657950   -0.864855
     16         16           0        0.949495   -1.198151    0.017671
 ---------------------------------------------------------------------

 SCF Done:  E(RB3LYP) =  -703.034045261     A.U. after   11 cycles

 The electronic state is 1-A.
 Alpha  occ. eigenvalues --  -88.91176 -14.33614 -14.30627 -10.25550 -10.21796
 Alpha  occ. eigenvalues --  -10.21713 -10.20906 -10.19590  -7.97358  -5.93732
 Alpha  occ. eigenvalues --   -5.93387  -5.93082  -0.96124  -0.87553  -0.79548
 Alpha  occ. eigenvalues --   -0.77739  -0.70894  -0.62234  -0.58230  -0.53857
 Alpha  occ. eigenvalues --   -0.49943  -0.48342  -0.45412  -0.44338  -0.41237
 Alpha  occ. eigenvalues --   -0.39889  -0.38379  -0.36627  -0.36381  -0.34569
 Alpha  occ. eigenvalues --   -0.28377  -0.27844  -0.24150  -0.23542
 Alpha virt. eigenvalues --   -0.02289   0.02325   0.05191   0.08785   0.10454
 Alpha virt. eigenvalues --    0.12994   0.13926   0.14570   0.17202   0.17471
 Alpha virt. eigenvalues --    0.19153   0.19348   0.21956   0.23762   0.23870

 Mulliken charges:
               1
     1  N   -0.765250
     2  H    0.326016
     3  H    0.332923
     4  C   -0.137186
     5  H    0.153390
     6  H    0.136150
     7  C   -0.332432
     8  H    0.177094
     9  H    0.172908
    10  C    0.126709
    11  N   -0.461714
    12  C    0.030547
    13  H    0.169750
    14  C   -0.355283
    15  H    0.205671
    16  S    0.220705
 Sum of Mulliken charges =   0.00000

 Dipole moment (field-independent basis, Debye):
    X=             -1.8744    Y=             -1.5167    Z=              0.2269  Tot=              2.4218
 Quadrupole moment (field-independent basis, Debye-Ang):
   XX=            -37.9962   YY=            -56.0645   ZZ=            -55.3793
   XY=             -1.3054   XZ=             -1.9971   YZ=             -0.4546

 Normal termination of Gaussian 09 at Thu Nov 12 20:48:05 2020.
