 Gaussian 09, Revision D.01,

 -----------------
 #p b3lyp/6-31G(d)
 -----------------

 ------------------------------------------
 SET_328_BBB277_conf1_geo_210_285.n.pdb.xyz
 ------------------------------------------
 Symbolic Z-matrix:
 Charge =  0 Multiplicity = 1

 SCF Done:  E(RB3LYP) =  -899.139221828     A.U. after   15 cycles
 Normal termination of Gaussian 09 at Sun Nov 22 16:09:40 2020.
 Gaussian 09:  AM64L-G09RevD.01 24-Apr-2013

 ----------------------------------------------------------------------
 #p b3lyp/6-31G(d) scrf=(iefpcm,read,solvent=Water) geom=allcheck guess
 =read
 ----------------------------------------------------------------------

 Structure from the checkpoint file:  "SET_328_BBB277_conf1_geo_210_285.n.pdb.xyz.mst.n.w.chk"
 ------------------------------------------
 SET_328_BBB277_conf1_geo_210_285.n.pdb.xyz
 ------------------------------------------
 Charge =  0 Multiplicity = 1

                         Standard orientation:
 ---------------------------------------------------------------------
 Center     Atomic      Atomic             Coordinates (Angstroms)
 Number     Number       Type             X           Y           Z
 ---------------------------------------------------------------------
      1          6           0        2.711481    2.575548    0.860132
      2          1           0        3.310428    3.118067    0.121982
      3          1           0        3.304476    2.528421    1.779236
      4          1           0        1.808186    3.155062    1.063236
      5          6           0        2.365880    1.201968    0.369596
      6          6           0        3.449252    0.288759    0.042025
      7          7           0        3.035244   -0.963517   -0.420817
      8          6           0        1.743208   -1.420879   -0.582282
      9          8           0        1.482956   -2.554427   -0.975663
     10          1           0        3.765487   -1.629821   -0.653776
     11          8           0        4.648963    0.545765    0.142294
     12          6           0        1.092661    0.769945    0.203457
     13          1           0        0.239398    1.405089    0.398879
     14          7           0        0.768759   -0.487897   -0.256065
     15          6           0       -0.641188   -0.899448   -0.397845
     16          8           0       -1.412516    0.221689   -0.813756
     17          1           0       -0.640733   -1.656881   -1.181178
     18          6           0       -1.274449   -1.419460    0.898758
     19          1           0       -0.817960   -0.937768    1.767357
     20          1           0       -1.173707   -2.500187    1.002173
     21          6           0       -2.712546   -0.935808    0.776575
     22          9           0       -3.310376   -0.740836    2.021085
     23          1           0       -3.340571   -1.635015    0.218708
     24          6           0       -2.562163    0.398528    0.038814
     25          1           0       -2.351934    1.181339    0.781624
     26          6           0       -3.767925    0.794341   -0.799736
     27          1           0       -4.653790    0.774044   -0.150287
     28          1           0       -3.910023    0.054407   -1.592933
     29          8           0       -3.615282    2.051269   -1.441858
     30          1           0       -3.632129    2.735328   -0.751716
 ---------------------------------------------------------------------

 SCF Done:  E(RB3LYP) =  -899.165152226     A.U. after   11 cycles

 The electronic state is 1-A.
 Alpha  occ. eigenvalues --  -24.68889 -19.17447 -19.14643 -19.13378 -19.12784
 Alpha  occ. eigenvalues --  -14.40419 -14.38605 -10.33970 -10.30389 -10.29349
 Alpha  occ. eigenvalues --  -10.27525 -10.25195 -10.24846 -10.23601 -10.20554
 Alpha  occ. eigenvalues --  -10.20162 -10.18596  -1.19470  -1.08226  -1.06422
 Alpha  occ. eigenvalues --   -1.04077  -1.01741  -0.97637  -0.92792  -0.81790
 Alpha  occ. eigenvalues --   -0.80260  -0.77514  -0.71272  -0.69070  -0.67576
 Alpha  occ. eigenvalues --   -0.64340  -0.62104  -0.60015  -0.56975  -0.54524
 Alpha  occ. eigenvalues --   -0.53230  -0.51922  -0.50946  -0.49862  -0.48647
 Alpha  occ. eigenvalues --   -0.46586  -0.46333  -0.45348  -0.44815  -0.44365
 Alpha  occ. eigenvalues --   -0.43059  -0.42250  -0.41924  -0.40818  -0.40147
 Alpha  occ. eigenvalues --   -0.39343  -0.38613  -0.38266  -0.37121  -0.35840
 Alpha  occ. eigenvalues --   -0.34357  -0.33841  -0.32024  -0.30244  -0.28891
 Alpha  occ. eigenvalues --   -0.28453  -0.27005  -0.26399  -0.23346
 Alpha virt. eigenvalues --   -0.03463   0.00971   0.06626   0.09263   0.09524
 Alpha virt. eigenvalues --    0.10100   0.10687   0.11702   0.12192   0.12469
 Alpha virt. eigenvalues --    0.13489   0.14312   0.15476   0.15875   0.16989

 Mulliken charges:
               1
     1  C   -0.521221
     2  H    0.172399
     3  H    0.172165
     4  H    0.168369
     5  C    0.034853
     6  C    0.600962
     7  N   -0.706041
     8  C    0.816373
     9  O   -0.575872
    10  H    0.395150
    11  O   -0.575334
    12  C    0.059318
    13  H    0.204922
    14  N   -0.509836
    15  C    0.277698
    16  O   -0.533128
    17  H    0.189108
    18  C   -0.359106
    19  H    0.184558
    20  H    0.195152
    21  C    0.184307
    22  F   -0.334178
    23  H    0.167623
    24  C    0.091807
    25  H    0.156876
    26  C   -0.046294
    27  H    0.150091
    28  H    0.159808
    29  O   -0.658801
    30  H    0.438271
 Sum of Mulliken charges =   0.00000

 Dipole moment (field-independent basis, Debye):
    X=             -5.1413    Y=              1.1126    Z=              2.7172  Tot=              5.9206
 Quadrupole moment (field-independent basis, Debye-Ang):
   XX=           -115.0371   YY=            -95.4887   ZZ=           -105.4018
   XY=             -2.7070   XZ=             -3.7735   YZ=              3.9594

 Normal termination of Gaussian 09 at Sun Nov 22 16:12:33 2020.
