 Gaussian 09, Revision D.01,

 -----------------
 #p b3lyp/6-31G(d)
 -----------------

 -----------------------------------------
 SET_328_BBB23_conf1_geo_300_180.n.pdb.xyz
 -----------------------------------------
 Symbolic Z-matrix:
 Charge =  0 Multiplicity = 1

 SCF Done:  E(RB3LYP) =  -237.082839359     A.U. after   12 cycles
 Normal termination of Gaussian 09 at Thu Nov 12 20:33:53 2020.
 Gaussian 09:  AM64L-G09RevD.01 24-Apr-2013

 ----------------------------------------------------------------------
 #p b3lyp/6-31G(d) scrf=(iefpcm,read,solvent=Water) geom=allcheck guess
 =read
 ----------------------------------------------------------------------

 Structure from the checkpoint file:  "SET_328_BBB23_conf1_geo_300_180.n.pdb.xyz.mst.n.w.chk"
 -----------------------------------------
 SET_328_BBB23_conf1_geo_300_180.n.pdb.xyz
 -----------------------------------------
 Charge =  0 Multiplicity = 1

                         Standard orientation:
 ---------------------------------------------------------------------
 Center     Atomic      Atomic             Coordinates (Angstroms)
 Number     Number       Type             X           Y           Z
 ---------------------------------------------------------------------
      1          6           0       -2.268859   -0.854970   -0.178114
      2          1           0       -1.848058   -1.771230    0.246382
      3          1           0       -2.290219   -0.971850   -1.267091
      4          1           0       -3.303769   -0.776393    0.169058
      5          6           0       -1.462424    0.381298    0.223936
      6          1           0       -1.478898    0.490744    1.317635
      7          1           0       -1.963171    1.273653   -0.175238
      8          6           0       -0.001252    0.387406   -0.256232
      9          6           0        0.619414    1.772940   -0.027130
     10          1           0        0.640369    2.015291    1.040949
     11          1           0        0.034329    2.549138   -0.531786
     12          1           0        1.646513    1.831055   -0.402145
     13          1           0       -0.009155    0.193921   -1.339336
     14          6           0        0.822628   -0.726741    0.413910
     15          1           0        0.278227   -1.674375    0.328420
     16          1           0        0.893910   -0.512888    1.488396
     17          6           0        2.227967   -0.916338   -0.164497
     18          1           0        2.183619   -1.147479   -1.234009
     19          1           0        2.748249   -1.741560    0.332080
     20          1           0        2.843204   -0.019593   -0.044547
 ---------------------------------------------------------------------

 SCF Done:  E(RB3LYP) =  -237.081795535     A.U. after    7 cycles

 The electronic state is 1-A.
 Alpha  occ. eigenvalues --  -10.17828 -10.17217 -10.17160 -10.16763 -10.16758
 Alpha  occ. eigenvalues --  -10.16568  -0.80726  -0.74147  -0.70836  -0.63570
 Alpha  occ. eigenvalues --   -0.60297  -0.54721  -0.45743  -0.44120  -0.43347
 Alpha  occ. eigenvalues --   -0.41078  -0.40258  -0.37762  -0.36180  -0.35765
 Alpha  occ. eigenvalues --   -0.34436  -0.33594  -0.31205  -0.30449  -0.30206
 Alpha virt. eigenvalues --    0.09134   0.11238   0.12372   0.13011   0.15735
 Alpha virt. eigenvalues --    0.16024   0.16996   0.17445   0.18126   0.18664
 Alpha virt. eigenvalues --    0.19245   0.19821   0.22572   0.23772   0.25380

 Mulliken charges:
               1
     1  C   -0.458506
     2  H    0.149799
     3  H    0.143612
     4  H    0.143578
     5  C   -0.249368
     6  H    0.127406
     7  H    0.128986
     8  C   -0.056020
     9  C   -0.460654
    10  H    0.139900
    11  H    0.141495
    12  H    0.146074
    13  H    0.116028
    14  C   -0.252613
    15  H    0.135721
    16  H    0.127308
    17  C   -0.457517
    18  H    0.143359
    19  H    0.142967
    20  H    0.148444
 Sum of Mulliken charges =   0.00000

 Dipole moment (field-independent basis, Debye):
    X=             -0.0493    Y=             -0.0321    Z=             -0.0193  Tot=              0.0620
 Quadrupole moment (field-independent basis, Debye-Ang):
   XX=            -41.9371   YY=            -41.7877   ZZ=            -41.1239
   XY=             -0.1995   XZ=              0.1269   YZ=             -0.1595

 Normal termination of Gaussian 09 at Thu Nov 12 20:34:16 2020.
