 Gaussian 09, Revision D.01,

 -----------------
 #p b3lyp/6-31G(d)
 -----------------

 ------------------------------------------
 SET_328_BBB304_conf1_geo_210_060.n.pdb.xyz
 ------------------------------------------
 Symbolic Z-matrix:
 Charge =  0 Multiplicity = 1

 SCF Done:  E(RB3LYP) =  -740.706508719     A.U. after   15 cycles
 Normal termination of Gaussian 09 at Sun Nov 22 16:08:39 2020.
 Gaussian 09:  AM64L-G09RevD.01 24-Apr-2013

 ----------------------------------------------------------------------
 #p b3lyp/6-31G(d) scrf=(iefpcm,read,solvent=Water) geom=allcheck guess
 =read
 ----------------------------------------------------------------------

 Structure from the checkpoint file:  "SET_328_BBB304_conf1_geo_210_060.n.pdb.xyz.mst.n.w.chk"
 ------------------------------------------
 SET_328_BBB304_conf1_geo_210_060.n.pdb.xyz
 ------------------------------------------
 Charge =  0 Multiplicity = 1

                         Standard orientation:
 ---------------------------------------------------------------------
 Center     Atomic      Atomic             Coordinates (Angstroms)
 Number     Number       Type             X           Y           Z
 ---------------------------------------------------------------------
      1          7           0       -4.710057   -0.458453   -0.197251
      2          1           0       -5.121855   -1.373894   -0.314753
      3          1           0       -5.300704    0.354376   -0.326478
      4          6           0       -3.374772   -0.300369   -0.142318
      5          6           0       -2.525888   -1.451885   -0.082134
      6          6           0       -1.189216   -1.222241   -0.023863
      7          1           0       -0.447680   -2.008543    0.000947
      8          1           0       -2.925705   -2.456160   -0.093777
      9          7           0       -2.898103    0.946206   -0.130623
     10          6           0       -1.561182    1.165176   -0.045819
     11          8           0       -1.066983    2.290681    0.009792
     12          7           0       -0.695651    0.045564   -0.018635
     13          6           0        0.752462    0.299583    0.067542
     14          8           0        1.425697   -0.783256   -0.547821
     15          1           0        0.915022    1.230721   -0.476303
     16          6           0        1.283771    0.388613    1.508554
     17          1           0        0.605127   -0.142323    2.180048
     18          1           0        1.335066    1.427654    1.836413
     19          6           0        2.662263   -0.292105    1.450344
     20          1           0        2.774730   -1.020586    2.254312
     21          1           0        3.472217    0.434053    1.536982
     22          6           0        2.712653   -0.992095    0.075511
     23          1           0        2.836693   -2.073963    0.173244
     24          6           0        3.813357   -0.464293   -0.836883
     25          1           0        3.762013   -0.976710   -1.806301
     26          1           0        4.783032   -0.694995   -0.384443
     27          8           0        3.758073    0.948847   -1.002449
     28          1           0        3.063747    1.134660   -1.656107
 ---------------------------------------------------------------------

 SCF Done:  E(RB3LYP) =  -740.738965315     A.U. after   11 cycles

 The electronic state is 1-A.
 Alpha  occ. eigenvalues --  -19.16209 -19.14557 -19.10568 -14.38972 -14.35460
 Alpha  occ. eigenvalues --  -14.31351 -10.30595 -10.27994 -10.27680 -10.24733
 Alpha  occ. eigenvalues --  -10.23683 -10.22717 -10.19186 -10.18795 -10.18501
 Alpha  occ. eigenvalues --   -1.06356  -1.04106  -1.01342  -0.96903  -0.94526
 Alpha  occ. eigenvalues --   -0.87241  -0.79132  -0.78460  -0.75279  -0.68328
 Alpha  occ. eigenvalues --   -0.66001  -0.63937  -0.60659  -0.58431  -0.56346
 Alpha  occ. eigenvalues --   -0.53440  -0.51893  -0.51086  -0.49393  -0.48049
 Alpha  occ. eigenvalues --   -0.47144  -0.45472  -0.45237  -0.43984  -0.43245
 Alpha  occ. eigenvalues --   -0.41897  -0.40984  -0.39829  -0.38798  -0.36515
 Alpha  occ. eigenvalues --   -0.35981  -0.34509  -0.33669  -0.33478  -0.32275
 Alpha  occ. eigenvalues --   -0.29373  -0.27559  -0.26697  -0.25392  -0.24589
 Alpha  occ. eigenvalues --   -0.22814
 Alpha virt. eigenvalues --   -0.02693   0.02058   0.07164   0.09618   0.10100
 Alpha virt. eigenvalues --    0.11148   0.11710   0.13509   0.13661   0.14276
 Alpha virt. eigenvalues --    0.15570   0.15708   0.16261   0.17526   0.17920

 Mulliken charges:
               1
     1  N   -0.786183
     2  H    0.393010
     3  H    0.383725
     4  C    0.538410
     5  C   -0.242808
     6  C    0.115057
     7  H    0.204214
     8  H    0.171535
     9  N   -0.644867
    10  C    0.709975
    11  O   -0.616754
    12  N   -0.495154
    13  C    0.295186
    14  O   -0.542257
    15  H    0.163340
    16  C   -0.308963
    17  H    0.165179
    18  H    0.170488
    19  C   -0.314445
    20  H    0.164092
    21  H    0.167783
    22  C    0.137449
    23  H    0.149659
    24  C   -0.060531
    25  H    0.146533
    26  H    0.153342
    27  O   -0.659326
    28  H    0.442311
 Sum of Mulliken charges =   0.00000

 Dipole moment (field-independent basis, Debye):
    X=             -1.5162    Y=             -8.8942    Z=              0.1012  Tot=              9.0231
 Quadrupole moment (field-independent basis, Debye-Ang):
   XX=            -61.3115   YY=            -94.3316   ZZ=            -83.9089
   XY=             10.7084   XZ=              4.1704   YZ=             -1.1218

 Normal termination of Gaussian 09 at Sun Nov 22 16:10:45 2020.
