 Gaussian 09, Revision D.01,

 -----------------
 #p b3lyp/6-31G(d)
 -----------------

 ------------------------------------------
 SET_328_BBB212_conf1_geo_135_120.n.pdb.xyz
 ------------------------------------------
 Symbolic Z-matrix:
 Charge =  0 Multiplicity = 1

 SCF Done:  E(RB3LYP) =  -731.667267085     A.U. after   14 cycles
 Normal termination of Gaussian 09 at Sun Nov 22 16:10:07 2020.
 Gaussian 09:  AM64L-G09RevD.01 24-Apr-2013

 ----------------------------------------------------------------------
 #p b3lyp/6-31G(d) scrf=(iefpcm,read,solvent=Water) geom=allcheck guess
 =read
 ----------------------------------------------------------------------

 Structure from the checkpoint file:  "SET_328_BBB212_conf1_geo_135_120.n.pdb.xyz.mst.n.w.chk"
 ------------------------------------------
 SET_328_BBB212_conf1_geo_135_120.n.pdb.xyz
 ------------------------------------------
 Charge =  0 Multiplicity = 1

                         Standard orientation:
 ---------------------------------------------------------------------
 Center     Atomic      Atomic             Coordinates (Angstroms)
 Number     Number       Type             X           Y           Z
 ---------------------------------------------------------------------
      1          6           0       -0.055247    2.410012   -1.187406
      2          1           0        0.792363    3.102156   -1.195354
      3          1           0       -0.971766    3.004000   -1.144043
      4          1           0       -0.055506    1.860133   -2.132801
      5          6           0        0.004760    1.457716    0.031065
      6          6           0        0.068576    2.338352    1.301442
      7          1           0        0.088675    1.738905    2.216529
      8          1           0       -0.787625    3.018462    1.357873
      9          1           0        0.977881    2.944661    1.279639
     10          6           0        1.263378    0.565156    0.007113
     11          6           0        2.323014    0.760465   -0.889063
     12          6           0        3.468484   -0.035749   -0.854449
     13          6           0        3.585033   -1.057476    0.090315
     14          8           0        4.727745   -1.805244    0.078341
     15          1           0        4.683889   -2.477643    0.781812
     16          6           0        2.539187   -1.273704    0.995045
     17          6           0        1.401647   -0.471822    0.944091
     18          1           0        0.599314   -0.665145    1.648194
     19          1           0        2.612982   -2.067146    1.732100
     20          1           0        4.277418    0.127887   -1.557509
     21          1           0        2.268996    1.544112   -1.636014
     22          6           0       -1.258850    0.574737    0.005681
     23          6           0       -2.250172    0.630890    0.992389
     24          1           0       -2.136162    1.301671    1.835664
     25          6           0       -3.399881   -0.160709    0.925831
     26          1           0       -4.150939   -0.097220    1.708300
     27          6           0       -3.584818   -1.035194   -0.146964
     28          8           0       -4.683218   -1.835137   -0.277135
     29          1           0       -5.281362   -1.688061    0.476779
     30          6           0       -2.605865   -1.109243   -1.146740
     31          1           0       -2.749913   -1.790807   -1.977428
     32          6           0       -1.466973   -0.316534   -1.061668
     33          1           0       -0.718106   -0.394299   -1.843482
 ---------------------------------------------------------------------

 SCF Done:  E(RB3LYP) =  -731.686280089     A.U. after   11 cycles

 The electronic state is 1-A.
 Alpha  occ. eigenvalues --  -19.17319 -19.17303 -10.24728 -10.24706 -10.20731
 Alpha  occ. eigenvalues --  -10.18866 -10.18840 -10.18785 -10.18782 -10.18756
 Alpha  occ. eigenvalues --  -10.18754 -10.18651 -10.18571 -10.18447 -10.18324
 Alpha  occ. eigenvalues --  -10.17297 -10.17296  -1.05290  -1.05236  -0.86282
 Alpha  occ. eigenvalues --   -0.84491  -0.80336  -0.74665  -0.74565  -0.73082
 Alpha  occ. eigenvalues --   -0.71698  -0.68481  -0.63065  -0.61866  -0.60727
 Alpha  occ. eigenvalues --   -0.59594  -0.55477  -0.53916  -0.53909  -0.49386
 Alpha  occ. eigenvalues --   -0.47694  -0.46323  -0.45043  -0.44343  -0.44315
 Alpha  occ. eigenvalues --   -0.41996  -0.41884  -0.41222  -0.40622  -0.40427
 Alpha  occ. eigenvalues --   -0.40066  -0.39365  -0.37930  -0.37912  -0.37128
 Alpha  occ. eigenvalues --   -0.35037  -0.34547  -0.33796  -0.33383  -0.31920
 Alpha  occ. eigenvalues --   -0.31840  -0.31420  -0.25298  -0.25109  -0.22329
 Alpha  occ. eigenvalues --   -0.20906
 Alpha virt. eigenvalues --   -0.00580  -0.00071   0.00925   0.01931   0.09388
 Alpha virt. eigenvalues --    0.09761   0.09802   0.10900   0.12628   0.13377
 Alpha virt. eigenvalues --    0.14343   0.14414   0.15804   0.15923   0.16016

 Mulliken charges:
               1
     1  C   -0.467668
     2  H    0.152171
     3  H    0.152066
     4  H    0.154638
     5  C   -0.048460
     6  C   -0.465206
     7  H    0.154275
     8  H    0.151721
     9  H    0.151575
    10  C    0.161538
    11  C   -0.221218
    12  C   -0.191668
    13  C    0.344006
    14  O   -0.680492
    15  H    0.457276
    16  C   -0.213059
    17  C   -0.207570
    18  H    0.144267
    19  H    0.151614
    20  H    0.143476
    21  H    0.144116
    22  C    0.160196
    23  C   -0.222849
    24  H    0.146216
    25  C   -0.216232
    26  H    0.150339
    27  C    0.344477
    28  O   -0.679918
    29  H    0.457333
    30  C   -0.189423
    31  H    0.144865
    32  C   -0.206388
    33  H    0.143987
 Sum of Mulliken charges =   0.00000

 Dipole moment (field-independent basis, Debye):
    X=             -1.3594    Y=             -0.2329    Z=              3.0614  Tot=              3.3577
 Quadrupole moment (field-independent basis, Debye-Ang):
   XX=            -92.1410   YY=            -94.4223   ZZ=            -93.6852
   XY=             -5.2978   XZ=             -5.1850   YZ=             -7.1200

 Normal termination of Gaussian 09 at Sun Nov 22 16:13:27 2020.
