 Gaussian 09, Revision D.01,

 -----------------
 #p b3lyp/6-31G(d)
 -----------------

 ------------------------------------------
 SET_328_BBB212_conf1_geo_315_300.n.pdb.xyz
 ------------------------------------------
 Symbolic Z-matrix:
 Charge =  0 Multiplicity = 1

 SCF Done:  E(RB3LYP) =  -731.667289531     A.U. after   15 cycles
 Normal termination of Gaussian 09 at Sun Nov 22 16:10:32 2020.
 Gaussian 09:  AM64L-G09RevD.01 24-Apr-2013

 ----------------------------------------------------------------------
 #p b3lyp/6-31G(d) scrf=(iefpcm,read,solvent=Water) geom=allcheck guess
 =read
 ----------------------------------------------------------------------

 Structure from the checkpoint file:  "SET_328_BBB212_conf1_geo_315_300.n.pdb.xyz.mst.n.w.chk"
 ------------------------------------------
 SET_328_BBB212_conf1_geo_315_300.n.pdb.xyz
 ------------------------------------------
 Charge =  0 Multiplicity = 1

                         Standard orientation:
 ---------------------------------------------------------------------
 Center     Atomic      Atomic             Coordinates (Angstroms)
 Number     Number       Type             X           Y           Z
 ---------------------------------------------------------------------
      1          6           0        0.058611    2.351437    1.267902
      2          1           0        0.966494    2.960147    1.241698
      3          1           0        0.071905    1.766552    2.191365
      4          1           0       -0.800057    3.028603    1.306332
      5          6           0        0.003032    1.452439    0.013481
      6          6           0       -0.047750    2.381981   -1.221226
      7          1           0       -0.956311    2.988134   -1.186223
      8          1           0       -0.054144    1.814892   -2.155329
      9          1           0        0.810117    3.060378   -1.240204
     10          6           0       -1.259506    0.571710   -0.001187
     11          6           0       -1.443659   -0.366940   -1.031334
     12          6           0       -2.582896   -1.159849   -1.109102
     13          6           0       -3.588427   -1.036208   -0.139701
     14          8           0       -4.684751   -1.840381   -0.264475
     15          1           0       -5.307462   -1.656435    0.460866
     16          6           0       -3.427332   -0.113287    0.896099
     17          6           0       -2.274867    0.677053    0.954158
     18          1           0       -2.180713    1.385986    1.768237
     19          1           0       -4.195335   -0.009049    1.658625
     20          1           0       -2.708791   -1.880278   -1.910919
     21          1           0       -0.674145   -0.484039   -1.788634
     22          6           0        1.260836    0.562061    0.009111
     23          6           0        1.396088   -0.462740    0.962066
     24          1           0        0.591016   -0.647113    1.667055
     25          6           0        2.533071   -1.261425    1.024992
     26          1           0        2.620295   -2.049474    1.764312
     27          6           0        3.584756   -1.057492    0.120084
     28          8           0        4.672267   -1.876284    0.227419
     29          1           0        5.328359   -1.638252   -0.449993
     30          6           0        3.472373   -0.045845   -0.837219
     31          1           0        4.276222    0.127180   -1.548349
     32          6           0        2.322964    0.747560   -0.882376
     33          1           0        2.268656    1.523354   -1.636874
 ---------------------------------------------------------------------

 SCF Done:  E(RB3LYP) =  -731.686318579     A.U. after   10 cycles

 The electronic state is 1-A.
 Alpha  occ. eigenvalues --  -19.17317 -19.17317 -10.24753 -10.24742 -10.20656
 Alpha  occ. eigenvalues --  -10.18831 -10.18806 -10.18768 -10.18765 -10.18740
 Alpha  occ. eigenvalues --  -10.18731 -10.18588 -10.18583 -10.18454 -10.18430
 Alpha  occ. eigenvalues --  -10.17271 -10.17262  -1.05272  -1.05266  -0.86313
 Alpha  occ. eigenvalues --   -0.84474  -0.80372  -0.74675  -0.74527  -0.73034
 Alpha  occ. eigenvalues --   -0.71758  -0.68510  -0.62550  -0.62023  -0.61534
 Alpha  occ. eigenvalues --   -0.59176  -0.55339  -0.53914  -0.53895  -0.49946
 Alpha  occ. eigenvalues --   -0.46917  -0.46056  -0.45641  -0.44488  -0.44262
 Alpha  occ. eigenvalues --   -0.42035  -0.41889  -0.40727  -0.40685  -0.40436
 Alpha  occ. eigenvalues --   -0.40270  -0.39407  -0.38363  -0.37361  -0.37216
 Alpha  occ. eigenvalues --   -0.35046  -0.34637  -0.33712  -0.33393  -0.31971
 Alpha  occ. eigenvalues --   -0.31762  -0.31465  -0.25308  -0.25063  -0.22305
 Alpha  occ. eigenvalues --   -0.20925
 Alpha virt. eigenvalues --   -0.00615   0.00009   0.00942   0.01882   0.09429
 Alpha virt. eigenvalues --    0.09757   0.09847   0.10884   0.12621   0.13423
 Alpha virt. eigenvalues --    0.14341   0.14464   0.15840   0.15911   0.16019

 Mulliken charges:
               1
     1  C   -0.465119
     2  H    0.151020
     3  H    0.154300
     4  H    0.152302
     5  C   -0.048515
     6  C   -0.466570
     7  H    0.151912
     8  H    0.154670
     9  H    0.152119
    10  C    0.161399
    11  C   -0.205802
    12  C   -0.189447
    13  C    0.343695
    14  O   -0.680100
    15  H    0.457410
    16  C   -0.216265
    17  C   -0.223450
    18  H    0.145994
    19  H    0.150398
    20  H    0.144794
    21  H    0.143647
    22  C    0.161751
    23  C   -0.205953
    24  H    0.143325
    25  C   -0.189368
    26  H    0.144476
    27  C    0.342686
    28  O   -0.679810
    29  H    0.457369
    30  C   -0.215249
    31  H    0.150501
    32  C   -0.222857
    33  H    0.144736
 Sum of Mulliken charges =   0.00000

 Dipole moment (field-independent basis, Debye):
    X=              0.0630    Y=              1.7487    Z=              0.1020  Tot=              1.7528
 Quadrupole moment (field-independent basis, Debye-Ang):
   XX=            -76.4557   YY=           -102.6658   ZZ=            -95.0150
   XY=              0.7793   XZ=            -19.5315   YZ=             -0.3638

 Normal termination of Gaussian 09 at Sun Nov 22 16:13:34 2020.
