 Gaussian 09, Revision D.01,

 -----------------
 #p b3lyp/6-31G(d)
 -----------------

 ----------------------------------------
 SET_328_BBB2_conf1_geo_240_060.n.pdb.xyz
 ----------------------------------------
 Symbolic Z-matrix:
 Charge =  0 Multiplicity = 1

 SCF Done:  E(RB3LYP) =  -1633.18990224     A.U. after   15 cycles
 Normal termination of Gaussian 09 at Sun Nov 22 16:11:54 2020.
 Gaussian 09:  AM64L-G09RevD.01 24-Apr-2013

 ----------------------------------------------------------------------
 #p b3lyp/6-31G(d) scrf=(iefpcm,read,solvent=Water) geom=allcheck guess
 =read
 ----------------------------------------------------------------------

 Structure from the checkpoint file:  "SET_328_BBB2_conf1_geo_240_060.n.pdb.xyz.mst.n.w.chk"
 ----------------------------------------
 SET_328_BBB2_conf1_geo_240_060.n.pdb.xyz
 ----------------------------------------
 Charge =  0 Multiplicity = 1

                         Standard orientation:
 ---------------------------------------------------------------------
 Center     Atomic      Atomic             Coordinates (Angstroms)
 Number     Number       Type             X           Y           Z
 ---------------------------------------------------------------------
      1          6           0       -5.416018   -1.017764   -0.260698
      2          1           0       -5.157007   -1.999340   -0.684145
      3          1           0       -5.170790   -0.258108   -1.008858
      4          1           0       -6.498266   -0.995036   -0.100798
      5          7           0       -4.746587   -0.697662    1.002294
      6          1           0       -5.039647   -1.373795    1.705757
      7          6           0       -3.274549   -0.715841    0.959251
      8          6           0       -2.720818    0.474847    0.177012
      9          6           0       -1.503394    0.402468   -0.530234
     10          6           0       -1.048211    1.539853   -1.216968
     11          6           0       -1.761885    2.735954   -1.201808
     12          6           0       -2.957938    2.812596   -0.485282
     13          6           0       -3.424186    1.688619    0.194051
     14          1           0       -4.356920    1.725560    0.745575
     15          1           0       -3.524080    3.738358   -0.457472
     16          1           0       -1.385842    3.600002   -1.741299
     17          1           0       -0.114430    1.480737   -1.767399
     18          1           0       -2.963564   -0.578216    2.004365
     19          6           0       -2.653186   -2.038196    0.489867
     20          1           0       -3.032628   -2.302306   -0.504906
     21          1           0       -2.958281   -2.837856    1.173579
     22          6           0       -1.132191   -1.921346    0.444907
     23          1           0       -0.668299   -2.887533    0.220809
     24          1           0       -0.761222   -1.613753    1.430599
     25          6           0       -0.692169   -0.893790   -0.616931
     26          1           0       -0.899701   -1.340411   -1.598123
     27          6           0        0.812068   -0.676285   -0.559722
     28          6           0        1.405585    0.001956    0.511003
     29          1           0        0.795204    0.428412    1.297636
     30          6           0        2.788211    0.152495    0.582370
     31         17           0        3.469800    1.014136    1.947622
     32          6           0        3.607008   -0.376356   -0.422115
     33         17           0        5.348515   -0.203372   -0.368347
     34          6           0        3.026827   -1.053171   -1.493173
     35          1           0        3.662192   -1.458870   -2.271445
     36          6           0        1.642578   -1.199346   -1.556773
     37          1           0        1.201636   -1.727351   -2.396139
 ---------------------------------------------------------------------

 SCF Done:  E(RB3LYP) =  -1633.19624613     A.U. after   10 cycles

 The electronic state is 1-A.
 Alpha  occ. eigenvalues -- -101.56109-101.56096 -14.31374 -10.26749 -10.26585
 Alpha  occ. eigenvalues --  -10.21257 -10.21182 -10.21171 -10.20953 -10.20357
 Alpha  occ. eigenvalues --  -10.20262 -10.19703 -10.19358 -10.19256 -10.18716
 Alpha  occ. eigenvalues --  -10.18639 -10.18587 -10.18437 -10.18185 -10.17618
 Alpha  occ. eigenvalues --   -9.47722  -9.47712  -7.24128  -7.24116  -7.23155
 Alpha  occ. eigenvalues --   -7.23145  -7.23107  -7.23095  -0.91842  -0.90121
 Alpha  occ. eigenvalues --   -0.86436  -0.86158  -0.84365  -0.80815  -0.76841
 Alpha  occ. eigenvalues --   -0.75009  -0.73829  -0.73656  -0.70490  -0.66471
 Alpha  occ. eigenvalues --   -0.63044  -0.61776  -0.60974  -0.60228  -0.57773
 Alpha  occ. eigenvalues --   -0.54737  -0.51858  -0.50284  -0.49255  -0.48811
 Alpha  occ. eigenvalues --   -0.47148  -0.46525  -0.45103  -0.44129  -0.43942
 Alpha  occ. eigenvalues --   -0.43825  -0.42426  -0.41805  -0.41302  -0.39930
 Alpha  occ. eigenvalues --   -0.39511  -0.38668  -0.38101  -0.37649  -0.37332
 Alpha  occ. eigenvalues --   -0.35976  -0.35375  -0.35277  -0.34321  -0.33804
 Alpha  occ. eigenvalues --   -0.33258  -0.33181  -0.32182  -0.31357  -0.30764
 Alpha  occ. eigenvalues --   -0.26217  -0.25062  -0.24345  -0.23755  -0.21732
 Alpha virt. eigenvalues --   -0.02395  -0.02152  -0.00665  -0.00093   0.00260
 Alpha virt. eigenvalues --    0.05722   0.09424   0.10722   0.11064   0.11417
 Alpha virt. eigenvalues --    0.12249   0.13107   0.14167   0.14785   0.15738

 Mulliken charges:
               1
     1  C   -0.316160
     2  H    0.135971
     3  H    0.153241
     4  H    0.151929
     5  N   -0.581519
     6  H    0.333729
     7  C   -0.031502
     8  C    0.079623
     9  C    0.100008
    10  C   -0.202096
    11  C   -0.153267
    12  C   -0.152019
    13  C   -0.191742
    14  H    0.144893
    15  H    0.144307
    16  H    0.145565
    17  H    0.140887
    18  H    0.150873
    19  C   -0.284840
    20  H    0.147476
    21  H    0.140742
    22  C   -0.279602
    23  H    0.147351
    24  H    0.147236
    25  C   -0.240531
    26  H    0.166121
    27  C    0.170098
    28  C   -0.175996
    29  H    0.174335
    30  C   -0.078624
    31  Cl  -0.010803
    32  C   -0.080307
    33  Cl  -0.010480
    34  C   -0.133927
    35  H    0.181061
    36  C   -0.197727
    37  H    0.165696
 Sum of Mulliken charges =   0.00000

 Dipole moment (field-independent basis, Debye):
    X=             -3.4534    Y=             -3.3583    Z=             -1.5358  Tot=              5.0559
 Quadrupole moment (field-independent basis, Debye-Ang):
   XX=           -141.2320   YY=           -124.3165   ZZ=           -126.3884
   XY=              4.8644   XZ=             -8.0997   YZ=             -0.7419

 Normal termination of Gaussian 09 at Sun Nov 22 16:16:07 2020.
