 Gaussian 09, Revision D.01,

 -----------------
 #p b3lyp/6-31G(d)
 -----------------

 -----------------------------------------
 SET_328_BBB87_conf1_geo_180_090.n.pdb.xyz
 -----------------------------------------
 Symbolic Z-matrix:
 Charge =  0 Multiplicity = 1

 SCF Done:  E(RB3LYP) =  -703.022391337     A.U. after   15 cycles
 Normal termination of Gaussian 09 at Thu Nov 12 20:46:04 2020.
 Gaussian 09:  AM64L-G09RevD.01 24-Apr-2013

 ----------------------------------------------------------------------
 #p b3lyp/6-31G(d) scrf=(iefpcm,read,solvent=Water) geom=allcheck guess
 =read
 ----------------------------------------------------------------------

 Structure from the checkpoint file:  "SET_328_BBB87_conf1_geo_180_090.n.pdb.xyz.mst.n.w.chk"
 -----------------------------------------
 SET_328_BBB87_conf1_geo_180_090.n.pdb.xyz
 -----------------------------------------
 Charge =  0 Multiplicity = 1

                         Standard orientation:
 ---------------------------------------------------------------------
 Center     Atomic      Atomic             Coordinates (Angstroms)
 Number     Number       Type             X           Y           Z
 ---------------------------------------------------------------------
      1          7           0       -3.584163    0.028786   -0.099942
      2          1           0       -3.762650   -0.944500    0.140780
      3          1           0       -4.186433    0.220529   -0.902119
      4          6           0       -2.185694    0.159702   -0.522009
      5          1           0       -2.044008    1.161245   -0.939049
      6          1           0       -1.884108   -0.558454   -1.300924
      7          6           0       -1.257388   -0.005869    0.696376
      8          1           0       -1.416078   -0.993394    1.140900
      9          1           0       -1.529502    0.740729    1.450382
     10          6           0        0.191385    0.171878    0.350167
     11          7           0        0.786785    1.328984    0.228578
     12          6           0        2.105696    1.180659   -0.146198
     13          1           0        2.719435    2.062546   -0.276957
     14          6           0        2.539054   -0.100171   -0.319795
     15          1           0        3.521268   -0.450153   -0.601214
     16         16           0        1.237838   -1.198758    0.002281
 ---------------------------------------------------------------------

 SCF Done:  E(RB3LYP) =  -703.034334383     A.U. after   11 cycles

 The electronic state is 1-A.
 Alpha  occ. eigenvalues --  -88.91476 -14.33789 -14.30683 -10.25698 -10.21954
 Alpha  occ. eigenvalues --  -10.21821 -10.20877 -10.19615  -7.97648  -5.94017
 Alpha  occ. eigenvalues --   -5.93673  -5.93383  -0.96319  -0.87530  -0.79745
 Alpha  occ. eigenvalues --   -0.77961  -0.70774  -0.61832  -0.58888  -0.53892
 Alpha  occ. eigenvalues --   -0.50230  -0.48082  -0.45612  -0.43903  -0.41765
 Alpha  occ. eigenvalues --   -0.40311  -0.37968  -0.36608  -0.36419  -0.34684
 Alpha  occ. eigenvalues --   -0.28541  -0.27961  -0.24385  -0.23672
 Alpha virt. eigenvalues --   -0.02485   0.01977   0.04800   0.09180   0.10623
 Alpha virt. eigenvalues --    0.12938   0.13871   0.14465   0.16146   0.17108
 Alpha virt. eigenvalues --    0.18678   0.19474   0.22247   0.23848   0.25257

 Mulliken charges:
               1
     1  N   -0.774489
     2  H    0.328487
     3  H    0.332868
     4  C   -0.125911
     5  H    0.152523
     6  H    0.131768
     7  C   -0.310543
     8  H    0.166650
     9  H    0.173522
    10  C    0.089060
    11  N   -0.454181
    12  C    0.034025
    13  H    0.171111
    14  C   -0.356044
    15  H    0.207128
    16  S    0.234025
 Sum of Mulliken charges =   0.00000

 Dipole moment (field-independent basis, Debye):
    X=              0.1858    Y=             -2.6999    Z=             -1.6584  Tot=              3.1740
 Quadrupole moment (field-independent basis, Debye-Ang):
   XX=            -44.3219   YY=            -56.2302   ZZ=            -55.2737
   XY=              5.0671   XZ=              3.0642   YZ=             -1.7782

 Normal termination of Gaussian 09 at Thu Nov 12 20:46:33 2020.
