 Gaussian 09, Revision D.01,

 -----------------
 #p b3lyp/6-31G(d)
 -----------------

 ------------------------------------------
 SET_328_BBB282_conf1_geo_000_270.n.pdb.xyz
 ------------------------------------------
 Symbolic Z-matrix:
 Charge =  0 Multiplicity = 1

 SCF Done:  E(RB3LYP) =  -799.720712145     A.U. after   16 cycles
 Normal termination of Gaussian 09 at Sun Nov 22 16:10:07 2020.
 Gaussian 09:  AM64L-G09RevD.01 24-Apr-2013

 ----------------------------------------------------------------------
 #p b3lyp/6-31G(d) scrf=(iefpcm,read,solvent=Water) geom=allcheck guess
 =read
 ----------------------------------------------------------------------

 Structure from the checkpoint file:  "SET_328_BBB282_conf1_geo_000_270.n.pdb.xyz.mst.n.w.chk"
 ------------------------------------------
 SET_328_BBB282_conf1_geo_000_270.n.pdb.xyz
 ------------------------------------------
 Charge =  0 Multiplicity = 1

                         Standard orientation:
 ---------------------------------------------------------------------
 Center     Atomic      Atomic             Coordinates (Angstroms)
 Number     Number       Type             X           Y           Z
 ---------------------------------------------------------------------
      1          6           0        1.073268    3.284885    0.893934
      2          1           0        0.195328    3.389606    1.536765
      3          1           0        1.483580    4.282714    0.710024
      4          1           0        1.827373    2.695043    1.421423
      5          6           0        0.705560    2.639908   -0.437800
      6          1           0        1.580320    2.536600   -1.076060
      7          1           0       -0.041793    3.232427   -0.965794
      8          7           0        0.124617    1.291324   -0.276744
      9          6           0       -1.208767    1.138615   -0.231725
     10          1           0       -1.788610    2.045556   -0.341281
     11          6           0       -1.870639   -0.061130   -0.063103
     12          6           0       -3.343833    0.042706   -0.048852
     13          8           0       -3.983490   -1.125278    0.121697
     14          1           0       -4.942142   -0.922461    0.113936
     15          8           0       -3.950989    1.100026   -0.178336
     16          6           0       -1.106823   -1.294609    0.075081
     17          8           0       -1.581110   -2.430519    0.222563
     18          6           0        0.356734   -1.093764    0.023491
     19          6           0        1.228229   -2.182974    0.143903
     20          1           0        0.791709   -3.165166    0.274131
     21          6           0        2.594535   -1.980828    0.096019
     22          1           0        3.289038   -2.807758    0.188217
     23          6           0        3.085477   -0.672841   -0.075509
     24          6           0        4.562690   -0.395392   -0.136657
     25          1           0        4.828251    0.047364   -1.101910
     26          1           0        5.142400   -1.309986   -0.000112
     27          1           0        4.848313    0.322279    0.639092
     28          7           0        2.269115    0.382397   -0.193239
     29          6           0        0.949373    0.172740   -0.144773
 ---------------------------------------------------------------------

 SCF Done:  E(RB3LYP) =  -799.741008231     A.U. after   12 cycles

 The electronic state is 1-A.
 Alpha  occ. eigenvalues --  -19.18939 -19.13367 -19.11757 -14.41302 -14.34180
 Alpha  occ. eigenvalues --  -10.32383 -10.27975 -10.27262 -10.26018 -10.24712
 Alpha  occ. eigenvalues --  -10.23194 -10.21358 -10.20811 -10.20452 -10.20061
 Alpha  occ. eigenvalues --  -10.18467 -10.18199  -1.10094  -1.02309  -1.01336
 Alpha  occ. eigenvalues --   -1.00605  -0.94740  -0.83206  -0.80435  -0.79899
 Alpha  occ. eigenvalues --   -0.75893  -0.72150  -0.68743  -0.65844  -0.64109
 Alpha  occ. eigenvalues --   -0.61596  -0.59933  -0.55603  -0.53513  -0.52451
 Alpha  occ. eigenvalues --   -0.48638  -0.48248  -0.47798  -0.46783  -0.45235
 Alpha  occ. eigenvalues --   -0.44964  -0.44400  -0.44084  -0.42904  -0.41373
 Alpha  occ. eigenvalues --   -0.40525  -0.40072  -0.39360  -0.38894  -0.38039
 Alpha  occ. eigenvalues --   -0.37691  -0.37368  -0.35896  -0.35149  -0.31600
 Alpha  occ. eigenvalues --   -0.29274  -0.28059  -0.27994  -0.26801  -0.24533
 Alpha  occ. eigenvalues --   -0.23118
 Alpha virt. eigenvalues --   -0.06077  -0.04696  -0.00193   0.02469   0.09523
 Alpha virt. eigenvalues --    0.10388   0.10846   0.11114   0.12575   0.13066
 Alpha virt. eigenvalues --    0.14713   0.15913   0.16430   0.16778   0.17154

 Mulliken charges:
               1
     1  C   -0.452624
     2  H    0.164074
     3  H    0.168183
     4  H    0.170944
     5  C   -0.148954
     6  H    0.192046
     7  H    0.184780
     8  N   -0.488701
     9  C    0.076776
    10  H    0.211289
    11  C   -0.062449
    12  C    0.564168
    13  O   -0.587302
    14  H    0.454063
    15  O   -0.552501
    16  C    0.384280
    17  O   -0.592887
    18  C    0.042469
    19  C   -0.137467
    20  H    0.170495
    21  C   -0.187684
    22  H    0.165422
    23  C    0.323771
    24  C   -0.515810
    25  H    0.182593
    26  H    0.172146
    27  H    0.181649
    28  N   -0.583233
    29  C    0.500465
 Sum of Mulliken charges =   0.00000

 Dipole moment (field-independent basis, Debye):
    X=              6.0037    Y=              3.7974    Z=             -0.4329  Tot=              7.1170
 Quadrupole moment (field-independent basis, Debye-Ang):
   XX=            -89.2928   YY=            -96.4440   ZZ=            -96.6343
   XY=             -4.7987   XZ=             -0.1275   YZ=              0.0633

 Normal termination of Gaussian 09 at Sun Nov 22 16:13:12 2020.
