 Gaussian 09, Revision D.01,

 -----------------
 #p b3lyp/6-31G(d)
 -----------------

 ------------------------------------------
 SET_328_BBB181_conf1_geo_180_285.n.pdb.xyz
 ------------------------------------------
 Symbolic Z-matrix:
 Charge =  0 Multiplicity = 1

 SCF Done:  E(RB3LYP) =  -233.660947840     A.U. after   12 cycles
 Normal termination of Gaussian 09 at Thu Nov 12 20:30:37 2020.
 Gaussian 09:  AM64L-G09RevD.01 24-Apr-2013

 ----------------------------------------------------------------------
 #p b3lyp/6-31G(d) scrf=(iefpcm,read,solvent=Water) geom=allcheck guess
 =read
 ----------------------------------------------------------------------

 Structure from the checkpoint file:  "SET_328_BBB181_conf1_geo_180_285.n.pdb.xyz.mst.n.w.chk"
 ------------------------------------------
 SET_328_BBB181_conf1_geo_180_285.n.pdb.xyz
 ------------------------------------------
 Charge =  0 Multiplicity = 1

                         Standard orientation:
 ---------------------------------------------------------------------
 Center     Atomic      Atomic             Coordinates (Angstroms)
 Number     Number       Type             X           Y           Z
 ---------------------------------------------------------------------
      1          6           0        2.055929    0.635195   -0.157705
      2          1           0        2.106676    0.780628   -1.240350
      3          1           0        3.077194    0.552926    0.228108
      4          1           0        1.598025    1.522565    0.287227
      5          6           0        1.264422   -0.624047    0.177873
      6          1           0        1.245896   -0.786431    1.266878
      7          1           0        1.736635   -1.499007   -0.278646
      8          8           0       -0.069226   -0.600995   -0.326073
      9          6           0       -0.935611    0.253762    0.413976
     10          1           0       -0.572467    1.289865    0.382325
     11          1           0       -0.945474   -0.055251    1.470812
     12          6           0       -2.326791    0.164065   -0.184688
     13          1           0       -3.017779    0.809017    0.365920
     14          1           0       -2.702959   -0.862548   -0.139278
     15          1           0       -2.319629    0.482343   -1.231139
 ---------------------------------------------------------------------

 SCF Done:  E(RB3LYP) =  -233.663293291     A.U. after    9 cycles

 The electronic state is 1-A.
 Alpha  occ. eigenvalues --  -19.14357 -10.22591 -10.22524 -10.17332 -10.17171
 Alpha  occ. eigenvalues --   -1.02394  -0.76746  -0.72469  -0.62983  -0.58791
 Alpha  occ. eigenvalues --   -0.48837  -0.46571  -0.46327  -0.41179  -0.38839
 Alpha  occ. eigenvalues --   -0.38638  -0.37028  -0.35507  -0.34144  -0.30868
 Alpha  occ. eigenvalues --   -0.25205
 Alpha virt. eigenvalues --    0.09625   0.11976   0.12694   0.14361   0.15239
 Alpha virt. eigenvalues --    0.16958   0.17585   0.18490   0.19300   0.19563
 Alpha virt. eigenvalues --    0.22649   0.24047   0.25169   0.26591   0.50556

 Mulliken charges:
               1
     1  C   -0.466161
     2  H    0.154016
     3  H    0.152781
     4  H    0.158102
     5  C   -0.023339
     6  H    0.130686
     7  H    0.147996
     8  O   -0.502468
     9  C   -0.016530
    10  H    0.134750
    11  H    0.129161
    12  C   -0.463875
    13  H    0.155440
    14  H    0.154198
    15  H    0.155242
 Sum of Mulliken charges =   0.00000

 Dipole moment (field-independent basis, Debye):
    X=              0.4807    Y=              0.9564    Z=              1.2276  Tot=              1.6287
 Quadrupole moment (field-independent basis, Debye-Ang):
   XX=            -29.9234   YY=            -33.2290   ZZ=            -33.0300
   XY=             -1.3719   XZ=             -0.3966   YZ=             -0.4798

 Normal termination of Gaussian 09 at Thu Nov 12 20:30:53 2020.
