 Gaussian 09, Revision D.01,

 -----------------
 #p b3lyp/6-31G(d)
 -----------------

 -----------------------------------------
 SET_328_BBB23_conf1_geo_195_165.n.pdb.xyz
 -----------------------------------------
 Symbolic Z-matrix:
 Charge =  0 Multiplicity = 1

 SCF Done:  E(RB3LYP) =  -237.083009523     A.U. after   11 cycles
 Normal termination of Gaussian 09 at Thu Nov 12 20:32:51 2020.
 Gaussian 09:  AM64L-G09RevD.01 24-Apr-2013

 ----------------------------------------------------------------------
 #p b3lyp/6-31G(d) scrf=(iefpcm,read,solvent=Water) geom=allcheck guess
 =read
 ----------------------------------------------------------------------

 Structure from the checkpoint file:  "SET_328_BBB23_conf1_geo_195_165.n.pdb.xyz.mst.n.w.chk"
 -----------------------------------------
 SET_328_BBB23_conf1_geo_195_165.n.pdb.xyz
 -----------------------------------------
 Charge =  0 Multiplicity = 1

                         Standard orientation:
 ---------------------------------------------------------------------
 Center     Atomic      Atomic             Coordinates (Angstroms)
 Number     Number       Type             X           Y           Z
 ---------------------------------------------------------------------
      1          6           0       -2.577399   -0.161123   -0.292586
      2          1           0       -2.577132   -0.233905   -1.386720
      3          1           0       -2.749504    0.886703   -0.031428
      4          1           0       -3.429852   -0.737939    0.077368
      5          6           0       -1.264882   -0.684604    0.294965
      6          1           0       -1.168083   -1.752881    0.056714
      7          1           0       -1.304680   -0.620370    1.390595
      8          6           0        0.000111    0.042623   -0.200852
      9          6           0        0.004578    1.522152    0.212081
     10          1           0       -0.021029    1.617860    1.303710
     11          1           0       -0.860945    2.057970   -0.188555
     12          1           0        0.903578    2.032354   -0.143381
     13          1           0        0.002634   -0.004849   -1.301339
     14          6           0        1.263102   -0.684179    0.300668
     15          1           0        1.164178   -1.753451    0.072699
     16          1           0        1.305094   -0.609354    1.394808
     17          6           0        2.573893   -0.165755   -0.295614
     18          1           0        2.729065    0.892231   -0.062882
     19          1           0        2.578267   -0.267708   -1.387705
     20          1           0        3.431997   -0.721342    0.094151
 ---------------------------------------------------------------------

 SCF Done:  E(RB3LYP) =  -237.081966081     A.U. after    7 cycles

 The electronic state is 1-A.
 Alpha  occ. eigenvalues --  -10.17880 -10.17239 -10.17218 -10.16770 -10.16758
 Alpha  occ. eigenvalues --  -10.16514  -0.80669  -0.74363  -0.70235  -0.64705
 Alpha  occ. eigenvalues --   -0.59223  -0.54829  -0.46046  -0.44995  -0.42548
 Alpha  occ. eigenvalues --   -0.41071  -0.39154  -0.38304  -0.36792  -0.35706
 Alpha  occ. eigenvalues --   -0.34545  -0.32989  -0.31249  -0.30665  -0.30185
 Alpha virt. eigenvalues --    0.08845   0.12203   0.12454   0.12933   0.15358
 Alpha virt. eigenvalues --    0.15813   0.16726   0.17513   0.17660   0.18687
 Alpha virt. eigenvalues --    0.18875   0.20730   0.23056   0.23450   0.25134

 Mulliken charges:
               1
     1  C   -0.457738
     2  H    0.142814
     3  H    0.149030
     4  H    0.143511
     5  C   -0.249289
     6  H    0.129103
     7  H    0.127768
     8  C   -0.056234
     9  C   -0.463489
    10  H    0.139370
    11  H    0.146769
    12  H    0.147066
    13  H    0.116050
    14  C   -0.249566
    15  H    0.129342
    16  H    0.128060
    17  C   -0.458121
    18  H    0.149044
    19  H    0.142987
    20  H    0.143522
 Sum of Mulliken charges =   0.00000

 Dipole moment (field-independent basis, Debye):
    X=              0.0005    Y=             -0.0534    Z=             -0.0184  Tot=              0.0565
 Quadrupole moment (field-independent basis, Debye-Ang):
   XX=            -42.1071   YY=            -41.5407   ZZ=            -41.1864
   XY=              0.0021   XZ=              0.0053   YZ=              0.1557

 Normal termination of Gaussian 09 at Thu Nov 12 20:33:14 2020.
