 Gaussian 09, Revision D.01,

 -----------------
 #p b3lyp/6-31G(d)
 -----------------

 ------------------------------------------
 SET_328_BBB212_conf1_geo_225_225.n.pdb.xyz
 ------------------------------------------
 Symbolic Z-matrix:
 Charge =  0 Multiplicity = 1

 SCF Done:  E(RB3LYP) =  -731.667232507     A.U. after   15 cycles
 Normal termination of Gaussian 09 at Sun Nov 22 16:10:28 2020.
 Gaussian 09:  AM64L-G09RevD.01 24-Apr-2013

 ----------------------------------------------------------------------
 #p b3lyp/6-31G(d) scrf=(iefpcm,read,solvent=Water) geom=allcheck guess
 =read
 ----------------------------------------------------------------------

 Structure from the checkpoint file:  "SET_328_BBB212_conf1_geo_225_225.n.pdb.xyz.mst.n.w.chk"
 ------------------------------------------
 SET_328_BBB212_conf1_geo_225_225.n.pdb.xyz
 ------------------------------------------
 Charge =  0 Multiplicity = 1

                         Standard orientation:
 ---------------------------------------------------------------------
 Center     Atomic      Atomic             Coordinates (Angstroms)
 Number     Number       Type             X           Y           Z
 ---------------------------------------------------------------------
      1          6           0        0.063129    2.372428   -1.231869
      2          1           0        0.982285    2.963103   -1.202740
      3          1           0       -0.783224    3.066080   -1.253864
      4          1           0        0.059355    1.798698   -2.162205
      5          6           0        0.001611    1.457512    0.007340
      6          6           0       -0.054982    2.368543    1.249258
      7          1           0       -0.965400    2.973457    1.214720
      8          1           0        0.798715    3.050314    1.277583
      9          1           0       -0.066677    1.794292    2.179617
     10          6           0        1.255586    0.570497    0.003214
     11          6           0        2.297964    0.712723    0.923570
     12          6           0        3.444354   -0.087043    0.865241
     13          6           0        3.571121   -1.054039   -0.132498
     14          8           0        4.659606   -1.868872   -0.253125
     15          1           0        5.297362   -1.663935    0.454125
     16          6           0        2.537432   -1.213766   -1.066537
     17          6           0        1.404526   -0.412208   -0.990098
     18          1           0        0.610294   -0.557952   -1.716017
     19          1           0        2.636259   -1.969403   -1.839090
     20          1           0        4.235298    0.046031    1.597457
     21          1           0        2.232617    1.456558    1.710187
     22          6           0       -1.255752    0.574991    0.003799
     23          6           0       -2.288721    0.722941   -0.929025
     24          1           0       -2.205534    1.466123   -1.713534
     25          6           0       -3.436871   -0.069454   -0.886190
     26          1           0       -4.226019    0.056691   -1.620595
     27          6           0       -3.580329   -1.039388    0.108702
     28          8           0       -4.720845   -1.789614    0.108881
     29          1           0       -4.685384   -2.434621    0.837023
     30          6           0       -2.559956   -1.206040    1.054964
     31          1           0       -2.657838   -1.957746    1.831324
     32          6           0       -1.421498   -0.407547    0.992182
     33          1           0       -0.637892   -0.560695    1.727642
 ---------------------------------------------------------------------

 SCF Done:  E(RB3LYP) =  -731.686186502     A.U. after   11 cycles

 The electronic state is 1-A.
 Alpha  occ. eigenvalues --  -19.17322 -19.17297 -10.24725 -10.24716 -10.20530
 Alpha  occ. eigenvalues --  -10.18799 -10.18796 -10.18748 -10.18747 -10.18701
 Alpha  occ. eigenvalues --  -10.18698 -10.18655 -10.18556 -10.18441 -10.18343
 Alpha  occ. eigenvalues --  -10.17246 -10.17231  -1.05275  -1.05268  -0.86403
 Alpha  occ. eigenvalues --   -0.84491  -0.80469  -0.74650  -0.74571  -0.73089
 Alpha  occ. eigenvalues --   -0.71743  -0.68531  -0.63097  -0.61888  -0.60742
 Alpha  occ. eigenvalues --   -0.59587  -0.55472  -0.53928  -0.53890  -0.49507
 Alpha  occ. eigenvalues --   -0.47694  -0.46311  -0.45081  -0.44378  -0.44316
 Alpha  occ. eigenvalues --   -0.41988  -0.41880  -0.41279  -0.40672  -0.40442
 Alpha  occ. eigenvalues --   -0.40058  -0.39440  -0.37896  -0.37865  -0.37143
 Alpha  occ. eigenvalues --   -0.34971  -0.34576  -0.33770  -0.33478  -0.31944
 Alpha  occ. eigenvalues --   -0.31816  -0.31439  -0.25309  -0.25079  -0.22320
 Alpha  occ. eigenvalues --   -0.20889
 Alpha virt. eigenvalues --   -0.00624  -0.00008   0.00964   0.01921   0.09425
 Alpha virt. eigenvalues --    0.09761   0.09810   0.10909   0.12626   0.13462
 Alpha virt. eigenvalues --    0.14288   0.14425   0.15879   0.15980   0.15998

 Mulliken charges:
               1
     1  C   -0.465772
     2  H    0.151381
     3  H    0.152039
     4  H    0.154443
     5  C   -0.048695
     6  C   -0.465436
     7  H    0.151203
     8  H    0.152254
     9  H    0.154056
    10  C    0.162710
    11  C   -0.224512
    12  C   -0.216270
    13  C    0.344213
    14  O   -0.680157
    15  H    0.457205
    16  C   -0.190140
    17  C   -0.205068
    18  H    0.143542
    19  H    0.144592
    20  H    0.150175
    21  H    0.146010
    22  C    0.162067
    23  C   -0.221401
    24  H    0.144223
    25  C   -0.192545
    26  H    0.143586
    27  C    0.343750
    28  O   -0.680087
    29  H    0.457368
    30  C   -0.213625
    31  H    0.151714
    32  C   -0.206908
    33  H    0.144088
 Sum of Mulliken charges =   0.00000

 Dipole moment (field-independent basis, Debye):
    X=              1.4062    Y=             -0.0526    Z=              3.0061  Tot=              3.3191
 Quadrupole moment (field-independent basis, Debye-Ang):
   XX=            -91.0540   YY=            -95.0633   ZZ=            -93.8558
   XY=              6.1143   XZ=              4.5743   YZ=             -6.7067

 Normal termination of Gaussian 09 at Sun Nov 22 16:13:44 2020.
