 Gaussian 09, Revision D.01,

 -----------------
 #p b3lyp/6-31G(d)
 -----------------

 -----------------------------------------
 SET_328_BBB23_conf1_geo_060_060.n.pdb.xyz
 -----------------------------------------
 Symbolic Z-matrix:
 Charge =  0 Multiplicity = 1

 SCF Done:  E(RB3LYP) =  -237.081449279     A.U. after   12 cycles
 Normal termination of Gaussian 09 at Thu Nov 12 20:32:24 2020.
 Gaussian 09:  AM64L-G09RevD.01 24-Apr-2013

 ----------------------------------------------------------------------
 #p b3lyp/6-31G(d) scrf=(iefpcm,read,solvent=Water) geom=allcheck guess
 =read
 ----------------------------------------------------------------------

 Structure from the checkpoint file:  "SET_328_BBB23_conf1_geo_060_060.n.pdb.xyz.mst.n.w.chk"
 -----------------------------------------
 SET_328_BBB23_conf1_geo_060_060.n.pdb.xyz
 -----------------------------------------
 Charge =  0 Multiplicity = 1

                         Standard orientation:
 ---------------------------------------------------------------------
 Center     Atomic      Atomic             Coordinates (Angstroms)
 Number     Number       Type             X           Y           Z
 ---------------------------------------------------------------------
      1          6           0        1.453338   -1.371874   -0.508032
      2          1           0        2.165025   -0.704658   -1.003381
      3          1           0        0.692488   -1.647676   -1.245285
      4          1           0        1.989824   -2.283896   -0.228414
      5          6           0        0.826055   -0.707303    0.722265
      6          1           0        1.612188   -0.495885    1.456617
      7          1           0        0.143044   -1.416921    1.203167
      8          6           0        0.067863    0.603272    0.434390
      9          6           0        1.001366    1.684056   -0.116091
     10          1           0        1.837910    1.870919    0.565708
     11          1           0        0.465880    2.628692   -0.259700
     12          1           0        1.422607    1.390708   -1.082467
     13          1           0       -0.318230    0.963391    1.398945
     14          6           0       -1.143900    0.406097   -0.492152
     15          1           0       -0.799196    0.020166   -1.460675
     16          1           0       -1.582814    1.390854   -0.697641
     17          6           0       -2.224184   -0.520571    0.073900
     18          1           0       -2.607921   -0.139413    1.026716
     19          1           0       -1.832983   -1.526587    0.256074
     20          1           0       -3.071045   -0.611762   -0.615346
 ---------------------------------------------------------------------

 SCF Done:  E(RB3LYP) =  -237.080419168     A.U. after    8 cycles

 The electronic state is 1-A.
 Alpha  occ. eigenvalues --  -10.17767 -10.17155 -10.17151 -10.16784 -10.16695
 Alpha  occ. eigenvalues --  -10.16505  -0.80783  -0.73806  -0.70997  -0.63460
 Alpha  occ. eigenvalues --   -0.61154  -0.53280  -0.46695  -0.45160  -0.41941
 Alpha  occ. eigenvalues --   -0.40981  -0.40042  -0.37599  -0.37200  -0.35838
 Alpha  occ. eigenvalues --   -0.34207  -0.33488  -0.30892  -0.30456  -0.30108
 Alpha virt. eigenvalues --    0.08341   0.11735   0.12111   0.14003   0.15764
 Alpha virt. eigenvalues --    0.16184   0.16346   0.16875   0.17456   0.20218
 Alpha virt. eigenvalues --    0.20338   0.21654   0.22209   0.23473   0.24367

 Mulliken charges:
               1
     1  C   -0.461048
     2  H    0.148804
     3  H    0.149158
     4  H    0.143294
     5  C   -0.257282
     6  H    0.129318
     7  H    0.134593
     8  C   -0.058493
     9  C   -0.459644
    10  H    0.140334
    11  H    0.140666
    12  H    0.145434
    13  H    0.116886
    14  C   -0.251483
    15  H    0.132812
    16  H    0.128994
    17  C   -0.458444
    18  H    0.143404
    19  H    0.149826
    20  H    0.142869
 Sum of Mulliken charges =   0.00000

 Dipole moment (field-independent basis, Debye):
    X=             -0.0268    Y=             -0.0027    Z=              0.0521  Tot=              0.0587
 Quadrupole moment (field-independent basis, Debye-Ang):
   XX=            -41.7271   YY=            -41.6275   ZZ=            -41.4105
   XY=             -0.2448   XZ=              0.2187   YZ=              0.1439

 Normal termination of Gaussian 09 at Thu Nov 12 20:32:50 2020.
