 Gaussian 09, Revision D.01,

 -----------------
 #p b3lyp/6-31G(d)
 -----------------

 -----------------------------------------
 SET_328_BBB65_conf1_geo_060_330.n.pdb.xyz
 -----------------------------------------
 Symbolic Z-matrix:
 Charge =  0 Multiplicity = 1

 SCF Done:  E(RB3LYP) =  -717.616554022     A.U. after   14 cycles
 Normal termination of Gaussian 09 at Sun Nov 22 16:12:11 2020.
 Gaussian 09:  AM64L-G09RevD.01 24-Apr-2013

 ----------------------------------------------------------------------
 #p b3lyp/6-31G(d) scrf=(iefpcm,read,solvent=Water) geom=allcheck guess
 =read
 ----------------------------------------------------------------------

 Structure from the checkpoint file:  "SET_328_BBB65_conf1_geo_060_330.n.pdb.xyz.mst.n.w.chk"
 -----------------------------------------
 SET_328_BBB65_conf1_geo_060_330.n.pdb.xyz
 -----------------------------------------
 Charge =  0 Multiplicity = 1

                         Standard orientation:
 ---------------------------------------------------------------------
 Center     Atomic      Atomic             Coordinates (Angstroms)
 Number     Number       Type             X           Y           Z
 ---------------------------------------------------------------------
      1          6           0       -2.020712    3.175198    0.047357
      2          6           0       -2.070504    2.274005   -1.188380
      3          6           0       -0.910010    1.273163   -1.191690
      4          1           0       -1.001502    0.628570   -2.066441
      5          1           0        0.040849    1.827164   -1.296530
      6          1           0       -3.016942    1.718578   -1.202652
      7          1           0       -2.030409    2.869192   -2.107861
      8          1           0       -1.141151    3.829132   -0.018702
      9          1           0       -2.898918    3.829573    0.089200
     10          6           0       -1.917416    2.316100    1.311993
     11          1           0       -2.852857    1.762866    1.460096
     12          1           0       -1.764202    2.941888    2.199613
     13          6           0       -0.762115    1.315566    1.200688
     14          1           0       -0.738426    0.700066    2.099970
     15          1           0        0.193620    1.870893    1.166251
     16          7           0       -0.919466    0.447812    0.024767
     17          6           0       -0.020367   -0.754869    0.004400
     18          6           0       -0.339324   -1.654983    1.230690
     19          6           0       -1.776760   -2.188596    1.244106
     20          6           0       -2.096211   -2.981626   -0.027276
     21          6           0       -1.769850   -2.165400   -1.283450
     22          6           0       -0.332091   -1.631342   -1.239711
     23          1           0       -0.108296   -1.103952   -2.167941
     24          1           0        0.363551   -2.479517   -1.207578
     25          1           0       -2.472652   -1.329289   -1.373240
     26          1           0       -1.893376   -2.782114   -2.179916
     27          1           0       -3.146948   -3.292429   -0.031686
     28          1           0       -1.497607   -3.903301   -0.034124
     29          1           0       -2.474972   -1.350221    1.338666
     30          1           0       -1.915818   -2.820182    2.128842
     31          1           0       -0.138799   -1.143231    2.175147
     32          1           0        0.359048   -2.500742    1.195446
     33          6           0        1.472368   -0.349225   -0.007596
     34          6           0        2.223261   -0.251584    1.174812
     35          1           0        1.769026   -0.508398    2.122913
     36          6           0        3.555913    0.160960    1.163717
     37          1           0        4.106136    0.219485    2.097715
     38          6           0        4.181742    0.490945   -0.038917
     39          1           0        5.218885    0.810539   -0.050876
     40          6           0        3.454592    0.401996   -1.225988
     41          1           0        3.923038    0.649974   -2.173103
     42          6           0        2.121836   -0.012736   -1.206635
     43          1           0        1.588869   -0.084658   -2.145297
 ---------------------------------------------------------------------

 SCF Done:  E(RB3LYP) =  -717.616926827     A.U. after    9 cycles

 The electronic state is 1-A.
 Alpha  occ. eigenvalues --  -14.31694 -10.22108 -10.19497 -10.19472 -10.19055
 Alpha  occ. eigenvalues --  -10.18754 -10.18732 -10.18654 -10.18437 -10.18427
 Alpha  occ. eigenvalues --  -10.17345 -10.17307 -10.17278 -10.17253 -10.17242
 Alpha  occ. eigenvalues --  -10.17072 -10.17048 -10.16977  -0.91636  -0.85079
 Alpha  occ. eigenvalues --   -0.82020  -0.78136  -0.75362  -0.74944  -0.73934
 Alpha  occ. eigenvalues --   -0.72905  -0.70970  -0.63743  -0.62482  -0.60756
 Alpha  occ. eigenvalues --   -0.60289  -0.58400  -0.57130  -0.55295  -0.53202
 Alpha  occ. eigenvalues --   -0.51151  -0.48728  -0.46492  -0.45419  -0.45115
 Alpha  occ. eigenvalues --   -0.44417  -0.44187  -0.42769  -0.42028  -0.41702
 Alpha  occ. eigenvalues --   -0.41487  -0.41249  -0.39840  -0.39100  -0.37590
 Alpha  occ. eigenvalues --   -0.36583  -0.36234  -0.35657  -0.35434  -0.34277
 Alpha  occ. eigenvalues --   -0.33936  -0.33794  -0.32854  -0.32133  -0.31680
 Alpha  occ. eigenvalues --   -0.30856  -0.30218  -0.29899  -0.28191  -0.24883
 Alpha  occ. eigenvalues --   -0.24480  -0.20291
 Alpha virt. eigenvalues --   -0.00113   0.00000   0.07837   0.09967   0.10461
 Alpha virt. eigenvalues --    0.11308   0.11375   0.12757   0.13397   0.13770
 Alpha virt. eigenvalues --    0.15109   0.15450   0.15860   0.16316   0.16825

 Mulliken charges:
               1
     1  C   -0.265222
     2  C   -0.262296
     3  C   -0.128445
     4  H    0.145209
     5  H    0.114052
     6  H    0.134951
     7  H    0.132700
     8  H    0.130047
     9  H    0.133544
    10  C   -0.261800
    11  H    0.135213
    12  H    0.132427
    13  C   -0.127831
    14  H    0.143738
    15  H    0.113511
    16  N   -0.415414
    17  C    0.149294
    18  C   -0.301973
    19  C   -0.254908
    20  C   -0.263163
    21  C   -0.256335
    22  C   -0.306071
    23  H    0.147598
    24  H    0.138274
    25  H    0.142341
    26  H    0.129297
    27  H    0.128364
    28  H    0.127304
    29  H    0.141776
    30  H    0.127768
    31  H    0.146814
    32  H    0.137212
    33  C    0.154200
    34  C   -0.197409
    35  H    0.142092
    36  C   -0.158525
    37  H    0.145220
    38  C   -0.150958
    39  H    0.145427
    40  C   -0.160292
    41  H    0.145434
    42  C   -0.197489
    43  H    0.144321
 Sum of Mulliken charges =   0.00000

 Dipole moment (field-independent basis, Debye):
    X=              0.0618    Y=              0.1736    Z=             -0.0653  Tot=              0.1955
 Quadrupole moment (field-independent basis, Debye-Ang):
   XX=           -109.6078   YY=           -111.7028   ZZ=           -104.7228
   XY=              0.9158   XZ=              0.3965   YZ=             -0.6603

 Normal termination of Gaussian 09 at Sun Nov 22 16:16:21 2020.
