 Gaussian 09, Revision D.01,

 -----------------
 #p b3lyp/6-31G(d)
 -----------------

 ------------------------------------------
 SET_328_BBB315_conf1_geo_300_105.n.pdb.xyz
 ------------------------------------------
 Symbolic Z-matrix:
 Charge =  0 Multiplicity = 1

 SCF Done:  E(RB3LYP) =  -513.826034923     A.U. after   15 cycles
 Normal termination of Gaussian 09 at Thu Nov 12 20:44:16 2020.
 Gaussian 09:  AM64L-G09RevD.01 24-Apr-2013

 ----------------------------------------------------------------------
 #p b3lyp/6-31G(d) scrf=(iefpcm,read,solvent=Water) geom=allcheck guess
 =read
 ----------------------------------------------------------------------

 Structure from the checkpoint file:  "SET_328_BBB315_conf1_geo_300_105.n.pdb.xyz.mst.n.w.chk"
 ------------------------------------------
 SET_328_BBB315_conf1_geo_300_105.n.pdb.xyz
 ------------------------------------------
 Charge =  0 Multiplicity = 1

                         Standard orientation:
 ---------------------------------------------------------------------
 Center     Atomic      Atomic             Coordinates (Angstroms)
 Number     Number       Type             X           Y           Z
 ---------------------------------------------------------------------
      1          7           0        3.451505    1.289528    0.400127
      2          1           0        3.972164    1.661402    1.196137
      3          1           0        2.502736    1.654592    0.495601
      4          6           0        3.397795   -0.172774    0.512820
      5          1           0        3.035067   -0.529799    1.490342
      6          1           0        4.418121   -0.558800    0.395203
      7          6           0        2.515449   -0.784324   -0.589440
      8          1           0        2.688260   -1.865730   -0.621774
      9          1           0        2.837440   -0.371389   -1.552417
     10          6           0        1.048192   -0.535501   -0.397386
     11          6           0        0.087726   -1.467951   -0.059553
     12          1           0        0.140821   -2.530674    0.114683
     13          7           0       -1.101840   -0.773944    0.031550
     14          6           0       -2.375400   -1.192272    0.331904
     15          1           0       -2.499865   -2.246563    0.538689
     16          6           0       -3.390133   -0.278297    0.352573
     17          1           0       -4.391043   -0.611685    0.590487
     18          6           0       -3.131529    1.090808    0.067271
     19          1           0       -3.947653    1.803194    0.088459
     20          6           0       -1.857547    1.509069   -0.235495
     21          1           0       -1.628498    2.544170   -0.457863
     22          6           0       -0.803552    0.567894   -0.258078
     23          7           0        0.496971    0.717468   -0.520996
 ---------------------------------------------------------------------

 SCF Done:  E(RB3LYP) =  -513.839653392     A.U. after   11 cycles

 The electronic state is 1-A.
 Alpha  occ. eigenvalues --  -14.41533 -14.31414 -14.29946 -10.25124 -10.23913
 Alpha  occ. eigenvalues --  -10.21411 -10.21026 -10.20231 -10.20216 -10.20144
 Alpha  occ. eigenvalues --  -10.19919 -10.18405  -1.03077  -0.90683  -0.86734
 Alpha  occ. eigenvalues --   -0.83134  -0.77222  -0.74655  -0.71703  -0.64515
 Alpha  occ. eigenvalues --   -0.61994  -0.61503  -0.56520  -0.52711  -0.50116
 Alpha  occ. eigenvalues --   -0.48201  -0.47569  -0.46230  -0.45528  -0.44986
 Alpha  occ. eigenvalues --   -0.43956  -0.41144  -0.38951  -0.37158  -0.37076
 Alpha  occ. eigenvalues --   -0.35816  -0.34930  -0.33304  -0.32136  -0.27892
 Alpha  occ. eigenvalues --   -0.24070  -0.22993  -0.21071
 Alpha virt. eigenvalues --   -0.03184   0.00509   0.06224   0.09860   0.10672
 Alpha virt. eigenvalues --    0.12560   0.13468   0.14555   0.15675   0.16051
 Alpha virt. eigenvalues --    0.16463   0.17148   0.17846   0.18526   0.19338

 Mulliken charges:
               1
     1  N   -0.778934
     2  H    0.324126
     3  H    0.321599
     4  C   -0.126496
     5  H    0.120473
     6  H    0.140002
     7  C   -0.335275
     8  H    0.153248
     9  H    0.152042
    10  C    0.225236
    11  C   -0.045582
    12  H    0.183967
    13  N   -0.468788
    14  C    0.072442
    15  H    0.198138
    16  C   -0.202262
    17  H    0.169983
    18  C   -0.133527
    19  H    0.164436
    20  C   -0.198720
    21  H    0.166050
    22  C    0.520884
    23  N   -0.623042
 Sum of Mulliken charges =   0.00000

 Dipole moment (field-independent basis, Debye):
    X=             -3.8771    Y=             -3.3745    Z=              2.6795  Tot=              5.7965
 Quadrupole moment (field-independent basis, Debye-Ang):
   XX=            -61.9490   YY=            -62.8858   ZZ=            -72.1743
   XY=             -3.7840   XZ=              4.3404   YZ=              2.1810

 Normal termination of Gaussian 09 at Thu Nov 12 20:45:25 2020.
