 Gaussian 09, Revision D.01,

 -----------------
 #p b3lyp/6-31G(d)
 -----------------

 ------------------------------------------
 SET_328_BBB181_conf1_geo_180_180.n.pdb.xyz
 ------------------------------------------
 Symbolic Z-matrix:
 Charge =  0 Multiplicity = 1

 SCF Done:  E(RB3LYP) =  -233.663354140     A.U. after   12 cycles
 Normal termination of Gaussian 09 at Thu Nov 12 20:29:35 2020.
 Gaussian 09:  AM64L-G09RevD.01 24-Apr-2013

 ----------------------------------------------------------------------
 #p b3lyp/6-31G(d) scrf=(iefpcm,read,solvent=Water) geom=allcheck guess
 =read
 ----------------------------------------------------------------------

 Structure from the checkpoint file:  "SET_328_BBB181_conf1_geo_180_180.n.pdb.xyz.mst.n.w.chk"
 ------------------------------------------
 SET_328_BBB181_conf1_geo_180_180.n.pdb.xyz
 ------------------------------------------
 Charge =  0 Multiplicity = 1

                         Standard orientation:
 ---------------------------------------------------------------------
 Center     Atomic      Atomic             Coordinates (Angstroms)
 Number     Number       Type             X           Y           Z
 ---------------------------------------------------------------------
      1          6           0       -2.384480   -0.405744   -0.000380
      2          1           0       -2.383900   -1.040316   -0.891543
      3          1           0       -3.309218    0.177608    0.005215
      4          1           0       -2.380774   -1.051999    0.883937
      5          6           0       -1.180422    0.516818    0.002657
      6          1           0       -1.188456    1.167392    0.891994
      7          1           0       -1.192525    1.176017   -0.878511
      8          8           0        0.000713   -0.272956   -0.003231
      9          6           0        1.180903    0.516590   -0.002267
     10          1           0        1.190464    1.172134    0.881803
     11          1           0        1.195300    1.169969   -0.889827
     12          6           0        2.383201   -0.406295    0.002271
     13          1           0        2.382470   -1.048031   -0.883899
     14          1           0        2.377481   -1.044135    0.890374
     15          1           0        3.308234    0.176798    0.002621
 ---------------------------------------------------------------------

 SCF Done:  E(RB3LYP) =  -233.665431074     A.U. after    9 cycles

 The electronic state is 1-A.
 Alpha  occ. eigenvalues --  -19.14404 -10.22590 -10.22576 -10.17352 -10.17318
 Alpha  occ. eigenvalues --   -1.02724  -0.77185  -0.72277  -0.61565  -0.59988
 Alpha  occ. eigenvalues --   -0.49033  -0.48398  -0.43821  -0.42770  -0.39326
 Alpha  occ. eigenvalues --   -0.37236  -0.37119  -0.35000  -0.34054  -0.31682
 Alpha  occ. eigenvalues --   -0.25321
 Alpha virt. eigenvalues --    0.09555   0.11735   0.13221   0.14544   0.15348
 Alpha virt. eigenvalues --    0.17274   0.17393   0.19484   0.19645   0.20240
 Alpha virt. eigenvalues --    0.20349   0.21898   0.24213   0.27752   0.50206

 Mulliken charges:
               1
     1  C   -0.464653
     2  H    0.155256
     3  H    0.155868
     4  H    0.155058
     5  C   -0.008046
     6  H    0.128891
     7  H    0.129306
     8  O   -0.502796
     9  C   -0.007978
    10  H    0.129067
    11  H    0.128616
    12  C   -0.464656
    13  H    0.155047
    14  H    0.155375
    15  H    0.155643
 Sum of Mulliken charges =   0.00000

 Dipole moment (field-independent basis, Debye):
    X=             -0.0052    Y=              1.4870    Z=              0.0100  Tot=              1.4870
 Quadrupole moment (field-independent basis, Debye-Ang):
   XX=            -29.3805   YY=            -33.0865   ZZ=            -32.6332
   XY=              0.0037   XZ=             -0.0019   YZ=             -0.0048

 Normal termination of Gaussian 09 at Thu Nov 12 20:29:52 2020.
