 Gaussian 09, Revision D.01,

 -----------------
 #p b3lyp/6-31G(d)
 -----------------

 -----------------------------------------
 SET_328_BBB87_conf1_geo_180_270.n.pdb.xyz
 -----------------------------------------
 Symbolic Z-matrix:
 Charge =  0 Multiplicity = 1

 SCF Done:  E(RB3LYP) =  -703.022835494     A.U. after   15 cycles
 Normal termination of Gaussian 09 at Thu Nov 12 20:47:34 2020.
 Gaussian 09:  AM64L-G09RevD.01 24-Apr-2013

 ----------------------------------------------------------------------
 #p b3lyp/6-31G(d) scrf=(iefpcm,read,solvent=Water) geom=allcheck guess
 =read
 ----------------------------------------------------------------------

 Structure from the checkpoint file:  "SET_328_BBB87_conf1_geo_180_270.n.pdb.xyz.mst.n.w.chk"
 -----------------------------------------
 SET_328_BBB87_conf1_geo_180_270.n.pdb.xyz
 -----------------------------------------
 Charge =  0 Multiplicity = 1

                         Standard orientation:
 ---------------------------------------------------------------------
 Center     Atomic      Atomic             Coordinates (Angstroms)
 Number     Number       Type             X           Y           Z
 ---------------------------------------------------------------------
      1          7           0        3.567488   -0.095609   -0.105181
      2          1           0        3.858375    0.813983    0.251609
      3          1           0        4.152461   -0.261579   -0.922963
      4          6           0        2.169717   -0.004732   -0.537815
      5          1           0        1.915013   -0.929015   -1.066892
      6          1           0        1.965648    0.828286   -1.229449
      7          6           0        1.256670    0.143363    0.692799
      8          1           0        1.525668    1.056605    1.231404
      9          1           0        1.433745   -0.700662    1.366098
     10          6           0       -0.195614    0.240197    0.338152
     11          7           0       -0.838820    1.360806    0.139888
     12          6           0       -2.149609    1.133745   -0.222084
     13          1           0       -2.798761    1.978505   -0.411087
     14          6           0       -2.530806   -0.173132   -0.309087
     15          1           0       -3.496350   -0.580775   -0.565345
     16         16           0       -1.184914   -1.193649    0.083243
 ---------------------------------------------------------------------

 SCF Done:  E(RB3LYP) =  -703.034400398     A.U. after   11 cycles

 The electronic state is 1-A.
 Alpha  occ. eigenvalues --  -88.91456 -14.33830 -14.30685 -10.25715 -10.21950
 Alpha  occ. eigenvalues --  -10.21850 -10.20916 -10.19569  -7.97627  -5.93997
 Alpha  occ. eigenvalues --   -5.93653  -5.93360  -0.96325  -0.87586  -0.79732
 Alpha  occ. eigenvalues --   -0.78008  -0.70780  -0.61932  -0.58769  -0.54054
 Alpha  occ. eigenvalues --   -0.50166  -0.48152  -0.45423  -0.44365  -0.41793
 Alpha  occ. eigenvalues --   -0.39781  -0.38375  -0.36558  -0.36372  -0.34749
 Alpha  occ. eigenvalues --   -0.28520  -0.28004  -0.24436  -0.23631
 Alpha virt. eigenvalues --   -0.02541   0.02047   0.04888   0.08754   0.11005
 Alpha virt. eigenvalues --    0.12949   0.13842   0.14272   0.16002   0.17499
 Alpha virt. eigenvalues --    0.18663   0.19310   0.22193   0.23646   0.25650

 Mulliken charges:
               1
     1  N   -0.774755
     2  H    0.328364
     3  H    0.333379
     4  C   -0.128323
     5  H    0.150782
     6  H    0.134752
     7  C   -0.313569
     8  H    0.173106
     9  H    0.169300
    10  C    0.089999
    11  N   -0.453119
    12  C    0.033614
    13  H    0.171172
    14  C   -0.354845
    15  H    0.207308
    16  S    0.232836
 Sum of Mulliken charges =   0.00000

 Dipole moment (field-independent basis, Debye):
    X=              0.0386    Y=             -0.2633    Z=             -1.4053  Tot=              1.4303
 Quadrupole moment (field-independent basis, Debye-Ang):
   XX=            -43.0151   YY=            -57.0834   ZZ=            -54.9349
   XY=              5.2805   XZ=             -2.2796   YZ=              0.5795

 Normal termination of Gaussian 09 at Thu Nov 12 20:48:04 2020.
