 Gaussian 09, Revision D.01,

 -----------------
 #p b3lyp/6-31G(d)
 -----------------

 ------------------------------------------
 SET_328_BBB181_conf1_geo_285_180.n.pdb.xyz
 ------------------------------------------
 Symbolic Z-matrix:
 Charge =  0 Multiplicity = 1

 SCF Done:  E(RB3LYP) =  -233.661110064     A.U. after   12 cycles
 Normal termination of Gaussian 09 at Thu Nov 12 20:30:37 2020.
 Gaussian 09:  AM64L-G09RevD.01 24-Apr-2013

 ----------------------------------------------------------------------
 #p b3lyp/6-31G(d) scrf=(iefpcm,read,solvent=Water) geom=allcheck guess
 =read
 ----------------------------------------------------------------------

 Structure from the checkpoint file:  "SET_328_BBB181_conf1_geo_285_180.n.pdb.xyz.mst.n.w.chk"
 ------------------------------------------
 SET_328_BBB181_conf1_geo_285_180.n.pdb.xyz
 ------------------------------------------
 Charge =  0 Multiplicity = 1

                         Standard orientation:
 ---------------------------------------------------------------------
 Center     Atomic      Atomic             Coordinates (Angstroms)
 Number     Number       Type             X           Y           Z
 ---------------------------------------------------------------------
      1          6           0       -2.342465    0.135905   -0.173586
      2          1           0       -3.040020    0.792160    0.354260
      3          1           0       -2.688751   -0.895993   -0.064203
      4          1           0       -2.364491    0.395102   -1.237413
      5          6           0       -0.939658    0.294348    0.388134
      6          1           0       -0.916298    0.040987    1.459320
      7          1           0       -0.605116    1.336916    0.294024
      8          8           0       -0.070185   -0.580569   -0.323318
      9          6           0        1.255268   -0.619556    0.197282
     10          1           0        1.709573   -1.518267   -0.229003
     11          1           0        1.217526   -0.749333    1.289025
     12          6           0        2.084795    0.606124   -0.163821
     13          1           0        3.102674    0.497077    0.221739
     14          1           0        1.659283    1.519210    0.261336
     15          1           0        2.139462    0.725762   -1.250592
 ---------------------------------------------------------------------

 SCF Done:  E(RB3LYP) =  -233.663458746     A.U. after    9 cycles

 The electronic state is 1-A.
 Alpha  occ. eigenvalues --  -19.14345 -10.22571 -10.22569 -10.17356 -10.17169
 Alpha  occ. eigenvalues --   -1.02419  -0.76778  -0.72442  -0.63002  -0.58807
 Alpha  occ. eigenvalues --   -0.48840  -0.46721  -0.46194  -0.41179  -0.38882
 Alpha  occ. eigenvalues --   -0.38599  -0.37067  -0.35563  -0.34068  -0.30861
 Alpha  occ. eigenvalues --   -0.25209
 Alpha virt. eigenvalues --    0.09585   0.11959   0.12711   0.14383   0.15265
 Alpha virt. eigenvalues --    0.16942   0.17643   0.18428   0.19334   0.19600
 Alpha virt. eigenvalues --    0.22229   0.24059   0.25073   0.26598   0.50376

 Mulliken charges:
               1
     1  C   -0.463604
     2  H    0.155540
     3  H    0.154365
     4  H    0.155015
     5  C   -0.016625
     6  H    0.129307
     7  H    0.134572
     8  O   -0.502560
     9  C   -0.022910
    10  H    0.147828
    11  H    0.130921
    12  C   -0.466021
    13  H    0.153101
    14  H    0.157599
    15  H    0.153471
 Sum of Mulliken charges =   0.00000

 Dipole moment (field-independent basis, Debye):
    X=              0.4699    Y=              0.9420    Z=              1.2268  Tot=              1.6166
 Quadrupole moment (field-independent basis, Debye-Ang):
   XX=            -29.9225   YY=            -33.1587   ZZ=            -33.0297
   XY=             -1.4051   XZ=             -0.3361   YZ=             -0.4693

 Normal termination of Gaussian 09 at Thu Nov 12 20:30:52 2020.
