 Gaussian 09, Revision D.01,

 -----------------
 #p b3lyp/6-31G(d)
 -----------------

 ------------------------------------------
 SET_328_BBB212_conf1_geo_135_300.n.pdb.xyz
 ------------------------------------------
 Symbolic Z-matrix:
 Charge =  0 Multiplicity = 1

 SCF Done:  E(RB3LYP) =  -731.666428332     A.U. after   14 cycles
 Normal termination of Gaussian 09 at Sun Nov 22 16:10:07 2020.
 Gaussian 09:  AM64L-G09RevD.01 24-Apr-2013

 ----------------------------------------------------------------------
 #p b3lyp/6-31G(d) scrf=(iefpcm,read,solvent=Water) geom=allcheck guess
 =read
 ----------------------------------------------------------------------

 Structure from the checkpoint file:  "SET_328_BBB212_conf1_geo_135_300.n.pdb.xyz.mst.n.w.chk"
 ------------------------------------------
 SET_328_BBB212_conf1_geo_135_300.n.pdb.xyz
 ------------------------------------------
 Charge =  0 Multiplicity = 1

                         Standard orientation:
 ---------------------------------------------------------------------
 Center     Atomic      Atomic             Coordinates (Angstroms)
 Number     Number       Type             X           Y           Z
 ---------------------------------------------------------------------
      1          6           0       -0.041502    2.403639   -1.226178
      2          1           0       -0.940334    3.024980   -1.186615
      3          1           0       -0.064569    1.834673   -2.159091
      4          1           0        0.830076    3.065827   -1.252340
      5          6           0        0.002459    1.477956    0.006407
      6          6           0        0.056201    2.370508    1.262149
      7          1           0        0.955806    2.991624    1.234368
      8          1           0        0.084795    1.773655    2.175816
      9          1           0       -0.814807    3.031543    1.313163
     10          6           0        1.254707    0.584289    0.001430
     11          6           0        2.225244    0.631327   -1.007163
     12          6           0        3.361812   -0.176463   -0.968394
     13          6           0        3.557782   -1.061495    0.094762
     14          8           0        4.689544   -1.824330    0.083432
     15          1           0        4.712404   -2.386522    0.877092
     16          6           0        2.597834   -1.130041    1.113319
     17          6           0        1.469672   -0.316281    1.056924
     18          1           0        0.736696   -0.382864    1.854783
     19          1           0        2.732239   -1.817613    1.943932
     20          1           0        4.105007   -0.127433   -1.757396
     21          1           0        2.099842    1.308509   -1.842674
     22          6           0       -1.257387    0.591953   -0.003006
     23          6           0       -1.489011   -0.279491   -1.080463
     24          1           0       -0.767757   -0.327507   -1.889929
     25          6           0       -2.619879   -1.091067   -1.141755
     26          1           0       -2.771859   -1.752965   -1.989540
     27          6           0       -3.560773   -1.052558   -0.103955
     28          8           0       -4.686983   -1.823028   -0.094018
     29          1           0       -4.703312   -2.384288   -0.889602
     30          6           0       -3.351311   -0.195044    0.977220
     31          1           0       -4.081111   -0.167901    1.779116
     32          6           0       -2.214975    0.613648    1.019153
     33          1           0       -2.078837    1.269863    1.870903
 ---------------------------------------------------------------------

 SCF Done:  E(RB3LYP) =  -731.685663745     A.U. after   10 cycles

 The electronic state is 1-A.
 Alpha  occ. eigenvalues --  -19.17318 -19.17315 -10.24746 -10.24734 -10.20601
 Alpha  occ. eigenvalues --  -10.18871 -10.18836 -10.18822 -10.18789 -10.18741
 Alpha  occ. eigenvalues --  -10.18718 -10.18716 -10.18705 -10.18347 -10.18344
 Alpha  occ. eigenvalues --  -10.17260 -10.17238  -1.05304  -1.05296  -0.86377
 Alpha  occ. eigenvalues --   -0.84513  -0.80454  -0.74716  -0.74564  -0.73159
 Alpha  occ. eigenvalues --   -0.71665  -0.68636  -0.63368  -0.61477  -0.60480
 Alpha  occ. eigenvalues --   -0.59935  -0.55606  -0.53964  -0.53930  -0.49038
 Alpha  occ. eigenvalues --   -0.47807  -0.47235  -0.44479  -0.44403  -0.44393
 Alpha  occ. eigenvalues --   -0.42047  -0.41898  -0.41262  -0.40747  -0.40597
 Alpha  occ. eigenvalues --   -0.40202  -0.38905  -0.38164  -0.37482  -0.37364
 Alpha  occ. eigenvalues --   -0.35197  -0.34935  -0.33608  -0.33379  -0.31923
 Alpha  occ. eigenvalues --   -0.31899  -0.31357  -0.25230  -0.25223  -0.22415
 Alpha  occ. eigenvalues --   -0.20833
 Alpha virt. eigenvalues --   -0.00413  -0.00379   0.00795   0.02173   0.09273
 Alpha virt. eigenvalues --    0.09743   0.09835   0.10991   0.12688   0.13035
 Alpha virt. eigenvalues --    0.14276   0.14542   0.15747   0.15854   0.15982

 Mulliken charges:
               1
     1  C   -0.468430
     2  H    0.151651
     3  H    0.156149
     4  H    0.151851
     5  C   -0.057733
     6  C   -0.467827
     7  H    0.151732
     8  H    0.156286
     9  H    0.151378
    10  C    0.168342
    11  C   -0.221638
    12  C   -0.192468
    13  C    0.343468
    14  O   -0.679769
    15  H    0.457413
    16  C   -0.213011
    17  C   -0.211350
    18  H    0.145882
    19  H    0.151931
    20  H    0.143606
    21  H    0.145312
    22  C    0.167112
    23  C   -0.211446
    24  H    0.145782
    25  C   -0.213364
    26  H    0.152193
    27  C    0.344367
    28  O   -0.679784
    29  H    0.457289
    30  C   -0.192608
    31  H    0.143817
    32  C   -0.221253
    33  H    0.145121
 Sum of Mulliken charges =   0.00000

 Dipole moment (field-independent basis, Debye):
    X=              0.0112    Y=             -1.4918    Z=              0.0042  Tot=              1.4918
 Quadrupole moment (field-independent basis, Debye-Ang):
   XX=           -103.5865   YY=            -90.2151   ZZ=            -90.5279
   XY=              0.0467   XZ=             12.2747   YZ=             -0.0834

 Normal termination of Gaussian 09 at Sun Nov 22 16:13:11 2020.
