 Gaussian 09, Revision D.01,

 -----------------
 #p b3lyp/6-31G(d)
 -----------------

 ------------------------------------------
 SET_328_BBB286_conf1_geo_000_150.n.pdb.xyz
 ------------------------------------------
 Symbolic Z-matrix:
 Charge =  0 Multiplicity = 1

 SCF Done:  E(RB3LYP) =  -994.604181524     A.U. after   16 cycles
 Normal termination of Gaussian 09 at Thu Nov 12 20:44:47 2020.
 Gaussian 09:  AM64L-G09RevD.01 24-Apr-2013

 ----------------------------------------------------------------------
 #p b3lyp/6-31G(d) scrf=(iefpcm,read,solvent=Water) geom=allcheck guess
 =read
 ----------------------------------------------------------------------

 Structure from the checkpoint file:  "SET_328_BBB286_conf1_geo_000_150.n.pdb.xyz.mst.n.w.chk"
 ------------------------------------------
 SET_328_BBB286_conf1_geo_000_150.n.pdb.xyz
 ------------------------------------------
 Charge =  0 Multiplicity = 1

                         Standard orientation:
 ---------------------------------------------------------------------
 Center     Atomic      Atomic             Coordinates (Angstroms)
 Number     Number       Type             X           Y           Z
 ---------------------------------------------------------------------
      1          6           0       -3.326548    3.031263   -0.298966
      2          1           0       -4.161937    3.213629   -0.978082
      3          1           0       -2.441485    3.545902   -0.666176
      4          1           0       -3.582210    3.406494    0.695995
      5          7           0       -3.024914    1.612572   -0.253305
      6          6           0       -3.890871    0.572411   -0.026375
      7          6           0       -3.107786   -0.609263   -0.013479
      8          6           0       -3.729813   -1.855073    0.193947
      9          6           0       -5.102204   -1.877346    0.381419
     10          6           0       -5.867611   -0.686070    0.366461
     11          6           0       -5.283369    0.553123    0.165076
     12          1           0       -5.873493    1.462141    0.158623
     13          1           0       -6.939464   -0.746239    0.518700
     14          1           0       -5.606779   -2.822825    0.544357
     15          1           0       -3.139836   -2.763504    0.205751
     16          7           0       -1.753954    1.180104   -0.375170
     17          6           0       -1.774859   -0.144023   -0.240362
     18          6           0       -0.536961   -0.954598   -0.329310
     19          8           0       -0.564876   -2.185651   -0.171830
     20          7           0        0.602320   -0.265816   -0.578009
     21          1           0        0.506362    0.709815   -0.830285
     22          6           0        1.879882   -0.945135   -0.814075
     23          6           0        2.544218   -1.491196    0.479197
     24          1           0        1.766711   -1.759665    1.199476
     25          1           0        3.040008   -2.428542    0.203603
     26          1           0        1.629928   -1.818315   -1.424629
     27          6           0        2.837449   -0.047346   -1.627420
     28          1           0        2.260691    0.601734   -2.295505
     29          1           0        3.417411   -0.707841   -2.279046
     30          6           0        3.851110    0.786355   -0.806713
     31          1           0        4.598841    1.148644   -1.522407
     32          6           0        3.291628    2.021962   -0.075411
     33          1           0        2.719706    2.640503   -0.776828
     34          1           0        4.157591    2.615968    0.238292
     35          6           0        2.444338    1.690021    1.165514
     36          1           0        1.435110    1.395428    0.870336
     37          1           0        2.329640    2.589750    1.779575
     38          6           0        3.075973    0.568441    2.000948
     39          1           0        2.358977    0.189089    2.738234
     40          1           0        3.929761    0.969138    2.559783
     41          6           0        3.610276   -0.593143    1.150199
     42          1           0        4.182834   -1.244225    1.821939
     43          7           0        4.572999   -0.039331    0.180383
     44          6           0        5.435228   -1.050734   -0.419000
     45          1           0        5.987646   -1.561429    0.374886
     46          1           0        6.156903   -0.560892   -1.080821
     47          1           0        4.910447   -1.820140   -1.008318
 ---------------------------------------------------------------------

 SCF Done:  E(RB3LYP) =  -994.614731807     A.U. after   11 cycles

 The electronic state is 1-A.
 Alpha  occ. eigenvalues --  -19.11636 -14.42092 -14.37403 -14.35407 -14.31655
 Alpha  occ. eigenvalues --  -10.29145 -10.23238 -10.22636 -10.22367 -10.22229
 Alpha  occ. eigenvalues --  -10.20725 -10.20430 -10.20129 -10.19944 -10.19794
 Alpha  occ. eigenvalues --  -10.19707 -10.19557 -10.19221 -10.18084 -10.17456
 Alpha  occ. eigenvalues --  -10.17451 -10.17217 -10.17179  -1.06213  -1.02966
 Alpha  occ. eigenvalues --   -0.92931  -0.91597  -0.86028  -0.85722  -0.79009
 Alpha  occ. eigenvalues --   -0.77334  -0.76966  -0.76853  -0.75403  -0.71337
 Alpha  occ. eigenvalues --   -0.68627  -0.67450  -0.65009  -0.63199  -0.61179
 Alpha  occ. eigenvalues --   -0.60298  -0.59781  -0.58499  -0.57195  -0.53754
 Alpha  occ. eigenvalues --   -0.51472  -0.50417  -0.49511  -0.48554  -0.47464
 Alpha  occ. eigenvalues --   -0.47035  -0.46087  -0.45156  -0.45005  -0.44436
 Alpha  occ. eigenvalues --   -0.44396  -0.43322  -0.43004  -0.41674  -0.41321
 Alpha  occ. eigenvalues --   -0.41096  -0.40765  -0.40281  -0.39287  -0.38868
 Alpha  occ. eigenvalues --   -0.38488  -0.37163  -0.36108  -0.35656  -0.35049
 Alpha  occ. eigenvalues --   -0.34870  -0.34457  -0.33942  -0.32729  -0.31358
 Alpha  occ. eigenvalues --   -0.30684  -0.30179  -0.29729  -0.28859  -0.25848
 Alpha  occ. eigenvalues --   -0.25452  -0.24694  -0.22290  -0.20575
 Alpha virt. eigenvalues --   -0.04711   0.00063   0.01312   0.06508   0.09058
 Alpha virt. eigenvalues --    0.09966   0.10626   0.11333   0.11593   0.11866
 Alpha virt. eigenvalues --    0.12749   0.13369   0.14351   0.15041   0.15215

 Mulliken charges:
               1
     1  C   -0.325697
     2  H    0.192522
     3  H    0.199559
     4  H    0.192787
     5  N   -0.359464
     6  C    0.376913
     7  C    0.004161
     8  C   -0.209853
     9  C   -0.159542
    10  C   -0.164111
    11  C   -0.169111
    12  H    0.166203
    13  H    0.156216
    14  H    0.151344
    15  H    0.158333
    16  N   -0.401366
    17  C    0.221513
    18  C    0.614507
    19  O   -0.617485
    20  N   -0.637292
    21  H    0.369814
    22  C    0.072219
    23  C   -0.288944
    24  H    0.152049
    25  H    0.145439
    26  H    0.151942
    27  C   -0.327568
    28  H    0.151453
    29  H    0.158912
    30  C    0.027711
    31  H    0.133870
    32  C   -0.267986
    33  H    0.134464
    34  H    0.136285
    35  C   -0.285144
    36  H    0.138201
    37  H    0.136623
    38  C   -0.257077
    39  H    0.132703
    40  H    0.131417
    41  C    0.022345
    42  H    0.130718
    43  N   -0.416172
    44  C   -0.313682
    45  H    0.153767
    46  H    0.153465
    47  H    0.133040
 Sum of Mulliken charges =   0.00000

 Dipole moment (field-independent basis, Debye):
    X=             -2.2063    Y=              5.0726    Z=             -1.3592  Tot=              5.6962
 Quadrupole moment (field-independent basis, Debye-Ang):
   XX=           -112.8421   YY=           -130.8950   ZZ=           -135.5534
   XY=            -15.5182   XZ=             -5.8759   YZ=             -2.7204

 Normal termination of Gaussian 09 at Thu Nov 12 20:51:19 2020.
