 Gaussian 09, Revision D.01,

 -----------------
 #p b3lyp/6-31G(d)
 -----------------

 -----------------------------------------
 SET_328_BBB23_conf1_geo_180_060.n.pdb.xyz
 -----------------------------------------
 Symbolic Z-matrix:
 Charge =  0 Multiplicity = 1

 SCF Done:  E(RB3LYP) =  -237.082830925     A.U. after   12 cycles
 Normal termination of Gaussian 09 at Thu Nov 12 20:32:52 2020.
 Gaussian 09:  AM64L-G09RevD.01 24-Apr-2013

 ----------------------------------------------------------------------
 #p b3lyp/6-31G(d) scrf=(iefpcm,read,solvent=Water) geom=allcheck guess
 =read
 ----------------------------------------------------------------------

 Structure from the checkpoint file:  "SET_328_BBB23_conf1_geo_180_060.n.pdb.xyz.mst.n.w.chk"
 -----------------------------------------
 SET_328_BBB23_conf1_geo_180_060.n.pdb.xyz
 -----------------------------------------
 Charge =  0 Multiplicity = 1

                         Standard orientation:
 ---------------------------------------------------------------------
 Center     Atomic      Atomic             Coordinates (Angstroms)
 Number     Number       Type             X           Y           Z
 ---------------------------------------------------------------------
      1          6           0       -2.230491   -0.914436   -0.165418
      2          1           0       -2.185850   -1.165473   -1.232283
      3          1           0       -2.832311   -0.005244   -0.065218
      4          1           0       -2.764109   -1.723407    0.342496
      5          6           0       -0.825114   -0.731798    0.415052
      6          1           0       -0.285343   -1.682122    0.332797
      7          1           0       -0.899989   -0.516070    1.490812
      8          6           0        0.001346    0.383552   -0.256546
      9          6           0       -0.628565    1.766775   -0.027694
     10          1           0       -0.061730    2.546391   -0.548219
     11          1           0       -0.637548    2.018565    1.040147
     12          1           0       -1.660777    1.807200   -0.386181
     13          1           0        0.007539    0.189617   -1.339845
     14          6           0        1.466260    0.384795    0.226251
     15          1           0        1.479358    0.490991    1.320031
     16          1           0        1.958295    1.282040   -0.169733
     17          6           0        2.282238   -0.847057   -0.179497
     18          1           0        1.859427   -1.767673    0.233092
     19          1           0        3.315409   -0.769207    0.178679
     20          1           0        2.313585   -0.956588   -1.269458
 ---------------------------------------------------------------------

 SCF Done:  E(RB3LYP) =  -237.081792963     A.U. after    7 cycles

 The electronic state is 1-A.
 Alpha  occ. eigenvalues --  -10.17899 -10.17265 -10.17207 -10.16807 -10.16784
 Alpha  occ. eigenvalues --  -10.16584  -0.80629  -0.74126  -0.70790  -0.63545
 Alpha  occ. eigenvalues --   -0.60285  -0.54715  -0.45726  -0.44076  -0.43328
 Alpha  occ. eigenvalues --   -0.41059  -0.40237  -0.37726  -0.36168  -0.35763
 Alpha  occ. eigenvalues --   -0.34465  -0.33594  -0.31213  -0.30422  -0.30217
 Alpha virt. eigenvalues --    0.09137   0.11207   0.12380   0.13011   0.15690
 Alpha virt. eigenvalues --    0.16025   0.16974   0.17392   0.18139   0.18625
 Alpha virt. eigenvalues --    0.19224   0.19746   0.22587   0.23932   0.25294

 Mulliken charges:
               1
     1  C   -0.457597
     2  H    0.142979
     3  H    0.148583
     4  H    0.143273
     5  C   -0.252580
     6  H    0.135811
     7  H    0.127029
     8  C   -0.056312
     9  C   -0.461224
    10  H    0.141393
    11  H    0.139662
    12  H    0.146767
    13  H    0.116296
    14  C   -0.249445
    15  H    0.127770
    16  H    0.129264
    17  C   -0.458597
    18  H    0.149828
    19  H    0.143350
    20  H    0.143748
 Sum of Mulliken charges =   0.00000

 Dipole moment (field-independent basis, Debye):
    X=              0.0410    Y=             -0.0331    Z=             -0.0207  Tot=              0.0566
 Quadrupole moment (field-independent basis, Debye-Ang):
   XX=            -41.9463   YY=            -41.7758   ZZ=            -41.1302
   XY=              0.1974   XZ=             -0.1252   YZ=             -0.1581

 Normal termination of Gaussian 09 at Thu Nov 12 20:33:13 2020.
