 Gaussian 09, Revision D.01,

 -----------------
 #p b3lyp/6-31G(d)
 -----------------

 -----------------------------------------
 SET_328_BBB23_conf1_geo_300_300.n.pdb.xyz
 -----------------------------------------
 Symbolic Z-matrix:
 Charge =  0 Multiplicity = 1

 SCF Done:  E(RB3LYP) =  -237.081728104     A.U. after   12 cycles
 Normal termination of Gaussian 09 at Thu Nov 12 20:33:54 2020.
 Gaussian 09:  AM64L-G09RevD.01 24-Apr-2013

 ----------------------------------------------------------------------
 #p b3lyp/6-31G(d) scrf=(iefpcm,read,solvent=Water) geom=allcheck guess
 =read
 ----------------------------------------------------------------------

 Structure from the checkpoint file:  "SET_328_BBB23_conf1_geo_300_300.n.pdb.xyz.mst.n.w.chk"
 -----------------------------------------
 SET_328_BBB23_conf1_geo_300_300.n.pdb.xyz
 -----------------------------------------
 Charge =  0 Multiplicity = 1

                         Standard orientation:
 ---------------------------------------------------------------------
 Center     Atomic      Atomic             Coordinates (Angstroms)
 Number     Number       Type             X           Y           Z
 ---------------------------------------------------------------------
      1          6           0        2.225562   -0.521622    0.075333
      2          1           0        3.078967   -0.597964   -0.605519
      3          1           0        1.839007   -1.533047    0.236219
      4          1           0        2.600232   -0.155463    1.038985
      5          6           0        1.150020    0.413013   -0.488583
      6          1           0        0.811615    0.033334   -1.461826
      7          1           0        1.596774    1.395407   -0.686201
      8          6           0       -0.072280    0.608582    0.434333
      9          6           0       -1.008672    1.694748   -0.120551
     10          1           0       -0.480175    2.647769   -0.239395
     11          1           0       -1.859059    1.863356    0.549770
     12          1           0       -1.411073    1.415059   -1.099820
     13          1           0        0.308227    0.966241    1.403052
     14          6           0       -0.830665   -0.708124    0.720627
     15          1           0       -1.624022   -0.497466    1.448675
     16          1           0       -0.148130   -1.411348    1.211724
     17          6           0       -1.446009   -1.389841   -0.508122
     18          1           0       -1.970027   -2.305776   -0.219754
     19          1           0       -0.681181   -1.662765   -1.243025
     20          1           0       -2.168885   -0.737875   -1.011102
 ---------------------------------------------------------------------

 SCF Done:  E(RB3LYP) =  -237.080685450     A.U. after    8 cycles

 The electronic state is 1-A.
 Alpha  occ. eigenvalues --  -10.17916 -10.17213 -10.17209 -10.16789 -10.16732
 Alpha  occ. eigenvalues --  -10.16589  -0.80564  -0.73768  -0.70944  -0.63433
 Alpha  occ. eigenvalues --   -0.61109  -0.53295  -0.46568  -0.45066  -0.41856
 Alpha  occ. eigenvalues --   -0.40900  -0.40035  -0.37640  -0.37178  -0.35816
 Alpha  occ. eigenvalues --   -0.34192  -0.33499  -0.30894  -0.30436  -0.30094
 Alpha virt. eigenvalues --    0.08294   0.11740   0.12144   0.14047   0.15782
 Alpha virt. eigenvalues --    0.16087   0.16370   0.16831   0.17448   0.20079
 Alpha virt. eigenvalues --    0.20267   0.21540   0.22082   0.23285   0.24129

 Mulliken charges:
               1
     1  C   -0.458405
     2  H    0.143216
     3  H    0.149816
     4  H    0.142910
     5  C   -0.251823
     6  H    0.132863
     7  H    0.129579
     8  C   -0.058536
     9  C   -0.460032
    10  H    0.141032
    11  H    0.140398
    12  H    0.145324
    13  H    0.116960
    14  C   -0.257701
    15  H    0.129255
    16  H    0.134630
    17  C   -0.460172
    18  H    0.143635
    19  H    0.149003
    20  H    0.148048
 Sum of Mulliken charges =   0.00000

 Dipole moment (field-independent basis, Debye):
    X=              0.0317    Y=             -0.0055    Z=              0.0494  Tot=              0.0589
 Quadrupole moment (field-independent basis, Debye-Ang):
   XX=            -41.6973   YY=            -41.6048   ZZ=            -41.4070
   XY=              0.2473   XZ=             -0.2302   YZ=              0.1298

 Normal termination of Gaussian 09 at Thu Nov 12 20:34:20 2020.
