 Gaussian 09, Revision D.01,

 -----------------
 #p b3lyp/6-31G(d)
 -----------------

 ------------------------------------------
 SET_328_BBB285_conf1_geo_120_075.n.pdb.xyz
 ------------------------------------------
 Symbolic Z-matrix:
 Charge =  0 Multiplicity = 1

 SCF Done:  E(RB3LYP) =  -907.139187789     A.U. after   16 cycles
 Normal termination of Gaussian 09 at Sun Nov 22 16:09:47 2020.
 Gaussian 09:  AM64L-G09RevD.01 24-Apr-2013

 ----------------------------------------------------------------------
 #p b3lyp/6-31G(d) scrf=(iefpcm,read,solvent=Water) geom=allcheck guess
 =read
 ----------------------------------------------------------------------

 Structure from the checkpoint file:  "SET_328_BBB285_conf1_geo_120_075.n.pdb.xyz.mst.n.w.chk"
 ------------------------------------------
 SET_328_BBB285_conf1_geo_120_075.n.pdb.xyz
 ------------------------------------------
 Charge =  0 Multiplicity = 1

                         Standard orientation:
 ---------------------------------------------------------------------
 Center     Atomic      Atomic             Coordinates (Angstroms)
 Number     Number       Type             X           Y           Z
 ---------------------------------------------------------------------
      1          7           0        4.640140    0.898575    1.140694
      2          1           0        5.612698    1.098616    1.342085
      3          1           0        3.931071    1.227940    1.784921
      4          6           0        4.328130    0.209664    0.026454
      5          8           0        5.160744   -0.203295   -0.787711
      6          6           0        2.882296   -0.045093   -0.194113
      7          6           0        2.285941   -0.726944   -1.269989
      8          7           0        0.967182   -0.739560   -1.087480
      9          1           0        2.744824   -1.190091   -2.130164
     10          7           0        1.912042    0.356102    0.638203
     11          7           0        0.799539   -0.083785    0.065830
     12          6           0       -0.522085    0.167307    0.649803
     13          1           0       -0.315988    0.620776    1.617951
     14          8           0       -1.248637    1.059129   -0.169106
     15          6           0       -2.397696    0.414647   -0.771639
     16          6           0       -3.661868    1.037174   -0.191403
     17          8           0       -3.725423    2.426397   -0.484490
     18          1           0       -2.953501    2.836091   -0.058618
     19          1           0       -3.696500    0.849207    0.888030
     20          1           0       -4.535411    0.571474   -0.651653
     21          1           0       -2.355292    0.636583   -1.840695
     22          6           0       -2.226679   -1.089784   -0.493652
     23          8           0       -3.488614   -1.701922   -0.275249
     24          1           0       -3.389687   -2.657211   -0.429098
     25          1           0       -1.692445   -1.566763   -1.317482
     26          6           0       -1.355545   -1.111751    0.785194
     27          1           0       -0.724076   -2.001817    0.853594
     28          8           0       -2.177285   -0.975401    1.929834
     29          1           0       -3.019251   -1.414712    1.690267
 ---------------------------------------------------------------------

 SCF Done:  E(RB3LYP) =  -907.174208370     A.U. after   11 cycles

 The electronic state is 1-A.
 Alpha  occ. eigenvalues --  -19.17326 -19.16683 -19.15318 -19.14223 -19.12091
 Alpha  occ. eigenvalues --  -14.46105 -14.38969 -14.38494 -14.35570 -10.30335
 Alpha  occ. eigenvalues --  -10.29434 -10.24950 -10.24879 -10.24226 -10.23387
 Alpha  occ. eigenvalues --  -10.23175 -10.22567  -1.12677  -1.06971  -1.04214
 Alpha  occ. eigenvalues --   -1.03652  -1.01822  -1.01156  -0.91718  -0.90024
 Alpha  occ. eigenvalues --   -0.86354  -0.77834  -0.76014  -0.69218  -0.67225
 Alpha  occ. eigenvalues --   -0.64148  -0.61121  -0.59209  -0.58038  -0.55631
 Alpha  occ. eigenvalues --   -0.54301  -0.52716  -0.52153  -0.50455  -0.49549
 Alpha  occ. eigenvalues --   -0.48838  -0.48297  -0.46821  -0.45672  -0.44304
 Alpha  occ. eigenvalues --   -0.42375  -0.41721  -0.41476  -0.40641  -0.40082
 Alpha  occ. eigenvalues --   -0.37790  -0.35559  -0.35041  -0.34084  -0.33065
 Alpha  occ. eigenvalues --   -0.31560  -0.30876  -0.30183  -0.29523  -0.27766
 Alpha  occ. eigenvalues --   -0.27250  -0.27149  -0.26781  -0.26057
 Alpha virt. eigenvalues --   -0.03950  -0.00393   0.05536   0.09411   0.10476
 Alpha virt. eigenvalues --    0.10804   0.11315   0.11512   0.13229   0.13767
 Alpha virt. eigenvalues --    0.13923   0.15102   0.15321   0.16061   0.17466

 Mulliken charges:
               1
     1  N   -0.770580
     2  H    0.386983
     3  H    0.393719
     4  C    0.567950
     5  O   -0.593916
     6  C    0.242956
     7  C   -0.001927
     8  N   -0.293665
     9  H    0.193663
    10  N   -0.373419
    11  N   -0.049955
    12  C    0.265022
    13  H    0.194159
    14  O   -0.521724
    15  C    0.104173
    16  C   -0.036527
    17  O   -0.667668
    18  H    0.431228
    19  H    0.137067
    20  H    0.158629
    21  H    0.161307
    22  C    0.078651
    23  O   -0.662842
    24  H    0.461254
    25  H    0.176050
    26  C    0.092164
    27  H    0.162651
    28  O   -0.670642
    29  H    0.435239
 Sum of Mulliken charges =   0.00000

 Dipole moment (field-independent basis, Debye):
    X=             -1.6466    Y=             -3.0772    Z=              2.7269  Tot=              4.4291
 Quadrupole moment (field-independent basis, Debye-Ang):
   XX=           -114.0747   YY=            -87.6682   ZZ=            -96.8975
   XY=             25.0451   XZ=             15.5017   YZ=              7.7724

 Normal termination of Gaussian 09 at Sun Nov 22 16:12:27 2020.
