 Gaussian 09, Revision D.01,

 -----------------
 #p b3lyp/6-31G(d)
 -----------------

 -----------------------------------------
 SET_328_BBB23_conf1_geo_060_165.n.pdb.xyz
 -----------------------------------------
 Symbolic Z-matrix:
 Charge =  0 Multiplicity = 1

 SCF Done:  E(RB3LYP) =  -237.081692153     A.U. after   12 cycles
 Normal termination of Gaussian 09 at Thu Nov 12 20:32:53 2020.
 Gaussian 09:  AM64L-G09RevD.01 24-Apr-2013

 ----------------------------------------------------------------------
 #p b3lyp/6-31G(d) scrf=(iefpcm,read,solvent=Water) geom=allcheck guess
 =read
 ----------------------------------------------------------------------

 Structure from the checkpoint file:  "SET_328_BBB23_conf1_geo_060_165.n.pdb.xyz.mst.n.w.chk"
 -----------------------------------------
 SET_328_BBB23_conf1_geo_060_165.n.pdb.xyz
 -----------------------------------------
 Charge =  0 Multiplicity = 1

                         Standard orientation:
 ---------------------------------------------------------------------
 Center     Atomic      Atomic             Coordinates (Angstroms)
 Number     Number       Type             X           Y           Z
 ---------------------------------------------------------------------
      1          6           0        2.156420   -0.574677   -0.567010
      2          1           0        3.174874   -0.902057   -0.332885
      3          1           0        2.232179    0.283601   -1.242137
      4          1           0        1.667025   -1.386586   -1.116828
      5          6           0        1.395249   -0.216258    0.714857
      6          1           0        1.966429    0.543106    1.264341
      7          1           0        1.358321   -1.100460    1.365940
      8          6           0       -0.045577    0.304056    0.511649
      9          6           0       -0.067444    1.627592   -0.269787
     10          1           0       -1.084685    2.019998   -0.364944
     11          1           0        0.332552    1.497430   -1.281445
     12          1           0        0.540288    2.392014    0.230714
     13          1           0       -0.446226    0.506933    1.516301
     14          6           0       -0.955691   -0.762125   -0.131259
     15          1           0       -0.797094   -1.716777    0.387974
     16          1           0       -0.649778   -0.927564   -1.172686
     17          6           0       -2.447974   -0.416041   -0.093304
     18          1           0       -2.796066   -0.288459    0.937831
     19          1           0       -3.049920   -1.209040   -0.552527
     20          1           0       -2.657797    0.512584   -0.630523
 ---------------------------------------------------------------------

 SCF Done:  E(RB3LYP) =  -237.080637303     A.U. after    7 cycles

 The electronic state is 1-A.
 Alpha  occ. eigenvalues --  -10.17904 -10.17274 -10.17209 -10.16785 -10.16726
 Alpha  occ. eigenvalues --  -10.16558  -0.80573  -0.74091  -0.70377  -0.64275
 Alpha  occ. eigenvalues --   -0.60415  -0.53548  -0.45909  -0.44517  -0.43680
 Alpha  occ. eigenvalues --   -0.41437  -0.38212  -0.37720  -0.37168  -0.36043
 Alpha  occ. eigenvalues --   -0.34926  -0.32935  -0.30908  -0.30573  -0.30013
 Alpha virt. eigenvalues --    0.08623   0.11793   0.12567   0.13016   0.15301
 Alpha virt. eigenvalues --    0.16174   0.16361   0.17419   0.18147   0.18822
 Alpha virt. eigenvalues --    0.19182   0.21340   0.22803   0.23661   0.24416

 Mulliken charges:
               1
     1  C   -0.458959
     2  H    0.143080
     3  H    0.148115
     4  H    0.148161
     5  C   -0.254926
     6  H    0.128323
     7  H    0.128869
     8  C   -0.056574
     9  C   -0.462989
    10  H    0.146612
    11  H    0.144949
    12  H    0.140532
    13  H    0.117044
    14  C   -0.251135
    15  H    0.129001
    16  H    0.133035
    17  C   -0.458043
    18  H    0.143120
    19  H    0.142647
    20  H    0.149139
 Sum of Mulliken charges =   0.00000

 Dipole moment (field-independent basis, Debye):
    X=             -0.0006    Y=             -0.0300    Z=              0.0600  Tot=              0.0671
 Quadrupole moment (field-independent basis, Debye-Ang):
   XX=            -41.9729   YY=            -41.4874   ZZ=            -41.3041
   XY=              0.1516   XZ=              0.1392   YZ=              0.0160

 Normal termination of Gaussian 09 at Thu Nov 12 20:33:16 2020.
