 Gaussian 09, Revision D.01,

 -----------------
 #p b3lyp/6-31G(d)
 -----------------

 -----------------------------------------
 SET_328_BBB87_conf1_geo_075_240.n.pdb.xyz
 -----------------------------------------
 Symbolic Z-matrix:
 Charge =  0 Multiplicity = 1

 SCF Done:  E(RB3LYP) =  -703.022175964     A.U. after   15 cycles
 Normal termination of Gaussian 09 at Thu Nov 12 20:46:05 2020.
 Gaussian 09:  AM64L-G09RevD.01 24-Apr-2013

 ----------------------------------------------------------------------
 #p b3lyp/6-31G(d) scrf=(iefpcm,read,solvent=Water) geom=allcheck guess
 =read
 ----------------------------------------------------------------------

 Structure from the checkpoint file:  "SET_328_BBB87_conf1_geo_075_240.n.pdb.xyz.mst.n.w.chk"
 -----------------------------------------
 SET_328_BBB87_conf1_geo_075_240.n.pdb.xyz
 -----------------------------------------
 Charge =  0 Multiplicity = 1

                         Standard orientation:
 ---------------------------------------------------------------------
 Center     Atomic      Atomic             Coordinates (Angstroms)
 Number     Number       Type             X           Y           Z
 ---------------------------------------------------------------------
      1          7           0        2.589599    0.850305   -0.719786
      2          1           0        1.753309    1.161734   -1.214111
      3          1           0        3.310730    0.767556   -1.437815
      4          6           0        2.341179   -0.476708   -0.152668
      5          1           0        3.279940   -0.846845    0.274559
      6          1           0        2.010013   -1.224828   -0.890019
      7          6           0        1.303021   -0.407358    0.981795
      8          1           0        1.633832    0.330885    1.716263
      9          1           0        1.254611   -1.381065    1.476562
     10          6           0       -0.064350   -0.001703    0.517885
     11          7           0       -0.546115    1.211468    0.583825
     12          6           0       -1.812283    1.282256    0.041069
     13          1           0       -2.332321    2.232365    0.035186
     14          6           0       -2.318686    0.117364   -0.451547
     15          1           0       -3.280028   -0.061955   -0.910988
     16         16           0       -1.164235   -1.155835   -0.232320
 ---------------------------------------------------------------------

 SCF Done:  E(RB3LYP) =  -703.034132028     A.U. after   11 cycles

 The electronic state is 1-A.
 Alpha  occ. eigenvalues --  -88.91440 -14.33882 -14.30657 -10.25691 -10.21952
 Alpha  occ. eigenvalues --  -10.21862 -10.20962 -10.19611  -7.97615  -5.93986
 Alpha  occ. eigenvalues --   -5.93641  -5.93346  -0.96371  -0.87601  -0.79767
 Alpha  occ. eigenvalues --   -0.77846  -0.71028  -0.62167  -0.58608  -0.53589
 Alpha  occ. eigenvalues --   -0.49931  -0.48500  -0.46901  -0.42699  -0.41652
 Alpha  occ. eigenvalues --   -0.41182  -0.37004  -0.36608  -0.36287  -0.35601
 Alpha  occ. eigenvalues --   -0.28608  -0.27958  -0.24493  -0.23540
 Alpha virt. eigenvalues --   -0.02586   0.02082   0.04869   0.09638   0.09887
 Alpha virt. eigenvalues --    0.12911   0.13792   0.15659   0.16231   0.16764
 Alpha virt. eigenvalues --    0.17897   0.19485   0.22203   0.23627   0.24162

 Mulliken charges:
               1
     1  N   -0.768862
     2  H    0.326077
     3  H    0.333271
     4  C   -0.137249
     5  H    0.153594
     6  H    0.133158
     7  C   -0.310646
     8  H    0.171887
     9  H    0.172391
    10  C    0.088158
    11  N   -0.450391
    12  C    0.032625
    13  H    0.171449
    14  C   -0.354049
    15  H    0.207536
    16  S    0.231052
 Sum of Mulliken charges =   0.00000

 Dipole moment (field-independent basis, Debye):
    X=             -0.6638    Y=             -2.3510    Z=             -2.1129  Tot=              3.2299
 Quadrupole moment (field-independent basis, Debye-Ang):
   XX=            -46.7452   YY=            -57.6583   ZZ=            -52.8346
   XY=             -5.5573   XZ=             -0.6663   YZ=             -3.3393

 Normal termination of Gaussian 09 at Thu Nov 12 20:46:34 2020.
