 Gaussian 09, Revision D.01,

 -----------------
 #p b3lyp/6-31G(d)
 -----------------

 -----------------------------------------
 SET_328_BBB23_conf1_geo_195_300.n.pdb.xyz
 -----------------------------------------
 Symbolic Z-matrix:
 Charge =  0 Multiplicity = 1

 SCF Done:  E(RB3LYP) =  -237.081808021     A.U. after   12 cycles
 Normal termination of Gaussian 09 at Thu Nov 12 20:33:52 2020.
 Gaussian 09:  AM64L-G09RevD.01 24-Apr-2013

 ----------------------------------------------------------------------
 #p b3lyp/6-31G(d) scrf=(iefpcm,read,solvent=Water) geom=allcheck guess
 =read
 ----------------------------------------------------------------------

 Structure from the checkpoint file:  "SET_328_BBB23_conf1_geo_195_300.n.pdb.xyz.mst.n.w.chk"
 -----------------------------------------
 SET_328_BBB23_conf1_geo_195_300.n.pdb.xyz
 -----------------------------------------
 Charge =  0 Multiplicity = 1

                         Standard orientation:
 ---------------------------------------------------------------------
 Center     Atomic      Atomic             Coordinates (Angstroms)
 Number     Number       Type             X           Y           Z
 ---------------------------------------------------------------------
      1          6           0        2.444769   -0.415947   -0.100189
      2          1           0        3.041505   -1.234067   -0.516961
      3          1           0        2.794030   -0.237573    0.923800
      4          1           0        2.662225    0.482763   -0.686140
      5          6           0        0.953064   -0.761112   -0.118291
      6          1           0        0.801376   -1.706694    0.419178
      7          1           0        0.636500   -0.946464   -1.152870
      8          6           0        0.043883    0.307572    0.512467
      9          6           0        0.065459    1.626492   -0.270676
     10          1           0       -0.277182    1.485195   -1.301769
     11          1           0        1.073390    2.051248   -0.313551
     12          1           0       -0.587563    2.371027    0.198042
     13          1           0        0.439926    0.516776    1.517430
     14          6           0       -1.394673   -0.213632    0.712241
     15          1           0       -1.968895    0.546090    1.257783
     16          1           0       -1.355734   -1.096734    1.364254
     17          6           0       -2.148351   -0.578289   -0.569963
     18          1           0       -3.154492   -0.939357   -0.336904
     19          1           0       -1.635534   -1.366958   -1.130120
     20          1           0       -2.254449    0.284238   -1.235702
 ---------------------------------------------------------------------

 SCF Done:  E(RB3LYP) =  -237.080740129     A.U. after    7 cycles

 The electronic state is 1-A.
 Alpha  occ. eigenvalues --  -10.17825 -10.17226 -10.17167 -10.16789 -10.16684
 Alpha  occ. eigenvalues --  -10.16519  -0.80665  -0.74110  -0.70430  -0.64297
 Alpha  occ. eigenvalues --   -0.60424  -0.53529  -0.45976  -0.44509  -0.43670
 Alpha  occ. eigenvalues --   -0.41439  -0.38233  -0.37753  -0.37241  -0.36053
 Alpha  occ. eigenvalues --   -0.34911  -0.32882  -0.30914  -0.30556  -0.30020
 Alpha virt. eigenvalues --    0.08601   0.11832   0.12593   0.13072   0.15273
 Alpha virt. eigenvalues --    0.16259   0.16350   0.17514   0.17960   0.18795
 Alpha virt. eigenvalues --    0.19335   0.21425   0.22579   0.23514   0.24287

 Mulliken charges:
               1
     1  C   -0.457629
     2  H    0.143031
     3  H    0.142654
     4  H    0.148514
     5  C   -0.250619
     6  H    0.128759
     7  H    0.133118
     8  C   -0.056424
     9  C   -0.461955
    10  H    0.144484
    11  H    0.146231
    12  H    0.140668
    13  H    0.116736
    14  C   -0.254712
    15  H    0.128184
    16  H    0.128567
    17  C   -0.459064
    18  H    0.143100
    19  H    0.148494
    20  H    0.147862
 Sum of Mulliken charges =   0.00000

 Dipole moment (field-independent basis, Debye):
    X=              0.0030    Y=             -0.0315    Z=              0.0598  Tot=              0.0677
 Quadrupole moment (field-independent basis, Debye-Ang):
   XX=            -41.9779   YY=            -41.4771   ZZ=            -41.3049
   XY=             -0.1618   XZ=             -0.1281   YZ=              0.0253

 Normal termination of Gaussian 09 at Thu Nov 12 20:34:13 2020.
