 Gaussian 09, Revision D.01,

 -----------------
 #p b3lyp/6-31G(d)
 -----------------

 ------------------------------------------
 SET_328_BBB212_conf1_geo_300_135.n.pdb.xyz
 ------------------------------------------
 Symbolic Z-matrix:
 Charge =  0 Multiplicity = 1

 SCF Done:  E(RB3LYP) =  -731.666405820     A.U. after   14 cycles
 Normal termination of Gaussian 09 at Sun Nov 22 16:10:05 2020.
 Gaussian 09:  AM64L-G09RevD.01 24-Apr-2013

 ----------------------------------------------------------------------
 #p b3lyp/6-31G(d) scrf=(iefpcm,read,solvent=Water) geom=allcheck guess
 =read
 ----------------------------------------------------------------------

 Structure from the checkpoint file:  "SET_328_BBB212_conf1_geo_300_135.n.pdb.xyz.mst.n.w.chk"
 ------------------------------------------
 SET_328_BBB212_conf1_geo_300_135.n.pdb.xyz
 ------------------------------------------
 Charge =  0 Multiplicity = 1

                         Standard orientation:
 ---------------------------------------------------------------------
 Center     Atomic      Atomic             Coordinates (Angstroms)
 Number     Number       Type             X           Y           Z
 ---------------------------------------------------------------------
      1          6           0       -0.046617    2.401278   -1.224289
      2          1           0       -0.939369    3.030548   -1.176598
      3          1           0       -0.081417    1.836182   -2.158700
      4          1           0        0.830416    3.055058   -1.254606
      5          6           0       -0.000941    1.474519    0.006108
      6          6           0        0.042297    2.363640    1.263452
      7          1           0        0.055111    1.762390    2.174759
      8          1           0       -0.823025    3.031879    1.306339
      9          1           0        0.945816    2.978018    1.249385
     10          6           0        1.255156    0.588885    0.004053
     11          6           0        1.474972   -0.303710    1.064967
     12          6           0        2.603157   -1.115828    1.121461
     13          6           0        3.558989   -1.053675    0.098885
     14          8           0        4.688316   -1.819983    0.092411
     15          1           0        4.704919   -2.379280    0.889601
     16          6           0        3.361140   -0.173781   -0.967520
     17          6           0        2.223090    0.633922   -1.006459
     18          1           0        2.094617    1.309313   -1.843517
     19          1           0        4.102322   -0.127227   -1.759358
     20          1           0        2.744255   -1.797137    1.953871
     21          1           0        0.744268   -0.365229    1.865593
     22          6           0       -1.253212    0.583698   -0.010992
     23          6           0       -2.228718    0.626115    0.988954
     24          1           0       -2.106165    1.299328    1.827844
     25          6           0       -3.368224   -0.182367    0.942234
     26          1           0       -4.109222   -0.126565    1.734632
     27          6           0       -3.552878   -1.063129   -0.125088
     28          8           0       -4.637223   -1.883728   -0.237620
     29          1           0       -5.233053   -1.740430    0.520111
     30          6           0       -2.587536   -1.124808   -1.138438
     31          1           0       -2.734109   -1.812289   -1.965021
     32          6           0       -1.461319   -0.312259   -1.073611
     33          1           0       -0.720250   -0.379888   -1.864957
 ---------------------------------------------------------------------

 SCF Done:  E(RB3LYP) =  -731.685693977     A.U. after   11 cycles

 The electronic state is 1-A.
 Alpha  occ. eigenvalues --  -19.17323 -19.17316 -10.24731 -10.24723 -10.20546
 Alpha  occ. eigenvalues --  -10.18822 -10.18809 -10.18775 -10.18766 -10.18726
 Alpha  occ. eigenvalues --  -10.18721 -10.18675 -10.18577 -10.18464 -10.18364
 Alpha  occ. eigenvalues --  -10.17244 -10.17218  -1.05289  -1.05288  -0.86427
 Alpha  occ. eigenvalues --   -0.84526  -0.80491  -0.74732  -0.74557  -0.73126
 Alpha  occ. eigenvalues --   -0.71717  -0.68661  -0.63042  -0.61901  -0.60828
 Alpha  occ. eigenvalues --   -0.59568  -0.55476  -0.53972  -0.53892  -0.49523
 Alpha  occ. eigenvalues --   -0.47822  -0.46326  -0.45226  -0.44453  -0.44319
 Alpha  occ. eigenvalues --   -0.42078  -0.41914  -0.41109  -0.40656  -0.40453
 Alpha  occ. eigenvalues --   -0.40154  -0.39268  -0.37921  -0.37777  -0.37191
 Alpha  occ. eigenvalues --   -0.35352  -0.34829  -0.33682  -0.33302  -0.31931
 Alpha  occ. eigenvalues --   -0.31876  -0.31392  -0.25235  -0.25205  -0.22404
 Alpha  occ. eigenvalues --   -0.20852
 Alpha virt. eigenvalues --   -0.00414  -0.00359   0.00832   0.02170   0.09310
 Alpha virt. eigenvalues --    0.09737   0.09781   0.10996   0.12704   0.13104
 Alpha virt. eigenvalues --    0.14351   0.14581   0.15764   0.15855   0.15996

 Mulliken charges:
               1
     1  C   -0.468237
     2  H    0.151568
     3  H    0.156173
     4  H    0.151663
     5  C   -0.057780
     6  C   -0.468704
     7  H    0.156518
     8  H    0.151975
     9  H    0.151727
    10  C    0.168204
    11  C   -0.210863
    12  C   -0.213362
    13  C    0.344447
    14  O   -0.679904
    15  H    0.457385
    16  C   -0.193146
    17  C   -0.221947
    18  H    0.145457
    19  H    0.143710
    20  H    0.151832
    21  H    0.145935
    22  C    0.168683
    23  C   -0.223773
    24  H    0.146222
    25  C   -0.216651
    26  H    0.150572
    27  C    0.344904
    28  O   -0.680101
    29  H    0.457440
    30  C   -0.189066
    31  H    0.144937
    32  C   -0.210332
    33  H    0.144516
 Sum of Mulliken charges =   0.00000

 Dipole moment (field-independent basis, Debye):
    X=             -1.2048    Y=             -0.0123    Z=              3.2634  Tot=              3.4787
 Quadrupole moment (field-independent basis, Debye-Ang):
   XX=            -91.3555   YY=            -96.4533   ZZ=            -91.8918
   XY=             -4.8759   XZ=             -4.0129   YZ=             -7.1825

 Normal termination of Gaussian 09 at Sun Nov 22 16:13:25 2020.
