 Gaussian 09, Revision D.01,

 -----------------
 #p b3lyp/6-31G(d)
 -----------------

 ------------------------------------------
 SET_328_BBB285_conf1_geo_120_300.n.pdb.xyz
 ------------------------------------------
 Symbolic Z-matrix:
 Charge =  0 Multiplicity = 1

 SCF Done:  E(RB3LYP) =  -907.138649351     A.U. after   16 cycles
 Normal termination of Gaussian 09 at Sun Nov 22 16:09:45 2020.
 Gaussian 09:  AM64L-G09RevD.01 24-Apr-2013

 ----------------------------------------------------------------------
 #p b3lyp/6-31G(d) scrf=(iefpcm,read,solvent=Water) geom=allcheck guess
 =read
 ----------------------------------------------------------------------

 Structure from the checkpoint file:  "SET_328_BBB285_conf1_geo_120_300.n.pdb.xyz.mst.n.w.chk"
 ------------------------------------------
 SET_328_BBB285_conf1_geo_120_300.n.pdb.xyz
 ------------------------------------------
 Charge =  0 Multiplicity = 1

                         Standard orientation:
 ---------------------------------------------------------------------
 Center     Atomic      Atomic             Coordinates (Angstroms)
 Number     Number       Type             X           Y           Z
 ---------------------------------------------------------------------
      1          7           0        4.407253   -0.530670   -1.620629
      2          1           0        5.333046   -0.696622   -1.996667
      3          1           0        3.615428   -0.528522   -2.252454
      4          6           0        4.264013   -0.315745   -0.298270
      5          8           0        5.199295   -0.306494    0.508301
      6          6           0        2.873078   -0.082889    0.169397
      7          6           0        2.437402    0.175009    1.481708
      8          7           0        1.115138    0.326443    1.471504
      9          1           0        3.010177    0.257143    2.392207
     10          7           0        1.800211   -0.089387   -0.632235
     11          7           0        0.787981    0.167654    0.183832
     12          6           0       -0.597560    0.169603   -0.285182
     13          1           0       -0.519355    0.197154   -1.374824
     14          8           0       -1.253807   -0.995360    0.146987
     15          6           0       -2.490905   -0.672692    0.831988
     16          6           0       -3.549075   -1.703307    0.445154
     17          8           0       -3.752208   -1.814247   -0.951576
     18          1           0       -3.853237   -0.896187   -1.272651
     19          1           0       -4.476552   -1.447101    0.980895
     20          1           0       -3.231135   -2.687850    0.799862
     21          1           0       -2.323275   -0.735513    1.914272
     22          6           0       -2.799763    0.783517    0.463193
     23          8           0       -3.535663    0.868571   -0.754588
     24          1           0       -3.126052    1.602040   -1.260469
     25          1           0       -3.345820    1.292874    1.266392
     26          6           0       -1.392897    1.373995    0.245829
     27          1           0       -0.964438    1.707049    1.192649
     28          8           0       -1.378057    2.399012   -0.729183
     29          1           0       -1.595092    3.240454   -0.288931
 ---------------------------------------------------------------------

 SCF Done:  E(RB3LYP) =  -907.175580884     A.U. after   11 cycles

 The electronic state is 1-A.
 Alpha  occ. eigenvalues --  -19.17329 -19.17030 -19.16052 -19.13167 -19.12138
 Alpha  occ. eigenvalues --  -14.46213 -14.39015 -14.38526 -14.35574 -10.30372
 Alpha  occ. eigenvalues --  -10.29562 -10.25798 -10.24821 -10.24684 -10.23448
 Alpha  occ. eigenvalues --  -10.23225 -10.23136  -1.12766  -1.07210  -1.04651
 Alpha  occ. eigenvalues --   -1.03699  -1.02442  -1.00402  -0.91762  -0.90052
 Alpha  occ. eigenvalues --   -0.86454  -0.78310  -0.76363  -0.69584  -0.67068
 Alpha  occ. eigenvalues --   -0.64408  -0.60673  -0.59268  -0.58576  -0.56006
 Alpha  occ. eigenvalues --   -0.54716  -0.53047  -0.52001  -0.51255  -0.49800
 Alpha  occ. eigenvalues --   -0.48627  -0.47954  -0.46983  -0.45170  -0.44436
 Alpha  occ. eigenvalues --   -0.43276  -0.42041  -0.41378  -0.41181  -0.39629
 Alpha  occ. eigenvalues --   -0.38203  -0.37392  -0.35329  -0.33809  -0.33097
 Alpha  occ. eigenvalues --   -0.31712  -0.30838  -0.29655  -0.28994  -0.28384
 Alpha  occ. eigenvalues --   -0.27176  -0.27164  -0.26789  -0.26244
 Alpha virt. eigenvalues --   -0.04068  -0.00433   0.05853   0.09438   0.10501
 Alpha virt. eigenvalues --    0.10976   0.11351   0.11818   0.12663   0.13316
 Alpha virt. eigenvalues --    0.14843   0.15172   0.15344   0.16277   0.17028

 Mulliken charges:
               1
     1  N   -0.770384
     2  H    0.387122
     3  H    0.393975
     4  C    0.567993
     5  O   -0.592931
     6  C    0.245554
     7  C   -0.006014
     8  N   -0.291668
     9  H    0.193968
    10  N   -0.372945
    11  N   -0.059878
    12  C    0.309635
    13  H    0.185266
    14  O   -0.520585
    15  C    0.104876
    16  C   -0.045260
    17  O   -0.681677
    18  H    0.434521
    19  H    0.138558
    20  H    0.157301
    21  H    0.158454
    22  C    0.096237
    23  O   -0.685358
    24  H    0.441323
    25  H    0.163467
    26  C    0.048300
    27  H    0.191869
    28  O   -0.657955
    29  H    0.466237
 Sum of Mulliken charges =   0.00000

 Dipole moment (field-independent basis, Debye):
    X=             -2.7727    Y=              5.9465    Z=             -0.5142  Tot=              6.5813
 Quadrupole moment (field-independent basis, Debye-Ang):
   XX=           -115.8209   YY=            -91.0463   ZZ=            -88.8592
   XY=            -16.2518   XZ=            -25.0300   YZ=             -0.5027

 Normal termination of Gaussian 09 at Sun Nov 22 16:12:23 2020.
