 Gaussian 09, Revision D.01,

 -----------------
 #p b3lyp/6-31G(d)
 -----------------

 ------------------------------------------
 SET_328_BBB212_conf1_geo_060_045.n.pdb.xyz
 ------------------------------------------
 Symbolic Z-matrix:
 Charge =  0 Multiplicity = 1

 SCF Done:  E(RB3LYP) =  -731.666873737     A.U. after   14 cycles
 Normal termination of Gaussian 09 at Sun Nov 22 16:10:06 2020.
 Gaussian 09:  AM64L-G09RevD.01 24-Apr-2013

 ----------------------------------------------------------------------
 #p b3lyp/6-31G(d) scrf=(iefpcm,read,solvent=Water) geom=allcheck guess
 =read
 ----------------------------------------------------------------------

 Structure from the checkpoint file:  "SET_328_BBB212_conf1_geo_060_045.n.pdb.xyz.mst.n.w.chk"
 ------------------------------------------
 SET_328_BBB212_conf1_geo_060_045.n.pdb.xyz
 ------------------------------------------
 Charge =  0 Multiplicity = 1

                         Standard orientation:
 ---------------------------------------------------------------------
 Center     Atomic      Atomic             Coordinates (Angstroms)
 Number     Number       Type             X           Y           Z
 ---------------------------------------------------------------------
      1          6           0        0.042571    2.406959   -1.180403
      2          1           0        0.948238    3.016784   -1.131846
      3          1           0       -0.818380    3.081179   -1.191888
      4          1           0        0.057383    1.851275   -2.121429
      5          6           0       -0.007781    1.460274    0.035407
      6          6           0       -0.076377    2.336686    1.300944
      7          1           0        0.781699    3.014634    1.361467
      8          1           0       -0.102948    1.737702    2.215927
      9          1           0       -0.984053    2.944117    1.272666
     10          6           0        1.257676    0.586983    0.014111
     11          6           0        1.499533   -0.256361   -1.081016
     12          6           0        2.638345   -1.052454   -1.163844
     13          6           0        3.582836   -1.023628   -0.128596
     14          8           0        4.721929   -1.776669   -0.136003
     15          1           0        4.750529   -2.317084   -0.944829
     16          6           0        3.364128   -0.192029    0.972114
     17          6           0        2.216945    0.600463    1.034794
     18          1           0        2.073647    1.238117    1.899359
     19          1           0        4.096389   -0.171371    1.772209
     20          1           0        2.792482   -1.693106   -2.026818
     21          1           0        0.778287   -0.292597   -1.890597
     22          6           0       -1.258588    0.564009    0.009123
     23          6           0       -1.395247   -0.474012    0.943787
     24          1           0       -0.594128   -0.665528    1.651297
     25          6           0       -2.529670   -1.282166    0.987654
     26          1           0       -2.603450   -2.080184    1.722319
     27          6           0       -3.573279   -1.066913    0.079953
     28          8           0       -4.712470   -1.818402    0.063809
     29          1           0       -4.667170   -2.492410    0.765151
     30          6           0       -3.457565   -0.042757   -0.862589
     31          1           0       -4.264321    0.118765   -1.569345
     32          6           0       -2.314333    0.756217   -0.890112
     33          1           0       -2.255033    1.542654   -1.634062
 ---------------------------------------------------------------------

 SCF Done:  E(RB3LYP) =  -731.685890588     A.U. after   10 cycles

 The electronic state is 1-A.
 Alpha  occ. eigenvalues --  -19.17312 -19.17301 -10.24753 -10.24709 -10.20577
 Alpha  occ. eigenvalues --  -10.18830 -10.18814 -10.18782 -10.18771 -10.18725
 Alpha  occ. eigenvalues --  -10.18724 -10.18697 -10.18676 -10.18350 -10.18335
 Alpha  occ. eigenvalues --  -10.17252 -10.17237  -1.05276  -1.05268  -0.86388
 Alpha  occ. eigenvalues --   -0.84513  -0.80469  -0.74669  -0.74578  -0.73163
 Alpha  occ. eigenvalues --   -0.71690  -0.68571  -0.63418  -0.61433  -0.60435
 Alpha  occ. eigenvalues --   -0.59970  -0.55621  -0.53945  -0.53921  -0.48968
 Alpha  occ. eigenvalues --   -0.47841  -0.47210  -0.44472  -0.44438  -0.44230
 Alpha  occ. eigenvalues --   -0.41998  -0.41880  -0.41299  -0.40884  -0.40557
 Alpha  occ. eigenvalues --   -0.40170  -0.38916  -0.38283  -0.37511  -0.37308
 Alpha  occ. eigenvalues --   -0.34948  -0.34780  -0.33717  -0.33445  -0.31922
 Alpha  occ. eigenvalues --   -0.31886  -0.31387  -0.25277  -0.25148  -0.22358
 Alpha  occ. eigenvalues --   -0.20883
 Alpha virt. eigenvalues --   -0.00544  -0.00177   0.00904   0.02008   0.09356
 Alpha virt. eigenvalues --    0.09756   0.09843   0.10905   0.12643   0.13313
 Alpha virt. eigenvalues --    0.14160   0.14475   0.15771   0.15947   0.16054

 Mulliken charges:
               1
     1  C   -0.468463
     2  H    0.151892
     3  H    0.152532
     4  H    0.155422
     5  C   -0.052232
     6  C   -0.464738
     7  H    0.151089
     8  H    0.154447
     9  H    0.151403
    10  C    0.163356
    11  C   -0.208988
    12  C   -0.213075
    13  C    0.343104
    14  O   -0.679998
    15  H    0.457284
    16  C   -0.192607
    17  C   -0.220744
    18  H    0.145077
    19  H    0.143656
    20  H    0.152144
    21  H    0.145501
    22  C    0.165393
    23  C   -0.209732
    24  H    0.144335
    25  C   -0.213561
    26  H    0.151708
    27  C    0.344087
    28  O   -0.679926
    29  H    0.457236
    30  C   -0.192066
    31  H    0.143648
    32  C   -0.221273
    33  H    0.144091
 Sum of Mulliken charges =   0.00000

 Dipole moment (field-independent basis, Debye):
    X=              0.1676    Y=             -1.6741    Z=             -0.2254  Tot=              1.6975
 Quadrupole moment (field-independent basis, Debye-Ang):
   XX=           -104.4540   YY=            -88.6546   ZZ=            -91.8345
   XY=              0.2585   XZ=            -11.3237   YZ=             -0.1513

 Normal termination of Gaussian 09 at Sun Nov 22 16:13:11 2020.
