 Gaussian 09, Revision D.01,

 -----------------
 #p b3lyp/6-31G(d)
 -----------------

 ------------------------------------------
 SET_328_BBB285_conf1_geo_300_300.n.pdb.xyz
 ------------------------------------------
 Symbolic Z-matrix:
 Charge =  0 Multiplicity = 1

 SCF Done:  E(RB3LYP) =  -907.141778548     A.U. after   16 cycles
 Normal termination of Gaussian 09 at Sun Nov 22 16:09:32 2020.
 Gaussian 09:  AM64L-G09RevD.01 24-Apr-2013

 ----------------------------------------------------------------------
 #p b3lyp/6-31G(d) scrf=(iefpcm,read,solvent=Water) geom=allcheck guess
 =read
 ----------------------------------------------------------------------

 Structure from the checkpoint file:  "SET_328_BBB285_conf1_geo_300_300.n.pdb.xyz.mst.n.w.chk"
 ------------------------------------------
 SET_328_BBB285_conf1_geo_300_300.n.pdb.xyz
 ------------------------------------------
 Charge =  0 Multiplicity = 1

                         Standard orientation:
 ---------------------------------------------------------------------
 Center     Atomic      Atomic             Coordinates (Angstroms)
 Number     Number       Type             X           Y           Z
 ---------------------------------------------------------------------
      1          7           0       -3.564521    2.015770   -0.140229
      2          1           0       -4.311088    2.702006   -0.164756
      3          1           0       -2.605687    2.337276   -0.157473
      4          6           0       -3.876531    0.706628   -0.077985
      5          8           0       -5.032869    0.270464   -0.055104
      6          6           0       -2.725100   -0.230974   -0.037979
      7          6           0       -2.763102   -1.635025    0.004944
      8          7           0       -1.512393   -2.093513    0.027001
      9          1           0       -3.610646   -2.300093    0.016563
     10          7           0       -1.441998    0.154653   -0.037052
     11          7           0       -0.765713   -0.983872    0.002320
     12          6           0        0.702353   -1.048071    0.013903
     13          1           0        0.925255   -2.110676    0.092441
     14          8           0        1.218742   -0.527705   -1.191643
     15          6           0        1.907045    0.730050   -0.982606
     16          6           0        3.382229    0.552267   -1.334534
     17          8           0        3.999705   -0.524932   -0.621356
     18          1           0        3.709703   -1.352210   -1.044972
     19          1           0        3.922895    1.461336   -1.067710
     20          1           0        3.481873    0.388786   -2.412367
     21          1           0        1.475537    1.465596   -1.666762
     22          6           0        1.628867    1.113889    0.489999
     23          8           0        2.729660    1.817035    1.024509
     24          1           0        2.495440    2.090346    1.929118
     25          1           0        0.716257    1.717950    0.528963
     26          6           0        1.342220   -0.249151    1.173755
     27          1           0        0.650346   -0.158129    2.014611
     28          8           0        2.503778   -0.880827    1.656120
     29          1           0        3.202472   -0.763416    0.970879
 ---------------------------------------------------------------------

 SCF Done:  E(RB3LYP) =  -907.175882711     A.U. after   11 cycles

 The electronic state is 1-A.
 Alpha  occ. eigenvalues --  -19.17470 -19.16695 -19.15377 -19.14123 -19.12118
 Alpha  occ. eigenvalues --  -14.45989 -14.38780 -14.38385 -14.35619 -10.30352
 Alpha  occ. eigenvalues --  -10.29051 -10.24601 -10.24586 -10.24356 -10.23592
 Alpha  occ. eigenvalues --  -10.23408 -10.22934  -1.12558  -1.06924  -1.03656
 Alpha  occ. eigenvalues --   -1.03266  -1.02798  -1.01098  -0.91677  -0.89941
 Alpha  occ. eigenvalues --   -0.86137  -0.77717  -0.75711  -0.70075  -0.66667
 Alpha  occ. eigenvalues --   -0.63955  -0.61261  -0.59513  -0.58175  -0.55489
 Alpha  occ. eigenvalues --   -0.54069  -0.52874  -0.51535  -0.50588  -0.49734
 Alpha  occ. eigenvalues --   -0.48516  -0.47774  -0.46463  -0.46041  -0.44926
 Alpha  occ. eigenvalues --   -0.43523  -0.41836  -0.41450  -0.40834  -0.39531
 Alpha  occ. eigenvalues --   -0.38035  -0.35253  -0.34707  -0.33751  -0.32667
 Alpha  occ. eigenvalues --   -0.31506  -0.31432  -0.30551  -0.29074  -0.28380
 Alpha  occ. eigenvalues --   -0.27190  -0.27080  -0.26679  -0.25812
 Alpha virt. eigenvalues --   -0.04001  -0.00089   0.06403   0.07685   0.09731
 Alpha virt. eigenvalues --    0.10759   0.11275   0.12053   0.12945   0.13339
 Alpha virt. eigenvalues --    0.14617   0.15061   0.15737   0.16273   0.17982

 Mulliken charges:
               1
     1  N   -0.769203
     2  H    0.387572
     3  H    0.390473
     4  C    0.567358
     5  O   -0.593778
     6  C    0.259149
     7  C   -0.016783
     8  N   -0.295533
     9  H    0.192575
    10  N   -0.376446
    11  N   -0.049272
    12  C    0.247876
    13  H    0.187953
    14  O   -0.519795
    15  C    0.093691
    16  C   -0.049431
    17  O   -0.655976
    18  H    0.453500
    19  H    0.175860
    20  H    0.163914
    21  H    0.166476
    22  C    0.092153
    23  O   -0.662132
    24  H    0.448345
    25  H    0.163356
    26  C    0.082417
    27  H    0.168843
    28  O   -0.686241
    29  H    0.433081
 Sum of Mulliken charges =   0.00000

 Dipole moment (field-independent basis, Debye):
    X=              3.0186    Y=              4.7704    Z=             -1.0882  Tot=              5.7492
 Quadrupole moment (field-independent basis, Debye-Ang):
   XX=           -126.1096   YY=            -84.7349   ZZ=            -94.5364
   XY=             -9.3629   XZ=             -8.0424   YZ=              4.5456

 Normal termination of Gaussian 09 at Sun Nov 22 16:12:02 2020.
