 Gaussian 09, Revision D.01,

 -----------------
 #p b3lyp/6-31G(d)
 -----------------

 ------------------------------------------
 SET_328_BBB286_conf1_geo_000_090.n.pdb.xyz
 ------------------------------------------
 Symbolic Z-matrix:
 Charge =  0 Multiplicity = 1

 SCF Done:  E(RB3LYP) =  -994.604132085     A.U. after   16 cycles
 Normal termination of Gaussian 09 at Thu Nov 12 20:44:43 2020.
 Gaussian 09:  AM64L-G09RevD.01 24-Apr-2013

 ----------------------------------------------------------------------
 #p b3lyp/6-31G(d) scrf=(iefpcm,read,solvent=Water) geom=allcheck guess
 =read
 ----------------------------------------------------------------------

 Structure from the checkpoint file:  "SET_328_BBB286_conf1_geo_000_090.n.pdb.xyz.mst.n.w.chk"
 ------------------------------------------
 SET_328_BBB286_conf1_geo_000_090.n.pdb.xyz
 ------------------------------------------
 Charge =  0 Multiplicity = 1

                         Standard orientation:
 ---------------------------------------------------------------------
 Center     Atomic      Atomic             Coordinates (Angstroms)
 Number     Number       Type             X           Y           Z
 ---------------------------------------------------------------------
      1          6           0        3.335829    3.027350   -0.304948
      2          1           0        3.663093    3.395231    0.671185
      3          1           0        2.430565    3.549757   -0.605894
      4          1           0        4.123364    3.206843   -1.040033
      5          7           0        3.024796    1.612255   -0.241955
      6          6           0        3.889508    0.571240   -0.023352
      7          6           0        3.106149   -0.609664   -0.012075
      8          6           0        3.729032   -1.856606    0.185769
      9          6           0        5.101615   -1.879028    0.368155
     10          6           0        5.867249   -0.686495    0.356144
     11          6           0        5.280831    0.553178    0.162471
     12          1           0        5.870452    1.462960    0.155476
     13          1           0        6.940427   -0.748165    0.504165
     14          1           0        5.608504   -2.826282    0.522955
     15          1           0        3.139201   -2.764446    0.193192
     16          7           0        1.753344    1.184024   -0.362454
     17          6           0        1.772502   -0.142081   -0.232738
     18          6           0        0.534035   -0.952600   -0.317266
     19          8           0        0.563817   -2.182149   -0.148576
     20          7           0       -0.605105   -0.268163   -0.575909
     21          1           0       -0.509667    0.706015   -0.832547
     22          6           0       -1.881369   -0.949057   -0.813759
     23          6           0       -2.837310   -0.051075   -1.628299
     24          1           0       -2.261655    0.593317   -2.301494
     25          1           0       -3.424469   -0.712756   -2.273147
     26          1           0       -1.629868   -1.822194   -1.423524
     27          6           0       -2.550267   -1.495877    0.477553
     28          1           0       -1.775267   -1.776193    1.194841
     29          1           0       -3.053041   -2.426744    0.193359
     30          6           0       -3.613860   -0.593761    1.150225
     31          1           0       -4.192014   -1.242720    1.819561
     32          6           0       -3.076846    0.569955    2.001367
     33          1           0       -2.360563    0.191141    2.739550
     34          1           0       -3.929062    0.976246    2.560718
     35          6           0       -2.439737    1.684725    1.163318
     36          1           0       -1.433375    1.381858    0.868914
     37          1           0       -2.319219    2.586794    1.773160
     38          6           0       -3.282561    2.018255   -0.075770
     39          1           0       -2.706649    2.633842   -0.776969
     40          1           0       -4.145433    2.616128    0.235459
     41          6           0       -3.845292    0.787418   -0.808004
     42          1           0       -4.591129    1.155642   -1.522032
     43          7           0       -4.570197   -0.035237    0.175171
     44          6           0       -5.439683   -1.036110   -0.429042
     45          1           0       -4.918399   -1.806035   -1.019514
     46          1           0       -6.153799   -0.535730   -1.091742
     47          1           0       -6.001352   -1.546080    0.360515
 ---------------------------------------------------------------------

 SCF Done:  E(RB3LYP) =  -994.614587484     A.U. after   11 cycles

 The electronic state is 1-A.
 Alpha  occ. eigenvalues --  -19.11622 -14.42091 -14.37416 -14.35423 -14.31584
 Alpha  occ. eigenvalues --  -10.29145 -10.23191 -10.22618 -10.22374 -10.22228
 Alpha  occ. eigenvalues --  -10.20666 -10.20470 -10.20113 -10.19938 -10.19812
 Alpha  occ. eigenvalues --  -10.19695 -10.19550 -10.19240 -10.18064 -10.17455
 Alpha  occ. eigenvalues --  -10.17388 -10.17193 -10.17154  -1.06261  -1.02966
 Alpha  occ. eigenvalues --   -0.92948  -0.91608  -0.86049  -0.85722  -0.79028
 Alpha  occ. eigenvalues --   -0.77343  -0.76962  -0.76865  -0.75410  -0.71339
 Alpha  occ. eigenvalues --   -0.68628  -0.67448  -0.65012  -0.63195  -0.61170
 Alpha  occ. eigenvalues --   -0.60315  -0.59770  -0.58495  -0.57209  -0.53764
 Alpha  occ. eigenvalues --   -0.51459  -0.50427  -0.49516  -0.48586  -0.47461
 Alpha  occ. eigenvalues --   -0.47017  -0.46083  -0.45161  -0.44986  -0.44451
 Alpha  occ. eigenvalues --   -0.44407  -0.43318  -0.42990  -0.41669  -0.41322
 Alpha  occ. eigenvalues --   -0.41096  -0.40759  -0.40281  -0.39286  -0.38879
 Alpha  occ. eigenvalues --   -0.38496  -0.37158  -0.36112  -0.35655  -0.35047
 Alpha  occ. eigenvalues --   -0.34873  -0.34435  -0.33949  -0.32722  -0.31355
 Alpha  occ. eigenvalues --   -0.30678  -0.30189  -0.29711  -0.28855  -0.25839
 Alpha  occ. eigenvalues --   -0.25441  -0.24695  -0.22288  -0.20477
 Alpha virt. eigenvalues --   -0.04707   0.00059   0.01341   0.06518   0.09063
 Alpha virt. eigenvalues --    0.09977   0.10646   0.11365   0.11598   0.11897
 Alpha virt. eigenvalues --    0.12704   0.13356   0.14348   0.15070   0.15213

 Mulliken charges:
               1
     1  C   -0.325922
     2  H    0.192684
     3  H    0.199600
     4  H    0.192570
     5  N   -0.358510
     6  C    0.376877
     7  C    0.004840
     8  C   -0.209636
     9  C   -0.159697
    10  C   -0.164527
    11  C   -0.169775
    12  H    0.167099
    13  H    0.156221
    14  H    0.151334
    15  H    0.158274
    16  N   -0.400792
    17  C    0.219421
    18  C    0.615028
    19  O   -0.617560
    20  N   -0.636722
    21  H    0.369001
    22  C    0.072634
    23  C   -0.327895
    24  H    0.151067
    25  H    0.159048
    26  H    0.151925
    27  C   -0.289268
    28  H    0.152132
    29  H    0.145778
    30  C    0.022326
    31  H    0.130558
    32  C   -0.256502
    33  H    0.132334
    34  H    0.131451
    35  C   -0.285199
    36  H    0.138445
    37  H    0.136245
    38  C   -0.267545
    39  H    0.133538
    40  H    0.136333
    41  C    0.027524
    42  H    0.133153
    43  N   -0.413527
    44  C   -0.314225
    45  H    0.133666
    46  H    0.152942
    47  H    0.153256
 Sum of Mulliken charges =   0.00000

 Dipole moment (field-independent basis, Debye):
    X=              2.1920    Y=              5.0504    Z=             -1.4195  Tot=              5.6857
 Quadrupole moment (field-independent basis, Debye-Ang):
   XX=           -112.6453   YY=           -130.9236   ZZ=           -135.5715
   XY=             15.5342   XZ=              5.6645   YZ=             -2.5665

 Normal termination of Gaussian 09 at Thu Nov 12 20:51:22 2020.
