 Gaussian 09, Revision D.01,

 -----------------
 #p b3lyp/6-31G(d)
 -----------------

 ------------------------------------------
 SET_328_BBB315_conf1_geo_180_270.n.pdb.xyz
 ------------------------------------------
 Symbolic Z-matrix:
 Charge =  0 Multiplicity = 1

 SCF Done:  E(RB3LYP) =  -513.825783455     A.U. after   15 cycles
 Normal termination of Gaussian 09 at Thu Nov 12 20:41:13 2020.
 Gaussian 09:  AM64L-G09RevD.01 24-Apr-2013

 ----------------------------------------------------------------------
 #p b3lyp/6-31G(d) scrf=(iefpcm,read,solvent=Water) geom=allcheck guess
 =read
 ----------------------------------------------------------------------

 Structure from the checkpoint file:  "SET_328_BBB315_conf1_geo_180_270.n.pdb.xyz.mst.n.w.chk"
 ------------------------------------------
 SET_328_BBB315_conf1_geo_180_270.n.pdb.xyz
 ------------------------------------------
 Charge =  0 Multiplicity = 1

                         Standard orientation:
 ---------------------------------------------------------------------
 Center     Atomic      Atomic             Coordinates (Angstroms)
 Number     Number       Type             X           Y           Z
 ---------------------------------------------------------------------
      1          7           0        4.673360   -0.230974    0.469319
      2          1           0        4.979319    0.716001    0.248861
      3          1           0        4.926951   -0.790419   -0.348516
      4          6           0        3.215290   -0.236489    0.612104
      5          1           0        2.954082    0.375611    1.481470
      6          1           0        2.895612   -1.258516    0.839110
      7          6           0        2.425789    0.273465   -0.614861
      8          1           0        2.704586   -0.336278   -1.484502
      9          1           0        2.729060    1.303325   -0.831358
     10          6           0        0.941472    0.216598   -0.419875
     11          6           0        0.082306    1.277485   -0.209158
     12          1           0        0.244768    2.342130   -0.165580
     13          7           0       -1.170427    0.723399   -0.045723
     14          6           0       -2.391197    1.305658    0.185578
     15          1           0       -2.404374    2.385080    0.260226
     16          6           0       -3.496358    0.512413    0.308534
     17          1           0       -4.457915    0.976183    0.492360
     18          6           0       -3.382173   -0.901455    0.194874
     19          1           0       -4.268250   -1.518650    0.293803
     20          6           0       -2.158377   -1.483727   -0.039401
     21          1           0       -2.038922   -2.556343   -0.131044
     22          6           0       -1.011882   -0.667018   -0.164794
     23          7           0        0.266476   -0.980955   -0.391144
 ---------------------------------------------------------------------

 SCF Done:  E(RB3LYP) =  -513.841322685     A.U. after   11 cycles

 The electronic state is 1-A.
 Alpha  occ. eigenvalues --  -14.41459 -14.31270 -14.30578 -10.25049 -10.23858
 Alpha  occ. eigenvalues --  -10.21348 -10.20968 -10.20227 -10.20213 -10.20110
 Alpha  occ. eigenvalues --  -10.19896 -10.18213  -1.03022  -0.90541  -0.87211
 Alpha  occ. eigenvalues --   -0.83071  -0.77280  -0.74515  -0.71531  -0.64297
 Alpha  occ. eigenvalues --   -0.62188  -0.61369  -0.57163  -0.52690  -0.50143
 Alpha  occ. eigenvalues --   -0.48498  -0.47837  -0.46166  -0.45897  -0.44215
 Alpha  occ. eigenvalues --   -0.42693  -0.40460  -0.40005  -0.38195  -0.37111
 Alpha  occ. eigenvalues --   -0.36214  -0.34009  -0.33258  -0.32054  -0.28069
 Alpha  occ. eigenvalues --   -0.24805  -0.22816  -0.20940
 Alpha virt. eigenvalues --   -0.03134   0.00611   0.06296   0.09446   0.10151
 Alpha virt. eigenvalues --    0.12474   0.14005   0.14188   0.14486   0.15618
 Alpha virt. eigenvalues --    0.16225   0.17357   0.18004   0.18700   0.19851

 Mulliken charges:
               1
     1  N   -0.766588
     2  H    0.325332
     3  H    0.324693
     4  C   -0.137241
     5  H    0.141692
     6  H    0.146696
     7  C   -0.349111
     8  H    0.149706
     9  H    0.149620
    10  C    0.227630
    11  C   -0.046209
    12  H    0.183338
    13  N   -0.468703
    14  C    0.071859
    15  H    0.197638
    16  C   -0.203283
    17  H    0.169568
    18  C   -0.134599
    19  H    0.163925
    20  C   -0.200603
    21  H    0.165307
    22  C    0.519233
    23  N   -0.629902
 Sum of Mulliken charges =   0.00000

 Dipole moment (field-independent basis, Debye):
    X=             -3.0582    Y=              4.1733    Z=             -0.8637  Tot=              5.2455
 Quadrupole moment (field-independent basis, Debye-Ang):
   XX=            -60.9608   YY=            -63.3049   ZZ=            -74.7859
   XY=              4.1292   XZ=            -10.3316   YZ=              0.9252

 Normal termination of Gaussian 09 at Thu Nov 12 20:42:22 2020.
