 Gaussian 09, Revision D.01,

 -----------------
 #p b3lyp/6-31G(d)
 -----------------

 ------------------------------------------
 SET_328_BBB277_conf1_geo_210_060.n.pdb.xyz
 ------------------------------------------
 Symbolic Z-matrix:
 Charge =  0 Multiplicity = 1

 SCF Done:  E(RB3LYP) =  -899.141491530     A.U. after   15 cycles
 Normal termination of Gaussian 09 at Sun Nov 22 16:09:42 2020.
 Gaussian 09:  AM64L-G09RevD.01 24-Apr-2013

 ----------------------------------------------------------------------
 #p b3lyp/6-31G(d) scrf=(iefpcm,read,solvent=Water) geom=allcheck guess
 =read
 ----------------------------------------------------------------------

 Structure from the checkpoint file:  "SET_328_BBB277_conf1_geo_210_060.n.pdb.xyz.mst.n.w.chk"
 ------------------------------------------
 SET_328_BBB277_conf1_geo_210_060.n.pdb.xyz
 ------------------------------------------
 Charge =  0 Multiplicity = 1

                         Standard orientation:
 ---------------------------------------------------------------------
 Center     Atomic      Atomic             Coordinates (Angstroms)
 Number     Number       Type             X           Y           Z
 ---------------------------------------------------------------------
      1          6           0       -3.146908   -2.434528   -0.578565
      2          1           0       -3.717808   -2.422294   -1.512587
      3          1           0       -3.828506   -2.772043    0.208484
      4          1           0       -2.343361   -3.166835   -0.676217
      5          6           0       -2.590981   -1.075946   -0.268602
      6          6           0       -3.512628    0.043123   -0.123739
      7          7           0       -2.897271    1.268798    0.146525
      8          6           0       -1.550084    1.533401    0.292037
      9          8           0       -1.118108    2.657196    0.526583
     10          1           0       -3.511276    2.072693    0.246648
     11          8           0       -4.737337   -0.026828   -0.224102
     12          6           0       -1.269479   -0.833342   -0.124621
     13          1           0       -0.530451   -1.615534   -0.240870
     14          7           0       -0.741443    0.409746    0.155979
     15          6           0        0.708026    0.568613    0.271355
     16          8           0        1.316433    0.005361   -0.890629
     17          1           0        0.879167    1.644705    0.308421
     18          6           0        1.334061   -0.152919    1.465260
     19          1           0        0.828888   -1.107825    1.638527
     20          1           0        1.294127    0.440824    2.379423
     21          6           0        2.741618   -0.435082    0.963143
     22          9           0        3.289162   -1.575593    1.552239
     23          1           0        3.426930    0.394165    1.150412
     24          6           0        2.553186   -0.651597   -0.548580
     25          1           0        2.449660   -1.726823   -0.739781
     26          6           0        3.682498   -0.100848   -1.397350
     27          1           0        3.440687   -0.243137   -2.459765
     28          1           0        4.588537   -0.684866   -1.179003
     29          8           0        3.855441    1.273580   -1.084542
     30          1           0        4.664670    1.577784   -1.531864
 ---------------------------------------------------------------------

 SCF Done:  E(RB3LYP) =  -899.165780255     A.U. after   11 cycles

 The electronic state is 1-A.
 Alpha  occ. eigenvalues --  -24.68402 -19.16723 -19.14507 -19.13455 -19.12947
 Alpha  occ. eigenvalues --  -14.40460 -14.38655 -10.34108 -10.30540 -10.28895
 Alpha  occ. eigenvalues --  -10.26823 -10.25232 -10.24549 -10.23295 -10.20661
 Alpha  occ. eigenvalues --  -10.19910 -10.18648  -1.18979  -1.08138  -1.05965
 Alpha  occ. eigenvalues --   -1.04182  -1.01518  -0.97736  -0.92847  -0.81825
 Alpha  occ. eigenvalues --   -0.79788  -0.77381  -0.71330  -0.69172  -0.67648
 Alpha  occ. eigenvalues --   -0.64161  -0.61548  -0.59059  -0.57011  -0.54527
 Alpha  occ. eigenvalues --   -0.53608  -0.51226  -0.50853  -0.48917  -0.48592
 Alpha  occ. eigenvalues --   -0.47391  -0.46292  -0.45031  -0.44413  -0.43021
 Alpha  occ. eigenvalues --   -0.42640  -0.42373  -0.42167  -0.41920  -0.40182
 Alpha  occ. eigenvalues --   -0.39326  -0.38378  -0.38096  -0.37178  -0.35377
 Alpha  occ. eigenvalues --   -0.34296  -0.33486  -0.31719  -0.30029  -0.28662
 Alpha  occ. eigenvalues --   -0.27665  -0.27082  -0.26420  -0.23575
 Alpha virt. eigenvalues --   -0.03575   0.00912   0.07062   0.08771   0.10183
 Alpha virt. eigenvalues --    0.10326   0.11560   0.11680   0.12404   0.12608
 Alpha virt. eigenvalues --    0.13823   0.15681   0.16131   0.17125   0.17741

 Mulliken charges:
               1
     1  C   -0.521502
     2  H    0.172989
     3  H    0.173232
     4  H    0.169350
     5  C    0.033838
     6  C    0.602231
     7  N   -0.705406
     8  C    0.812070
     9  O   -0.569560
    10  H    0.395880
    11  O   -0.572151
    12  C    0.061091
    13  H    0.203163
    14  N   -0.499797
    15  C    0.260492
    16  O   -0.533853
    17  H    0.187583
    18  C   -0.357250
    19  H    0.180476
    20  H    0.190563
    21  C    0.183367
    22  F   -0.340493
    23  H    0.169366
    24  C    0.107294
    25  H    0.161425
    26  C   -0.043208
    27  H    0.145325
    28  H    0.146019
    29  O   -0.659452
    30  H    0.446917
 Sum of Mulliken charges =   0.00000

 Dipole moment (field-independent basis, Debye):
    X=              6.0438    Y=             -2.7336    Z=             -0.6758  Tot=              6.6676
 Quadrupole moment (field-independent basis, Debye-Ang):
   XX=           -102.9654   YY=           -101.1818   ZZ=            -94.5704
   XY=              3.1834   XZ=            -10.8218   YZ=              1.4571

 Normal termination of Gaussian 09 at Sun Nov 22 16:12:34 2020.
