 Gaussian 09, Revision D.01,

 -----------------
 #p b3lyp/6-31G(d)
 -----------------

 ------------------------------------------
 SET_328_BBB181_conf1_geo_180_075.n.pdb.xyz
 ------------------------------------------
 Symbolic Z-matrix:
 Charge =  0 Multiplicity = 1

 SCF Done:  E(RB3LYP) =  -233.661110656     A.U. after   12 cycles
 Normal termination of Gaussian 09 at Thu Nov 12 20:29:36 2020.
 Gaussian 09:  AM64L-G09RevD.01 24-Apr-2013

 ----------------------------------------------------------------------
 #p b3lyp/6-31G(d) scrf=(iefpcm,read,solvent=Water) geom=allcheck guess
 =read
 ----------------------------------------------------------------------

 Structure from the checkpoint file:  "SET_328_BBB181_conf1_geo_180_075.n.pdb.xyz.mst.n.w.chk"
 ------------------------------------------
 SET_328_BBB181_conf1_geo_180_075.n.pdb.xyz
 ------------------------------------------
 Charge =  0 Multiplicity = 1

                         Standard orientation:
 ---------------------------------------------------------------------
 Center     Atomic      Atomic             Coordinates (Angstroms)
 Number     Number       Type             X           Y           Z
 ---------------------------------------------------------------------
      1          6           0       -2.086807    0.607399   -0.163695
      2          1           0       -1.664389    1.520646    0.266406
      3          1           0       -3.106382    0.497009    0.219236
      4          1           0       -2.138831    0.729807   -1.248084
      5          6           0       -1.256020   -0.620137    0.196383
      6          1           0       -1.711827   -1.519585   -0.230589
      7          1           0       -1.217493   -0.750870    1.287880
      8          8           0        0.070851   -0.579701   -0.325100
      9          6           0        0.942593    0.290398    0.391885
     10          1           0        0.923829    0.027316    1.461142
     11          1           0        0.606633    1.333038    0.307585
     12          6           0        2.341899    0.138321   -0.175609
     13          1           0        2.361279    0.407308   -1.236221
     14          1           0        2.690622   -0.893441   -0.076283
     15          1           0        3.039765    0.790491    0.355946
 ---------------------------------------------------------------------

 SCF Done:  E(RB3LYP) =  -233.663478938     A.U. after    9 cycles

 The electronic state is 1-A.
 Alpha  occ. eigenvalues --  -19.14344 -10.22608 -10.22566 -10.17331 -10.17180
 Alpha  occ. eigenvalues --   -1.02338  -0.76771  -0.72442  -0.62977  -0.58822
 Alpha  occ. eigenvalues --   -0.48811  -0.46681  -0.46202  -0.41160  -0.38856
 Alpha  occ. eigenvalues --   -0.38623  -0.37069  -0.35550  -0.34083  -0.30867
 Alpha  occ. eigenvalues --   -0.25208
 Alpha virt. eigenvalues --    0.09575   0.11961   0.12698   0.14385   0.15226
 Alpha virt. eigenvalues --    0.16966   0.17622   0.18415   0.19334   0.19576
 Alpha virt. eigenvalues --    0.22225   0.24047   0.25053   0.26542   0.50380

 Mulliken charges:
               1
     1  C   -0.466017
     2  H    0.157344
     3  H    0.152897
     4  H    0.154142
     5  C   -0.023154
     6  H    0.147741
     7  H    0.131286
     8  O   -0.503476
     9  C   -0.016501
    10  H    0.129445
    11  H    0.134756
    12  C   -0.463658
    13  H    0.155155
    14  H    0.154410
    15  H    0.155630
 Sum of Mulliken charges =   0.00000

 Dipole moment (field-independent basis, Debye):
    X=             -0.4673    Y=              0.9404    Z=              1.2356  Tot=              1.6216
 Quadrupole moment (field-independent basis, Debye-Ang):
   XX=            -29.8994   YY=            -33.1512   ZZ=            -33.0284
   XY=              1.4010   XZ=              0.3475   YZ=             -0.4744

 Normal termination of Gaussian 09 at Thu Nov 12 20:29:52 2020.
