 Gaussian 09, Revision D.01,

 -----------------
 #p b3lyp/6-31G(d)
 -----------------

 ------------------------------------------
 SET_328_BBB304_conf1_geo_210_285.n.pdb.xyz
 ------------------------------------------
 Symbolic Z-matrix:
 Charge =  0 Multiplicity = 1

 SCF Done:  E(RB3LYP) =  -740.710264064     A.U. after   15 cycles
 Normal termination of Gaussian 09 at Sun Nov 22 16:08:36 2020.
 Gaussian 09:  AM64L-G09RevD.01 24-Apr-2013

 ----------------------------------------------------------------------
 #p b3lyp/6-31G(d) scrf=(iefpcm,read,solvent=Water) geom=allcheck guess
 =read
 ----------------------------------------------------------------------

 Structure from the checkpoint file:  "SET_328_BBB304_conf1_geo_210_285.n.pdb.xyz.mst.n.w.chk"
 ------------------------------------------
 SET_328_BBB304_conf1_geo_210_285.n.pdb.xyz
 ------------------------------------------
 Charge =  0 Multiplicity = 1

                         Standard orientation:
 ---------------------------------------------------------------------
 Center     Atomic      Atomic             Coordinates (Angstroms)
 Number     Number       Type             X           Y           Z
 ---------------------------------------------------------------------
      1          7           0       -4.518936   -1.154270    0.234555
      2          1           0       -5.289670   -0.519658    0.068693
      3          1           0       -4.717082   -2.053991    0.648267
      4          6           0       -3.254688   -0.702657    0.125011
      5          6           0       -2.160411   -1.564895    0.457517
      6          6           0       -0.910188   -1.057244    0.290492
      7          1           0       -0.008286   -1.622782    0.479931
      8          1           0       -2.314548   -2.576347    0.807743
      9          7           0       -3.078518    0.545988   -0.314118
     10          6           0       -1.822703    1.049876   -0.456862
     11          8           0       -1.593235    2.208628   -0.834473
     12          7           0       -0.723715    0.210725   -0.158146
     13          6           0        0.632591    0.776667   -0.340485
     14          8           0        1.564861   -0.277796   -0.494218
     15          1           0        0.580550    1.362704   -1.259009
     16          6           0        1.109248    1.622763    0.852477
     17          1           0        0.604166    1.285110    1.762059
     18          1           0        0.885240    2.680177    0.711237
     19          6           0        2.606747    1.306845    0.915724
     20          1           0        3.030635    1.445586    1.910687
     21          1           0        3.167426    1.931050    0.211338
     22          6           0        2.647913   -0.152563    0.465218
     23          1           0        2.447034   -0.831970    1.302233
     24          6           0        3.931491   -0.579554   -0.223797
     25          1           0        4.764130   -0.468957    0.476019
     26          1           0        4.115198    0.085457   -1.080381
     27          8           0        3.914646   -1.942718   -0.621071
     28          1           0        3.213210   -2.033807   -1.288526
 ---------------------------------------------------------------------

 SCF Done:  E(RB3LYP) =  -740.742384411     A.U. after   11 cycles

 The electronic state is 1-A.
 Alpha  occ. eigenvalues --  -19.16570 -19.14338 -19.10596 -14.39050 -14.35431
 Alpha  occ. eigenvalues --  -14.31449 -10.30689 -10.28052 -10.28019 -10.24803
 Alpha  occ. eigenvalues --  -10.23924 -10.22980 -10.19213 -10.19150 -10.19052
 Alpha  occ. eigenvalues --   -1.06467  -1.03870  -1.01351  -0.96757  -0.94479
 Alpha  occ. eigenvalues --   -0.87178  -0.79676  -0.78860  -0.75416  -0.68278
 Alpha  occ. eigenvalues --   -0.65911  -0.63909  -0.61032  -0.58731  -0.56448
 Alpha  occ. eigenvalues --   -0.53236  -0.52454  -0.51480  -0.49853  -0.48764
 Alpha  occ. eigenvalues --   -0.47617  -0.45443  -0.44308  -0.43331  -0.42242
 Alpha  occ. eigenvalues --   -0.41834  -0.40903  -0.40577  -0.38920  -0.37849
 Alpha  occ. eigenvalues --   -0.36488  -0.34933  -0.33950  -0.33228  -0.32719
 Alpha  occ. eigenvalues --   -0.28715  -0.27663  -0.26732  -0.25825  -0.24673
 Alpha  occ. eigenvalues --   -0.22802
 Alpha virt. eigenvalues --   -0.02621   0.01848   0.08351   0.09620   0.10291
 Alpha virt. eigenvalues --    0.10507   0.11675   0.12197   0.13532   0.14251
 Alpha virt. eigenvalues --    0.14969   0.15570   0.16425   0.17319   0.17865

 Mulliken charges:
               1
     1  N   -0.786809
     2  H    0.383761
     3  H    0.393112
     4  C    0.538329
     5  C   -0.242696
     6  C    0.114881
     7  H    0.206248
     8  H    0.171696
     9  N   -0.645998
    10  C    0.711581
    11  O   -0.625379
    12  N   -0.492562
    13  C    0.308710
    14  O   -0.550238
    15  H    0.170027
    16  C   -0.316960
    17  H    0.166678
    18  H    0.175612
    19  C   -0.310053
    20  H    0.171429
    21  H    0.162076
    22  C    0.133192
    23  H    0.144411
    24  C   -0.045907
    25  H    0.157933
    26  H    0.137463
    27  O   -0.664644
    28  H    0.434109
 Sum of Mulliken charges =   0.00000

 Dipole moment (field-independent basis, Debye):
    X=             -0.0686    Y=             -5.3745    Z=              3.9365  Tot=              6.6623
 Quadrupole moment (field-independent basis, Debye-Ang):
   XX=            -73.0544   YY=            -92.8554   ZZ=            -85.3825
   XY=             31.4875   XZ=             -6.6775   YZ=              2.6323

 Normal termination of Gaussian 09 at Sun Nov 22 16:10:41 2020.
