 Gaussian 09, Revision D.01,

 -----------------
 #p b3lyp/6-31G(d)
 -----------------

 ------------------------------------------
 SET_328_BBB315_conf1_geo_060_075.n.pdb.xyz
 ------------------------------------------
 Symbolic Z-matrix:
 Charge =  0 Multiplicity = 1

 SCF Done:  E(RB3LYP) =  -513.826130031     A.U. after   15 cycles
 Normal termination of Gaussian 09 at Thu Nov 12 20:38:12 2020.
 Gaussian 09:  AM64L-G09RevD.01 24-Apr-2013

 ----------------------------------------------------------------------
 #p b3lyp/6-31G(d) scrf=(iefpcm,read,solvent=Water) geom=allcheck guess
 =read
 ----------------------------------------------------------------------

 Structure from the checkpoint file:  "SET_328_BBB315_conf1_geo_060_075.n.pdb.xyz.mst.n.w.chk"
 ------------------------------------------
 SET_328_BBB315_conf1_geo_060_075.n.pdb.xyz
 ------------------------------------------
 Charge =  0 Multiplicity = 1

                         Standard orientation:
 ---------------------------------------------------------------------
 Center     Atomic      Atomic             Coordinates (Angstroms)
 Number     Number       Type             X           Y           Z
 ---------------------------------------------------------------------
      1          7           0       -3.406427    0.601920    1.331533
      2          1           0       -3.741313    1.459221    0.887257
      3          1           0       -2.447587    0.806895    1.614871
      4          6           0       -3.387241   -0.468114    0.330866
      5          1           0       -4.419253   -0.653986    0.013440
      6          1           0       -3.033276   -1.385693    0.815435
      7          6           0       -2.530421   -0.207977   -0.930423
      8          1           0       -2.881716    0.707757   -1.416856
      9          1           0       -2.689755   -1.031664   -1.636471
     10          6           0       -1.065756   -0.091772   -0.636997
     11          6           0       -0.307440    1.061565   -0.588880
     12          1           0       -0.549480    2.095554   -0.771923
     13          7           0        0.968819    0.662556   -0.246399
     14          6           0        2.123851    1.383415   -0.063863
     15          1           0        2.050268    2.453835   -0.204295
     16          6           0        3.272442    0.725777    0.277159
     17          1           0        4.182099    1.295669    0.420817
     18          6           0        3.269659   -0.687813    0.439663
     19          1           0        4.188868   -1.193736    0.709295
     20          6           0        2.113572   -1.407848    0.255337
     21          1           0        2.081839   -2.484804    0.371605
     22          6           0        0.923394   -0.733016   -0.096261
     23          7           0       -0.307115   -1.195097   -0.331245
 ---------------------------------------------------------------------

 SCF Done:  E(RB3LYP) =  -513.841129549     A.U. after   11 cycles

 The electronic state is 1-A.
 Alpha  occ. eigenvalues --  -14.41472 -14.31259 -14.30535 -10.25066 -10.23912
 Alpha  occ. eigenvalues --  -10.21306 -10.21016 -10.20290 -10.20218 -10.20120
 Alpha  occ. eigenvalues --  -10.19925 -10.18220  -1.03030  -0.90584  -0.87202
 Alpha  occ. eigenvalues --   -0.83096  -0.77151  -0.74493  -0.71688  -0.64509
 Alpha  occ. eigenvalues --   -0.62383  -0.61378  -0.56830  -0.52655  -0.50098
 Alpha  occ. eigenvalues --   -0.48714  -0.47520  -0.46149  -0.45817  -0.44317
 Alpha  occ. eigenvalues --   -0.42573  -0.41134  -0.40278  -0.38359  -0.37027
 Alpha  occ. eigenvalues --   -0.35560  -0.33926  -0.33658  -0.32090  -0.27979
 Alpha  occ. eigenvalues --   -0.24574  -0.22967  -0.21056
 Alpha virt. eigenvalues --   -0.03180   0.00577   0.06128   0.09840   0.10244
 Alpha virt. eigenvalues --    0.12686   0.13822   0.14249   0.14648   0.16015
 Alpha virt. eigenvalues --    0.16656   0.17071   0.17617   0.18458   0.19235

 Mulliken charges:
               1
     1  N   -0.766883
     2  H    0.323474
     3  H    0.320576
     4  C   -0.142909
     5  H    0.144789
     6  H    0.146144
     7  C   -0.345811
     8  H    0.150687
     9  H    0.149338
    10  C    0.230201
    11  C   -0.047774
    12  H    0.183305
    13  N   -0.469245
    14  C    0.071889
    15  H    0.197945
    16  C   -0.203212
    17  H    0.169874
    18  C   -0.133817
    19  H    0.164076
    20  C   -0.200151
    21  H    0.165611
    22  C    0.518959
    23  N   -0.627064
 Sum of Mulliken charges =   0.00000

 Dipole moment (field-independent basis, Debye):
    X=              3.3568    Y=              4.4895    Z=             -1.1648  Tot=              5.7254
 Quadrupole moment (field-independent basis, Debye-Ang):
   XX=            -63.8859   YY=            -63.8951   ZZ=            -76.2188
   XY=             -2.2792   XZ=              9.6089   YZ=             -2.2040

 Normal termination of Gaussian 09 at Thu Nov 12 20:39:24 2020.
