 Gaussian 16, Revision A.03,

 ----------------------------------------------------------------------
 #p b3lyp/6-31G(d) opt=(MaxStep=10,MaxCycles=1000) freq scf=(MaxCycle=2
 000,NoVarAcc,NoIncFock) scrf=(iefpcm,read,solvent=water)
 ----------------------------------------------------------------------

 -----------
 1.n.pdb.xyz
 -----------
 Symbolic Z-matrix:
 Charge =  0 Multiplicity = 1

 SCF Done:  E(RB3LYP) =  -1311.65227931     A.U. after   13 cycles
 SCF Done:  E(RB3LYP) =  -1311.65719769     A.U. after   10 cycles
 SCF Done:  E(RB3LYP) =  -1311.65815001     A.U. after   11 cycles
 SCF Done:  E(RB3LYP) =  -1311.66019473     A.U. after   10 cycles
 SCF Done:  E(RB3LYP) =  -1311.66037016     A.U. after   10 cycles
 SCF Done:  E(RB3LYP) =  -1311.66044139     A.U. after    9 cycles
 SCF Done:  E(RB3LYP) =  -1311.66046261     A.U. after    9 cycles
 SCF Done:  E(RB3LYP) =  -1311.66049124     A.U. after    9 cycles
 SCF Done:  E(RB3LYP) =  -1311.66050946     A.U. after    9 cycles
 SCF Done:  E(RB3LYP) =  -1311.66052152     A.U. after    9 cycles
 SCF Done:  E(RB3LYP) =  -1311.66100097     A.U. after   10 cycles
 SCF Done:  E(RB3LYP) =  -1311.66104973     A.U. after   10 cycles
 SCF Done:  E(RB3LYP) =  -1311.66118079     A.U. after    9 cycles
 SCF Done:  E(RB3LYP) =  -1311.66118599     A.U. after    9 cycles
 SCF Done:  E(RB3LYP) =  -1311.66119867     A.U. after    8 cycles
 SCF Done:  E(RB3LYP) =  -1311.66118830     A.U. after    8 cycles
 SCF Done:  E(RB3LYP) =  -1311.66118224     A.U. after    8 cycles
 Optimization completed.
    -- Stationary point found.
 Normal termination of Gaussian 16 at Tue Mar  1 07:48:09 2022.

 --------------------------------------------------------------------
 #P Geom=AllCheck Guess=TCheck SCRF=Check GenChk RB3LYP/6-31G(d) Freq
 --------------------------------------------------------------------

 Structure from the checkpoint file:  "1.n.pdb.xyz.mst.wat.chk"
 -----------
 1.n.pdb.xyz
 -----------
 Charge =  0 Multiplicity = 1

 SCF Done:  E(RB3LYP) =  -1311.66118224     A.U. after    1 cycles

  Exact polarizability: 253.868   9.319 196.081 -11.309   2.091 108.078
 Approx polarizability: 268.862   8.032 222.640 -13.963   3.740 123.824

                      1                      2                      3
                      A                      A                      A
 Frequencies --     15.4882                40.7370                45.4590
 Red. masses --      4.3231                 5.1099                11.8983
 Frc consts  --      0.0006                 0.0050                 0.0145
 IR Inten    --      1.8992                 0.0797                 0.7647

                      4                      5                      6
                      A                      A                      A
 Frequencies --     89.8883                94.7212               127.7548
 Red. masses --      4.1471                 2.8434                 5.2534
 Frc consts  --      0.0197                 0.0150                 0.0505
 IR Inten    --      2.0074                 4.7925                 3.9325

                      7                      8                      9
                      A                      A                      A
 Frequencies --    161.3305               181.1207               202.0240
 Red. masses --     15.3625                 6.2520                 6.3707
 Frc consts  --      0.2356                 0.1208                 0.1532
 IR Inten    --      0.8278                 0.5092                 2.4973

                     10                     11                     12
                      A                      A                      A
 Frequencies --    236.4214               268.8918               301.0818
 Red. masses --      4.8061                 5.4362                 3.0265
 Frc consts  --      0.1583                 0.2316                 0.1616
 IR Inten    --      4.0741                 2.9162                 1.3433

                     13                     14                     15
                      A                      A                      A
 Frequencies --    326.0968               338.1412               404.6985
 Red. masses --      2.3548                 8.9868                 6.6071
 Frc consts  --      0.1475                 0.6054                 0.6376
 IR Inten    --     11.2944                 4.7488                 0.5528

                     16                     17                     18
                      A                      A                      A
 Frequencies --    432.4851               452.9431               460.6755
 Red. masses --      5.7434                 8.3791                 5.5142
 Frc consts  --      0.6329                 1.0128                 0.6895
 IR Inten    --      0.8889                48.8340                 3.6793

                     19                     20                     21
                      A                      A                      A
 Frequencies --    507.6437               531.1179               567.1843
 Red. masses --      5.3832                 3.6946                 7.4779
 Frc consts  --      0.8173                 0.6140                 1.4174
 IR Inten    --      7.6576                 5.9158                 6.0319

                     22                     23                     24
                      A                      A                      A
 Frequencies --    569.7790               602.6089               651.1208
 Red. masses --      7.8562                 7.3392                 2.9983
 Frc consts  --      1.5027                 1.5703                 0.7490
 IR Inten    --      6.4428                19.8114                21.9934

                     25                     26                     27
                      A                      A                      A
 Frequencies --    657.2858               692.8998               740.8937
 Red. masses --      4.0520                 3.3318                 8.8104
 Frc consts  --      1.0314                 0.9425                 2.8494
 IR Inten    --     10.7927                 8.4879                14.8215

                     28                     29                     30
                      A                      A                      A
 Frequencies --    754.4605               809.7339               821.4999
 Red. masses --      6.5455                 3.1298                 2.0245
 Frc consts  --      2.1951                 1.2091                 0.8050
 IR Inten    --     11.0511               125.4660                44.2275

                     31                     32                     33
                      A                      A                      A
 Frequencies --    824.7650               843.2272               912.9291
 Red. masses --      2.0782                 1.7224                 1.4817
 Frc consts  --      0.8329                 0.7216                 0.7276
 IR Inten    --    132.7553                21.5532                12.1459

                     34                     35                     36
                      A                      A                      A
 Frequencies --    938.3716               974.8575               994.8773
 Red. masses --      2.4402                 3.4575                 1.3152
 Frc consts  --      1.2660                 1.9359                 0.7670
 IR Inten    --      8.5523               119.6147                 9.3924

                     37                     38                     39
                      A                      A                      A
 Frequencies --   1004.9593              1020.6982              1041.9318
 Red. masses --      2.3367                 8.2344                 1.8793
 Frc consts  --      1.3904                 5.0545                 1.2020
 IR Inten    --     10.2317                80.0719                 6.9442

                     40                     41                     42
                      A                      A                      A
 Frequencies --   1076.3458              1130.7859              1135.6964
 Red. masses --      1.9475                12.1316                 4.5317
 Frc consts  --      1.3293                 9.1397                 3.4438
 IR Inten    --     28.7323               389.9991               481.5429

                     43                     44                     45
                      A                      A                      A
 Frequencies --   1146.7918              1154.5007              1178.0089
 Red. masses --      4.9011                 4.4790                 2.0836
 Frc consts  --      3.7976                 3.5174                 1.7036
 IR Inten    --    112.7843               175.6825               155.5176

                     46                     47                     48
                      A                      A                      A
 Frequencies --   1203.3882              1206.2774              1251.2716
 Red. masses --      2.5463                 1.3694                 1.3782
 Frc consts  --      2.1726                 1.1741                 1.2714
 IR Inten    --     88.8713                26.1075                20.3349

                     49                     50                     51
                      A                      A                      A
 Frequencies --   1283.2694              1290.7415              1324.4115
 Red. masses --      1.3206                 1.4386                 1.6590
 Frc consts  --      1.2813                 1.4121                 1.7145
 IR Inten    --     81.1020               216.2294               111.7035

                     52                     53                     54
                      A                      A                      A
 Frequencies --   1339.4251              1349.5793              1375.3834
 Red. masses --      2.7857                 2.6956                 1.2716
 Frc consts  --      2.9446                 2.8927                 1.4172
 IR Inten    --    677.6360                40.2772                 2.7309

                     55                     56                     57
                      A                      A                      A
 Frequencies --   1399.3419              1412.1556              1418.5585
 Red. masses --      1.3396                 1.4000                 1.5261
 Frc consts  --      1.5455                 1.6449                 1.8093
 IR Inten    --     35.7457                20.4945               104.0880

                     58                     59                     60
                      A                      A                      A
 Frequencies --   1437.9425              1454.6739              1499.9328
 Red. masses --      2.9838                 3.2704                 1.1580
 Frc consts  --      3.6350                 4.0774                 1.5350
 IR Inten    --     39.6288               288.4170                46.5364

                     61                     62                     63
                      A                      A                      A
 Frequencies --   1510.7004              1520.6379              1525.0048
 Red. masses --      1.1740                 1.1841                 1.3224
 Frc consts  --      1.5786                 1.6132                 1.8120
 IR Inten    --     60.5783                78.2770               166.8850

                     64                     65                     66
                      A                      A                      A
 Frequencies --   1530.3300              1548.0916              1591.6517
 Red. masses --      1.0950                 2.3662                 4.5580
 Frc consts  --      1.5108                 3.3412                 6.8033
 IR Inten    --      9.7430               134.9174               294.3263

                     67                     68                     69
                      A                      A                      A
 Frequencies --   1658.4640              3028.0037              3041.3805
 Red. masses --      6.6974                 1.0694                 1.0701
 Frc consts  --     10.8535                 5.7772                 5.8317
 IR Inten    --    926.5144                96.9420                81.0897

                     70                     71                     72
                      A                      A                      A
 Frequencies --   3055.7632              3080.3784              3103.9577
 Red. masses --      1.0722                 1.0633                 1.0937
 Frc consts  --      5.8988                 5.9444                 6.2086
 IR Inten    --     95.8544                99.3042                27.4705

                     73                     74                     75
                      A                      A                      A
 Frequencies --   3114.1238              3129.0896              3193.6355
 Red. masses --      1.0970                 1.1045                 1.0914
 Frc consts  --      6.2678                 6.3714                 6.5582
 IR Inten    --     56.0491                70.6378                 6.6411

                     76                     77                     78
                      A                      A                      A
 Frequencies --   3246.6728              3272.5462              3506.2538
 Red. masses --      1.0899                 1.0931                 1.0750
 Frc consts  --      6.7686                 6.8976                 7.7863
 IR Inten    --      3.4111                 6.5677                 4.2312

 - Thermochemistry -
 -------------------
 Temperature   298.150 Kelvin.  Pressure   1.00000 Atm.
 Atom     1 has atomic number  9 and mass  18.99840

 Molecular mass:   265.05936 amu.
 Principal axes and moments of inertia in atomic units:
                           1         2         3
     Eigenvalues --  1843.629608814.69195**********
           X            1.00000   0.00138   0.00051
           Y           -0.00137   0.99998  -0.00686
           Z           -0.00052   0.00686   0.99998
 This molecule is an asymmetric top.
 Rotational symmetry number  1.
 Warning -- assumption of classical behavior for rotation
           may cause significant error
 Rotational temperatures (Kelvin)      0.04698     0.00983     0.00859
 Rotational constants (GHZ):           0.97891     0.20474     0.17908
 Zero-point vibrational energy     558464.5 (Joules/Mol)
                                  133.47622 (Kcal/Mol)
 Warning -- explicit consideration of  23 degrees of freedom as
           vibrations may cause significant error
 Vibrational temperatures:     22.28    58.61    65.41   129.33   136.28
          (Kelvin)            183.81   232.12   260.59   290.67   340.16
                              386.88   433.19   469.18   486.51   582.27
                              622.25   651.68   662.81   730.39   764.16
                              816.05   819.78   867.02   936.82   945.69
                              996.93  1065.98  1085.50  1165.03  1181.96
                             1186.65  1213.22  1313.50  1350.11  1402.60
                             1431.41  1445.91  1468.56  1499.11  1548.62
                             1626.95  1634.01  1649.98  1661.07  1694.89
                             1731.41  1735.56  1800.30  1846.34  1857.09
                             1905.53  1927.13  1941.74  1978.87  2013.34
                             2031.78  2040.99  2068.88  2092.95  2158.07
                             2173.56  2187.86  2194.14  2201.80  2227.36
                             2290.03  2386.16  4356.62  4375.87  4396.56
                             4431.98  4465.90  4480.53  4502.06  4594.93
                             4671.24  4708.46  5044.72

 Zero-point correction=                           0.212708 (Hartree/Particle)
 Thermal correction to Energy=                    0.227725
 Thermal correction to Enthalpy=                  0.228669
 Thermal correction to Gibbs Free Energy=         0.167968
 Sum of electronic and zero-point Energies=          -1311.448474
 Sum of electronic and thermal Energies=             -1311.433457
 Sum of electronic and thermal Enthalpies=           -1311.432513
 Sum of electronic and thermal Free Energies=        -1311.493215

                     E (Thermal)             CV                S
                      KCal/Mol        Cal/Mol-Kelvin    Cal/Mol-Kelvin
 Total                  142.900             56.223            127.757
 Electronic               0.000              0.000              0.000
 Translational            0.889              2.981             42.624
 Rotational               0.889              2.981             33.459
 Vibrational            141.122             50.261             51.674
 Vibration     1          0.593              1.986              7.142
 Vibration     2          0.594              1.981              5.223
 Vibration     3          0.595              1.979              5.006
 Vibration     4          0.602              1.956              3.662
 Vibration     5          0.603              1.953              3.560
 Vibration     6          0.611              1.925              2.980
 Vibration     7          0.622              1.890              2.534
 Vibration     8          0.630              1.865              2.317
 Vibration     9          0.639              1.837              2.115
 Vibration    10          0.655              1.785              1.830
 Vibration    11          0.673              1.730              1.603
 Vibration    12          0.693              1.672              1.411
 Vibration    13          0.710              1.623              1.279
 Vibration    14          0.718              1.599              1.221
 Vibration    15          0.770              1.460              0.946
 Vibration    16          0.793              1.399              0.851
 Vibration    17          0.811              1.354              0.787
 Vibration    18          0.818              1.337              0.764
 Vibration    19          0.863              1.233              0.639
 Vibration    20          0.886              1.181              0.585
 Vibration    21          0.923              1.102              0.510
 Vibration    22          0.926              1.097              0.505
 Vibration    23          0.961              1.026              0.445

                           ! Non-Optimized Parameters !
 Normal termination of Gaussian 16 at Tue Mar  1 08:12:42 2022.

 ------------------------------------------
 #p b3lyp/6-31G(d) geom=allcheck guess=read
 ------------------------------------------

 Structure from the checkpoint file:  "1.n.pdb.xyz.mst.wat.chk"
 -----------
 1.n.pdb.xyz
 -----------
 Charge =  0 Multiplicity = 1

 SCF Done:  E(RB3LYP) =  -1311.65332637     A.U. after   12 cycles
 Normal termination of Gaussian 16 at Tue Mar  1 08:14:49 2022.
 Gaussian 16:  ES64L-G16RevA.03 25-Dec-2016

 ----------------------------------------------------------------------
 #p b3lyp/6-31G(d) scrf=(iefpcm,read,solvent=water) geom=allcheck guess
 =read
 ----------------------------------------------------------------------

 Structure from the checkpoint file:  "1.n.pdb.xyz.mst.wat.chk"
 -----------
 1.n.pdb.xyz
 -----------
 Charge =  0 Multiplicity = 1

                         Standard orientation:
 ---------------------------------------------------------------------
 Center     Atomic      Atomic             Coordinates (Angstroms)
 Number     Number       Type             X           Y           Z
 ---------------------------------------------------------------------
      1          9           0        3.735496   -1.832480   -0.244700
      2          6           0        3.316272   -0.551827   -0.138712
      3          9           0        3.961899   -0.016543    0.927027
      4          9           0        3.782497    0.103547   -1.230201
      5          6           0        1.827709   -0.479243   -0.011184
      6          6           0        1.109469    0.713166    0.108770
      7         17           0        1.970993    2.263509    0.110326
      8          7           0       -0.193062    0.811002    0.226260
      9          6           0       -0.940808   -0.320902    0.234957
     10          6           0       -0.318957   -1.593031    0.130945
     11          6           0        1.051539   -1.650757    0.006108
     12          7           0       -2.287238   -0.188780    0.340972
     13          6           0       -3.159614   -1.369061    0.362823
     14          6           0       -4.621208   -0.939602    0.148640
     15          7           0       -4.761934    0.070565   -0.900284
     16          6           0       -4.037158    1.310384   -0.551507
     17          6           0       -2.949804    1.102224    0.521887
     18          1           0       -0.902608   -2.501445    0.154789
     19          1           0        1.547972   -2.609695   -0.075937
     20          1           0       -2.858350   -2.038206   -0.446395
     21          1           0       -3.050280   -1.922510    1.305985
     22          1           0       -5.039539   -0.537541    1.076587
     23          1           0       -5.209852   -1.823354   -0.110417
     24          1           0       -4.354665   -0.309823   -1.752761
     25          1           0       -3.591223    1.713746   -1.464034
     26          1           0       -4.740317    2.063248   -0.173215
     27          1           0       -2.198364    1.886175    0.473775
     28          1           0       -3.397699    1.131425    1.521943
 ---------------------------------------------------------------------

 SCF Done:  E(RB3LYP) =  -1311.65983974     A.U. after   11 cycles

 The electronic state is 1-A.
 Alpha  occ. eigenvalues -- -101.55418 -24.73160 -24.72394 -24.72380 -14.36954
 Alpha  occ. eigenvalues --  -14.34358 -14.31991 -10.43912 -10.29808 -10.27973
 Alpha  occ. eigenvalues --  -10.22181 -10.22076 -10.21718 -10.21604 -10.21225
 Alpha  occ. eigenvalues --  -10.20847 -10.20004  -9.47117  -7.23493  -7.22564
 Alpha  occ. eigenvalues --   -7.22496  -1.30428  -1.21896  -1.21293  -0.99648
 Alpha  occ. eigenvalues --   -0.94944  -0.89812  -0.85393  -0.83150  -0.77475
 Alpha  occ. eigenvalues --   -0.76494  -0.72573  -0.68054  -0.66409  -0.63453
 Alpha  occ. eigenvalues --   -0.62659  -0.58358  -0.58233  -0.57804  -0.56988
 Alpha  occ. eigenvalues --   -0.54134  -0.51457  -0.49893  -0.47756  -0.46179
 Alpha  occ. eigenvalues --   -0.46119  -0.45719  -0.44886  -0.44174  -0.43508
 Alpha  occ. eigenvalues --   -0.42287  -0.42046  -0.41637  -0.41446  -0.40086
 Alpha  occ. eigenvalues --   -0.40075  -0.39052  -0.38257  -0.38060  -0.36364
 Alpha  occ. eigenvalues --   -0.35034  -0.34184  -0.32269  -0.31034  -0.28414
 Alpha  occ. eigenvalues --   -0.28193  -0.23034  -0.21178
 Alpha virt. eigenvalues --   -0.03160  -0.01959   0.02396   0.08355   0.10897
 Alpha virt. eigenvalues --    0.10967   0.12294   0.12812   0.13511   0.13862
 Alpha virt. eigenvalues --    0.15190   0.16092   0.16634   0.17848   0.18968

 Mulliken charges:
               1
     1  F   -0.276198
     2  C    0.798615
     3  F   -0.276122
     4  F   -0.276286
     5  C   -0.032440
     6  C    0.082153
     7  Cl  -0.024348
     8  N   -0.549194
     9  C    0.553544
    10  C   -0.208985
    11  C   -0.130527
    12  N   -0.475860
    13  C   -0.132691
    14  C   -0.186108
    15  N   -0.589283
    16  C   -0.134664
    17  C   -0.172613
    18  H    0.173939
    19  H    0.182984
    20  H    0.170760
    21  H    0.163626
    22  H    0.165205
    23  H    0.167696
    24  H    0.340436
    25  H    0.158311
    26  H    0.146723
    27  H    0.194669
    28  H    0.166657
 Sum of Mulliken charges =  -0.00000

 Dipole moment (field-independent basis, Debye):
    X=             -5.6924    Y=             -4.2209    Z=              0.2373  Tot=              7.0905
 Quadrupole moment (field-independent basis, Debye-Ang):
   XX=           -115.1241   YY=            -98.0198   ZZ=           -102.1525
   XY=              2.8324   XZ=             -2.8303   YZ=              0.2199

 Normal termination of Gaussian 16 at Tue Mar  1 08:17:10 2022.
