 Gaussian 16, Revision A.03,

 ----------------------------------------------------------------------
 #p b3lyp/6-31G(d) opt=(MaxStep=10,MaxCycles=1000) freq scf=(MaxCycle=2
 000,NoVarAcc,NoIncFock) scrf=(iefpcm,read,solvent=water)
 ----------------------------------------------------------------------

 ------------
 10.n.pdb.xyz
 ------------
 Symbolic Z-matrix:
 Charge =  0 Multiplicity = 1

 SCF Done:  E(RB3LYP) =  -1579.32259494     A.U. after   13 cycles
 SCF Done:  E(RB3LYP) =  -1579.32577100     A.U. after   10 cycles
 SCF Done:  E(RB3LYP) =  -1579.32473642     A.U. after   11 cycles
 SCF Done:  E(RB3LYP) =  -1579.32685748     A.U. after   10 cycles
 SCF Done:  E(RB3LYP) =  -1579.32700024     A.U. after   10 cycles
 SCF Done:  E(RB3LYP) =  -1579.32788692     A.U. after   10 cycles
 SCF Done:  E(RB3LYP) =  -1579.32844300     A.U. after   12 cycles
 SCF Done:  E(RB3LYP) =  -1579.32884437     A.U. after   12 cycles
 SCF Done:  E(RB3LYP) =  -1579.32864129     A.U. after   10 cycles
 SCF Done:  E(RB3LYP) =  -1579.32901768     A.U. after   10 cycles
 SCF Done:  E(RB3LYP) =  -1579.32905991     A.U. after    8 cycles
 SCF Done:  E(RB3LYP) =  -1579.32910577     A.U. after    9 cycles
 SCF Done:  E(RB3LYP) =  -1579.32904428     A.U. after    9 cycles
 SCF Done:  E(RB3LYP) =  -1579.32908953     A.U. after    9 cycles
 SCF Done:  E(RB3LYP) =  -1579.32908787     A.U. after    7 cycles
 SCF Done:  E(RB3LYP) =  -1579.32909247     A.U. after    7 cycles
 SCF Done:  E(RB3LYP) =  -1579.32909433     A.U. after    6 cycles
 Optimization completed.
    -- Stationary point found.
 Normal termination of Gaussian 16 at Tue Mar  1 05:58:46 2022.

 --------------------------------------------------------------------
 #P Geom=AllCheck Guess=TCheck SCRF=Check GenChk RB3LYP/6-31G(d) Freq
 --------------------------------------------------------------------

 Structure from the checkpoint file:  "10.n.pdb.xyz.mst.wat.chk"
 ------------
 10.n.pdb.xyz
 ------------
 Charge =  0 Multiplicity = 1

 SCF Done:  E(RB3LYP) =  -1579.32909433     A.U. after    1 cycles

  Exact polarizability: 433.575 -24.432 319.337  -3.007  -5.401 199.559
 Approx polarizability: 453.148 -28.796 379.930  -6.409  -8.313 226.777

                      1                      2                      3
                      A                      A                      A
 Frequencies --     11.2837                14.8170                21.7507
 Red. masses --      8.8411                 7.6718                 3.9892
 Frc consts  --      0.0007                 0.0010                 0.0011
 IR Inten    --      0.2398                 0.5447                 1.5685

                      4                      5                      6
                      A                      A                      A
 Frequencies --     33.6931                44.1356                60.9209
 Red. masses --      4.8032                 5.6094                 5.1289
 Frc consts  --      0.0032                 0.0064                 0.0112
 IR Inten    --      0.0302                 0.5439                 0.6535

                      7                      8                      9
                      A                      A                      A
 Frequencies --     65.9751                90.0876               106.8825
 Red. masses --      4.9100                 2.4181                 3.2773
 Frc consts  --      0.0126                 0.0116                 0.0221
 IR Inten    --      1.4529                 4.3058                 1.8835

                     10                     11                     12
                      A                      A                      A
 Frequencies --    109.9097               125.4684               141.4290
 Red. masses --      6.5369                 3.7875                 5.7179
 Frc consts  --      0.0465                 0.0351                 0.0674
 IR Inten    --      1.0292                 0.1600                 0.4955

                     13                     14                     15
                      A                      A                      A
 Frequencies --    167.4669               193.7257               224.0860
 Red. masses --      4.2860                 5.2602                 2.9718
 Frc consts  --      0.0708                 0.1163                 0.0879
 IR Inten    --      1.4964                 0.0390                 6.2168

                     16                     17                     18
                      A                      A                      A
 Frequencies --    238.0494               251.4298               278.5846
 Red. masses --      3.3467                 5.7307                 3.9401
 Frc consts  --      0.1117                 0.2134                 0.1802
 IR Inten    --      4.8063                 2.5237                 4.8375

                     19                     20                     21
                      A                      A                      A
 Frequencies --    295.7357               310.5566               328.1927
 Red. masses --      6.3148                 6.0713                 3.2770
 Frc consts  --      0.3254                 0.3450                 0.2080
 IR Inten    --      0.3211                 0.5664                11.1205

                     22                     23                     24
                      A                      A                      A
 Frequencies --    348.6708               363.5696               365.9692
 Red. masses --      3.7461                 2.1091                 3.0073
 Frc consts  --      0.2683                 0.1643                 0.2373
 IR Inten    --      0.3071                 8.8343                13.1067

                     25                     26                     27
                      A                      A                      A
 Frequencies --    390.6568               396.2021               424.8403
 Red. masses --      1.4715                 3.9005                 2.9820
 Frc consts  --      0.1323                 0.3607                 0.3171
 IR Inten    --    170.7563                36.5768                 8.1469

                     28                     29                     30
                      A                      A                      A
 Frequencies --    426.4827               431.2461               449.4623
 Red. masses --      3.0927                 3.3389                 2.9264
 Frc consts  --      0.3314                 0.3659                 0.3483
 IR Inten    --      0.2452                 6.8722                22.6769

                     31                     32                     33
                      A                      A                      A
 Frequencies --    459.9069               492.8086               499.9113
 Red. masses --      3.6578                 4.6156                 3.0239
 Frc consts  --      0.4558                 0.6604                 0.4453
 IR Inten    --      1.9427                16.9850                 2.9069

                     34                     35                     36
                      A                      A                      A
 Frequencies --    509.3878               515.5008               549.9139
 Red. masses --      4.3552                 3.4467                 2.8274
 Frc consts  --      0.6658                 0.5397                 0.5038
 IR Inten    --     23.0106                35.4611                28.5207

                     37                     38                     39
                      A                      A                      A
 Frequencies --    579.3123               589.1259               609.4032
 Red. masses --      2.1016                 3.1847                 6.5510
 Frc consts  --      0.4156                 0.6512                 1.4334
 IR Inten    --      9.5622                 0.8756                49.8041

                     40                     41                     42
                      A                      A                      A
 Frequencies --    644.4156               644.7032               699.8113
 Red. masses --      7.1765                 7.1211                 3.4331
 Frc consts  --      1.7559                 1.7439                 0.9906
 IR Inten    --      0.4618                 0.4266                 5.0174

                     43                     44                     45
                      A                      A                      A
 Frequencies --    715.2404               729.6795               746.7119
 Red. masses --      3.5902                 4.0794                 5.7017
 Frc consts  --      1.0821                 1.2797                 1.8731
 IR Inten    --      0.0384                 3.5346                19.4783

                     46                     47                     48
                      A                      A                      A
 Frequencies --    761.4371               774.2725               810.8375
 Red. masses --      1.2897                 4.6666                 2.0064
 Frc consts  --      0.4406                 1.6483                 0.7772
 IR Inten    --     24.4434                 0.9949                 8.0123

                     49                     50                     51
                      A                      A                      A
 Frequencies --    819.5806               835.7269               841.3801
 Red. masses --      2.1235                 1.2907                 1.4224
 Frc consts  --      0.8404                 0.5312                 0.5933
 IR Inten    --     16.4301                21.1053                50.0639

                     52                     53                     54
                      A                      A                      A
 Frequencies --    846.5303               850.5821               853.7507
 Red. masses --      1.4679                 1.3492                 5.5115
 Frc consts  --      0.6198                 0.5751                 2.3669
 IR Inten    --     63.7146                12.6743                31.4629

                     55                     56                     57
                      A                      A                      A
 Frequencies --    884.5702               926.5501               955.3726
 Red. masses --      1.6150                 3.4879                 1.9268
 Frc consts  --      0.7446                 1.7642                 1.0362
 IR Inten    --      4.8228                19.9115                12.2904

                     58                     59                     60
                      A                      A                      A
 Frequencies --    972.8246               974.6659               985.6663
 Red. masses --      1.3168                 1.3856                 1.3492
 Frc consts  --      0.7343                 0.7756                 0.7723
 IR Inten    --      1.3166                 2.3359                 0.9743

                     61                     62                     63
                      A                      A                      A
 Frequencies --    986.5488               991.0723              1000.3856
 Red. masses --      2.9003                 1.3184                 4.3319
 Frc consts  --      1.6631                 0.7630                 2.5543
 IR Inten    --     48.5381                 1.5536                26.0666

                     64                     65                     66
                      A                      A                      A
 Frequencies --   1010.8360              1025.9105              1032.7302
 Red. masses --      2.6294                 3.7960                 2.4267
 Frc consts  --      1.5829                 2.3540                 1.5249
 IR Inten    --    120.3779                33.0568                 3.2653

                     67                     68                     69
                      A                      A                      A
 Frequencies --   1039.9576              1058.1242              1069.3162
 Red. masses --      1.6140                 2.4348                 2.2718
 Frc consts  --      1.0285                 1.6062                 1.5305
 IR Inten    --     12.3594                65.9252                 7.0280

                     70                     71                     72
                      A                      A                      A
 Frequencies --   1092.8582              1096.2621              1105.9795
 Red. masses --      2.5831                 2.4061                 2.8781
 Frc consts  --      1.8177                 1.7037                 2.0742
 IR Inten    --      7.2285                16.2395                66.6731

                     73                     74                     75
                      A                      A                      A
 Frequencies --   1111.5392              1129.7264              1132.0126
 Red. masses --      2.3946                 1.2846                 1.5725
 Frc consts  --      1.7432                 0.9660                 1.1872
 IR Inten    --     28.0543                17.9300                47.6730

                     76                     77                     78
                      A                      A                      A
 Frequencies --   1141.3491              1161.3465              1171.8267
 Red. masses --      1.9849                 2.2881                 2.6325
 Frc consts  --      1.5234                 1.8182                 2.1298
 IR Inten    --     60.8453                17.1234                51.8652

                     79                     80                     81
                      A                      A                      A
 Frequencies --   1187.6694              1200.9643              1212.2887
 Red. masses --      1.1898                 1.1272                 1.1845
 Frc consts  --      0.9888                 0.9579                 1.0257
 IR Inten    --    122.5764                15.0113                 9.8149

                     82                     83                     84
                      A                      A                      A
 Frequencies --   1218.6274              1233.6434              1241.4649
 Red. masses --      1.3755                 2.0576                 3.4823
 Frc consts  --      1.2035                 1.8450                 3.1622
 IR Inten    --     32.2859               142.3734                40.0088

                     85                     86                     87
                      A                      A                      A
 Frequencies --   1272.4814              1281.0246              1294.2434
 Red. masses --      3.8388                 1.4337                 1.4193
 Frc consts  --      3.6623                 1.3862                 1.4007
 IR Inten    --    167.4888                50.7034                 9.7621

                     88                     89                     90
                      A                      A                      A
 Frequencies --   1306.7021              1322.0124              1330.3882
 Red. masses --      1.4974                 1.3751                 1.2987
 Frc consts  --      1.5064                 1.4160                 1.3543
 IR Inten    --     36.6933                39.3111                 1.0965

                     91                     92                     93
                      A                      A                      A
 Frequencies --   1330.8385              1333.5472              1341.3465
 Red. masses --      1.2962                 1.1417                 4.2955
 Frc consts  --      1.3526                 1.1963                 4.5535
 IR Inten    --      7.4801                 3.0913                14.7962

                     94                     95                     96
                      A                      A                      A
 Frequencies --   1345.8783              1359.1648              1367.0732
 Red. masses --      1.4648                 1.4588                 9.5522
 Frc consts  --      1.5633                 1.5878                10.5181
 IR Inten    --     64.7590                23.0166                10.0208

                     97                     98                     99
                      A                      A                      A
 Frequencies --   1383.3352              1396.1699              1403.3275
 Red. masses --      1.4377                 1.4921                 1.6297
 Frc consts  --      1.6210                 1.7136                 1.8909
 IR Inten    --    101.3797                24.5031                67.5650

                    100                    101                    102
                      A                      A                      A
 Frequencies --   1407.1533              1428.9025              1436.7798
 Red. masses --      1.6280                 1.5860                 2.7048
 Frc consts  --      1.8993                 1.9079                 3.2898
 IR Inten    --     51.5514                22.5200                 6.9228

                    103                    104                    105
                      A                      A                      A
 Frequencies --   1448.3271              1454.4871              1474.8613
 Red. masses --      1.5027                 3.2398                 1.0996
 Frc consts  --      1.8572                 4.0381                 1.4093
 IR Inten    --      5.5940                38.3706                16.6478

                    106                    107                    108
                      A                      A                      A
 Frequencies --   1493.2682              1496.6036              1504.3973
 Red. masses --      1.0905                 1.0879                 1.1029
 Frc consts  --      1.4327                 1.4357                 1.4706
 IR Inten    --      3.7300                 0.5261                 3.9769

                    109                    110                    111
                      A                      A                      A
 Frequencies --   1517.2061              1524.2882              1530.4454
 Red. masses --      1.0894                 1.0962                 1.1714
 Frc consts  --      1.4776                 1.5006                 1.6166
 IR Inten    --      3.5591                10.0656                33.1498

                    112                    113                    114
                      A                      A                      A
 Frequencies --   1532.2190              1554.1480              1627.9590
 Red. masses --      1.9996                 2.6173                 7.0769
 Frc consts  --      2.7658                 3.7246                11.0505
 IR Inten    --     62.2530                49.0452                 2.7275

                    115                    116                    117
                      A                      A                      A
 Frequencies --   1642.1980              1647.7810              1655.7031
 Red. masses --      7.2147                 5.8673                 5.9120
 Frc consts  --     11.4636                 9.3861                 9.5487
 IR Inten    --     72.5005                 7.9702               237.7084

                    118                    119                    120
                      A                      A                      A
 Frequencies --   1743.3945              2930.8589              2968.7325
 Red. masses --     11.2771                 1.0725                 1.0724
 Frc consts  --     20.1948                 5.4278                 5.5687
 IR Inten    --    334.7724               126.4890                80.5991

                    121                    122                    123
                      A                      A                      A
 Frequencies --   2974.9428              3048.0643              3056.9380
 Red. masses --      1.0714                 1.0608                 1.0654
 Frc consts  --      5.5867                 5.8070                 5.8661
 IR Inten    --    185.6649                28.5376                55.1951

                    124                    125                    126
                      A                      A                      A
 Frequencies --   3068.5361              3077.0712              3077.3700
 Red. masses --      1.0868                 1.0637                 1.0849
 Frc consts  --      6.0292                 5.9337                 6.0534
 IR Inten    --     34.3785                16.3219                19.9492

                    127                    128                    129
                      A                      A                      A
 Frequencies --   3078.7999              3096.9091              3108.0186
 Red. masses --      1.0732                 1.0868                 1.0970
 Frc consts  --      5.9939                 6.1410                 6.2433
 IR Inten    --     40.5606                86.9337                27.8184

                    130                    131                    132
                      A                      A                      A
 Frequencies --   3114.7648              3123.5899              3124.6158
 Red. masses --      1.0948                 1.1043                 1.0983
 Frc consts  --      6.2581                 6.3481                 6.3178
 IR Inten    --     89.0513                54.9369                77.6858

                    133                    134                    135
                      A                      A                      A
 Frequencies --   3211.3483              3231.5772              3234.4840
 Red. masses --      1.0885                 1.0886                 1.0881
 Frc consts  --      6.6137                 6.6978                 6.7070
 IR Inten    --     17.9728                 2.5053                 4.6033

                    136                    137                    138
                      A                      A                      A
 Frequencies --   3236.7826              3236.8155              3244.5546
 Red. masses --      1.0937                 1.0883                 1.0935
 Frc consts  --      6.7513                 6.7176                 6.7823
 IR Inten    --     11.3369                 5.2467                 9.5127

                    139                    140                    141
                      A                      A                      A
 Frequencies --   3246.7521              3249.9280              3710.2682
 Red. masses --      1.0950                 1.0948                 1.0664
 Frc consts  --      6.8009                 6.8130                 8.6497
 IR Inten    --     12.5938                 5.9651                70.9241

 - Thermochemistry -
 -------------------
 Temperature   298.150 Kelvin.  Pressure   1.00000 Atm.
 Atom     1 has atomic number  8 and mass  15.99491

 Molecular mass:   375.14014 amu.
 Principal axes and moments of inertia in atomic units:
                           1         2         3
     Eigenvalues --  2218.30777********************
           X            1.00000   0.00250  -0.00080
           Y           -0.00249   0.99994   0.01026
           Z            0.00082  -0.01026   0.99995
 This molecule is an asymmetric top.
 Rotational symmetry number  1.
 Warning -- assumption of classical behavior for rotation
           may cause significant error
 Rotational temperatures (Kelvin)      0.03905     0.00188     0.00183
 Rotational constants (GHZ):           0.81357     0.03925     0.03815
 Zero-point vibrational energy    1059189.6 (Joules/Mol)
                                  253.15240 (Kcal/Mol)
 Warning -- explicit consideration of  39 degrees of freedom as
           vibrations may cause significant error
 Vibrational temperatures:     16.23    21.32    31.29    48.48    63.50
          (Kelvin)             87.65    94.92   129.62   153.78   158.14
                              180.52   203.48   240.95   278.73   322.41
                              342.50   361.75   400.82   425.50   446.82
                              472.20   501.66   523.10   526.55   562.07
                              570.05   611.25   613.61   620.47   646.68
                              661.70   709.04   719.26   732.90   741.69
                              791.20   833.50   847.62   876.80   927.17
                              927.58  1006.87  1029.07  1049.85  1074.35
                             1095.54  1114.01  1166.61  1179.19  1202.42
                             1210.56  1217.97  1223.80  1228.36  1272.70
                             1333.10  1374.57  1399.68  1402.33  1418.15
                             1419.42  1425.93  1439.33  1454.37  1476.06
                             1485.87  1496.27  1522.40  1538.51  1572.38
                             1577.28  1591.26  1599.26  1625.42  1628.71
                             1642.15  1670.92  1686.00  1708.79  1727.92
                             1744.21  1753.33  1774.94  1786.19  1830.82
                             1843.11  1862.13  1880.05  1902.08  1914.13
                             1914.78  1918.68  1929.90  1936.42  1955.54
                             1966.91  1990.31  2008.78  2019.08  2024.58
                             2055.87  2067.21  2083.82  2092.68  2122.00
                             2148.48  2153.28  2164.49  2182.92  2193.11
                             2201.97  2204.52  2236.07  2342.27  2362.76
                             2370.79  2382.19  2508.36  4216.85  4271.34
                             4280.28  4385.48  4398.25  4414.94  4427.22
                             4427.65  4429.71  4455.76  4471.75  4481.45
                             4494.15  4495.63  4620.41  4649.52  4653.70
                             4657.01  4657.06  4668.19  4671.35  4675.92
                             5338.25

 Zero-point correction=                           0.403424 (Hartree/Particle)
 Thermal correction to Energy=                    0.427282
 Thermal correction to Enthalpy=                  0.428227
 Thermal correction to Gibbs Free Energy=         0.345791
 Sum of electronic and zero-point Energies=          -1578.925670
 Sum of electronic and thermal Energies=             -1578.901812
 Sum of electronic and thermal Enthalpies=           -1578.900868
 Sum of electronic and thermal Free Energies=        -1578.983304

                     E (Thermal)             CV                S
                      KCal/Mol        Cal/Mol-Kelvin    Cal/Mol-Kelvin
 Total                  268.124             92.236            173.501
 Electronic               0.000              0.000              0.000
 Translational            0.889              2.981             43.659
 Rotational               0.889              2.981             36.821
 Vibrational            266.346             86.274             93.021
 Vibration     1          0.593              1.987              7.771
 Vibration     2          0.593              1.986              7.230
 Vibration     3          0.593              1.985              6.468
 Vibration     4          0.594              1.983              5.599
 Vibration     5          0.595              1.980              5.064
 Vibration     6          0.597              1.973              4.427
 Vibration     7          0.597              1.971              4.270
 Vibration     8          0.602              1.956              3.658
 Vibration     9          0.606              1.944              3.325
 Vibration    10          0.606              1.941              3.271
 Vibration    11          0.610              1.928              3.014
 Vibration    12          0.615              1.912              2.784
 Vibration    13          0.624              1.882              2.464
 Vibration    14          0.635              1.849              2.192
 Vibration    15          0.649              1.804              1.926
 Vibration    16          0.656              1.782              1.817
 Vibration    17          0.663              1.760              1.721
 Vibration    18          0.679              1.713              1.542
 Vibration    19          0.690              1.682              1.441
 Vibration    20          0.699              1.654              1.359
 Vibration    21          0.711              1.619              1.269
 Vibration    22          0.726              1.578              1.172
 Vibration    23          0.737              1.547              1.107
 Vibration    24          0.739              1.542              1.097
 Vibration    25          0.758              1.490              0.998
 Vibration    26          0.763              1.478              0.977
 Vibration    27          0.787              1.416              0.876
 Vibration    28          0.788              1.413              0.870
 Vibration    29          0.792              1.402              0.855
 Vibration    30          0.808              1.362              0.797
 Vibration    31          0.818              1.339              0.766
 Vibration    32          0.849              1.266              0.676
 Vibration    33          0.855              1.250              0.658
 Vibration    34          0.865              1.229              0.635
 Vibration    35          0.871              1.216              0.620
 Vibration    36          0.905              1.140              0.544
 Vibration    37          0.936              1.076              0.487
 Vibration    38          0.946              1.055              0.469
 Vibration    39          0.968              1.012              0.434

 Optimization completed.
    -- Stationary point found.
 Normal termination of Gaussian 16 at Tue Mar  1 07:18:40 2022.

 ------------------------------------------
 #p b3lyp/6-31G(d) geom=allcheck guess=read
 ------------------------------------------

 Structure from the checkpoint file:  "10.n.pdb.xyz.mst.wat.chk"
 ------------
 10.n.pdb.xyz
 ------------
 Charge =  0 Multiplicity = 1

 SCF Done:  E(RB3LYP) =  -1579.31403266     A.U. after   11 cycles
 Normal termination of Gaussian 16 at Tue Mar  1 07:22:59 2022.
 Gaussian 16:  ES64L-G16RevA.03 25-Dec-2016

 ----------------------------------------------------------------------
 #p b3lyp/6-31G(d) scrf=(iefpcm,read,solvent=water) geom=allcheck guess
 =read
 ----------------------------------------------------------------------

 Structure from the checkpoint file:  "10.n.pdb.xyz.mst.wat.chk"
 ------------
 10.n.pdb.xyz
 ------------
 Charge =  0 Multiplicity = 1

                         Standard orientation:
 ---------------------------------------------------------------------
 Center     Atomic      Atomic             Coordinates (Angstroms)
 Number     Number       Type             X           Y           Z
 ---------------------------------------------------------------------
      1          8           0       -3.270034   -2.136336    0.989650
      2          6           0       -3.222893   -0.884467    0.294096
      3          6           0       -2.638281   -1.218303   -1.095411
      4          6           0       -1.179336   -1.668551   -1.015832
      5          7           0       -0.346645   -0.653037   -0.361453
      6          6           0        1.068100   -1.034659   -0.396862
      7          6           0        2.013612    0.133981   -0.111808
      8          6           0        3.477550   -0.292494   -0.191496
      9          6           0        4.455448    0.833078    0.097899
     10          8           0        4.060641    1.960983    0.379768
     11          6           0        5.916833    0.539230    0.033152
     12          6           0        6.823057    1.581766    0.285502
     13          6           0        8.194050    1.362139    0.239775
     14          6           0        8.646293    0.080750   -0.061788
     15          9           0        9.975288   -0.142353   -0.107844
     16          6           0        7.782065   -0.977493   -0.317536
     17          6           0        6.411399   -0.738876   -0.268621
     18          6           0       -0.818563   -0.429484    1.009880
     19          6           0       -2.259471    0.083277    1.018244
     20          6           0       -4.629754   -0.288631    0.156921
     21          6           0       -4.831639    0.990389   -0.382877
     22          6           0       -6.111772    1.523020   -0.527306
     23          6           0       -7.207285    0.762492   -0.124238
     24         17           0       -8.831922    1.426540   -0.300010
     25          6           0       -7.043424   -0.510157    0.412562
     26          6           0       -5.753362   -1.025603    0.546264
     27          1           0       -3.473661   -1.956118    1.924380
     28          1           0       -2.709744   -0.332227   -1.734697
     29          1           0       -3.244405   -2.004746   -1.554397
     30          1           0       -0.791840   -1.827193   -2.027166
     31          1           0       -1.120486   -2.637043   -0.488760
     32          1           0        1.275089   -1.421194   -1.401237
     33          1           0        1.274058   -1.863726    0.307018
     34          1           0        1.818749    0.934561   -0.832388
     35          1           0        1.817603    0.552698    0.879704
     36          1           0        3.680675   -1.109988    0.512501
     37          1           0        3.709814   -0.702719   -1.182854
     38          1           0        6.428159    2.563893    0.516694
     39          1           0        8.907542    2.154709    0.430970
     40          1           0        8.181923   -1.957681   -0.547363
     41          1           0        5.725426   -1.553599   -0.465936
     42          1           0       -0.172678    0.309123    1.490908
     43          1           0       -0.749781   -1.357779    1.603607
     44          1           0       -2.595579    0.230002    2.051574
     45          1           0       -2.292265    1.061954    0.529969
     46          1           0       -3.984306    1.588954   -0.700206
     47          1           0       -6.255530    2.512310   -0.945113
     48          1           0       -7.905452   -1.090438    0.719626
     49          1           0       -5.612336   -2.018101    0.955635
 ---------------------------------------------------------------------

 SCF Done:  E(RB3LYP) =  -1579.32721695     A.U. after   11 cycles

 The electronic state is 1-A.
 Alpha  occ. eigenvalues -- -101.55301 -24.71670 -19.14623 -19.14323 -14.32126
 Alpha  occ. eigenvalues --  -10.28562 -10.28137 -10.25305 -10.24844 -10.21094
 Alpha  occ. eigenvalues --  -10.20726 -10.20429 -10.20420 -10.20382 -10.20360
 Alpha  occ. eigenvalues --  -10.20284 -10.20273 -10.20111 -10.20086 -10.20055
 Alpha  occ. eigenvalues --  -10.19932 -10.19573 -10.19188 -10.18198 -10.18070
 Alpha  occ. eigenvalues --  -10.18020  -9.46931  -7.23308  -7.22369  -7.22337
 Alpha  occ. eigenvalues --   -1.22857  -1.04112  -1.02183  -0.92098  -0.89142
 Alpha  occ. eigenvalues --   -0.87283  -0.84104  -0.80208  -0.78528  -0.76572
 Alpha  occ. eigenvalues --   -0.76567  -0.75673  -0.75236  -0.73430  -0.69599
 Alpha  occ. eigenvalues --   -0.64767  -0.63403  -0.63278  -0.62271  -0.61898
 Alpha  occ. eigenvalues --   -0.59351  -0.57959  -0.55517  -0.55253  -0.54701
 Alpha  occ. eigenvalues --   -0.52548  -0.50310  -0.49273  -0.48687  -0.47922
 Alpha  occ. eigenvalues --   -0.47796  -0.46988  -0.46834  -0.45747  -0.45597
 Alpha  occ. eigenvalues --   -0.45206  -0.44756  -0.43979  -0.43693  -0.43388
 Alpha  occ. eigenvalues --   -0.43114  -0.42018  -0.41045  -0.40326  -0.39812
 Alpha  occ. eigenvalues --   -0.39539  -0.38594  -0.38427  -0.38002  -0.36505
 Alpha  occ. eigenvalues --   -0.36407  -0.35960  -0.35615  -0.35299  -0.34992
 Alpha  occ. eigenvalues --   -0.34807  -0.33647  -0.33484  -0.32941  -0.31944
 Alpha  occ. eigenvalues --   -0.31641  -0.30657  -0.27546  -0.26949  -0.26219
 Alpha  occ. eigenvalues --   -0.25720  -0.25499  -0.24179  -0.21549
 Alpha virt. eigenvalues --   -0.05728  -0.01726  -0.01422  -0.01075   0.02688
 Alpha virt. eigenvalues --    0.04086   0.08204   0.08842   0.09749   0.10987
 Alpha virt. eigenvalues --    0.11686   0.12129   0.13037   0.13406   0.13858

 Mulliken charges:
               1
     1  O   -0.687958
     2  C    0.239405
     3  C   -0.271391
     4  C   -0.120357
     5  N   -0.437147
     6  C   -0.108930
     7  C   -0.263292
     8  C   -0.382140
     9  C    0.424999
    10  O   -0.527698
    11  C    0.081314
    12  C   -0.168191
    13  C   -0.207535
    14  C    0.392035
    15  F   -0.300114
    16  C   -0.211404
    17  C   -0.188331
    18  C   -0.125577
    19  C   -0.298642
    20  C    0.136162
    21  C   -0.197163
    22  C   -0.148633
    23  C   -0.073014
    24  Cl  -0.052764
    25  C   -0.142400
    26  C   -0.195503
    27  H    0.432973
    28  H    0.146953
    29  H    0.146140
    30  H    0.145965
    31  H    0.123382
    32  H    0.142369
    33  H    0.115826
    34  H    0.146602
    35  H    0.152462
    36  H    0.183854
    37  H    0.182911
    38  H    0.166728
    39  H    0.173308
    40  H    0.174093
    41  H    0.173780
    42  H    0.152093
    43  H    0.120028
    44  H    0.147283
    45  H    0.149969
    46  H    0.162568
    47  H    0.171066
    48  H    0.169710
    49  H    0.154206
 Sum of Mulliken charges =  -0.00000

 Dipole moment (field-independent basis, Debye):
    X=              3.0835    Y=             -3.3462    Z=              0.9281  Tot=              4.6440
 Quadrupole moment (field-independent basis, Debye-Ang):
   XX=           -184.6395   YY=           -159.3169   ZZ=           -153.3354
   XY=             -4.6507   XZ=             -9.8514   YZ=             -2.3203

 Normal termination of Gaussian 16 at Tue Mar  1 07:28:40 2022.
