 Gaussian 16, Revision A.03,

 ----------------------------------------------------------------------
 #p b3lyp/6-31G(d) opt=(MaxStep=10,MaxCycles=1000) freq scf=(MaxCycle=2
 000,NoVarAcc,NoIncFock) scrf=(iefpcm,read,solvent=water)
 ----------------------------------------------------------------------

 -------------
 100.n.pdb.xyz
 -------------
 Symbolic Z-matrix:
 Charge =  0 Multiplicity = 1

 SCF Done:  E(RB3LYP) =  -271.568702463     A.U. after   11 cycles
 SCF Done:  E(RB3LYP) =  -271.569174104     A.U. after    9 cycles
 SCF Done:  E(RB3LYP) =  -271.569175027     A.U. after    8 cycles
 SCF Done:  E(RB3LYP) =  -271.569171990     A.U. after    7 cycles
 Optimization completed.
    -- Stationary point found.
 Normal termination of Gaussian 16 at Tue Mar  1 04:08:16 2022.

 --------------------------------------------------------------------
 #P Geom=AllCheck Guess=TCheck SCRF=Check GenChk RB3LYP/6-31G(d) Freq
 --------------------------------------------------------------------

 Structure from the checkpoint file:  "100.n.pdb.xyz.mst.wat.chk"
 -------------
 100.n.pdb.xyz
 -------------
 Charge =  0 Multiplicity = 1

 SCF Done:  E(RB3LYP) =  -271.569171990     A.U. after    1 cycles

  Exact polarizability: 123.024   1.073 111.307  -0.000   0.000  38.963
 Approx polarizability: 138.178   1.319 131.036  -0.000   0.000  45.133

                      1                      2                      3
                      A                      A                      A
 Frequencies --     61.2938               215.0117               333.9440
 Red. masses --      1.0504                 2.8882                 2.5025
 Frc consts  --      0.0023                 0.0787                 0.1644
 IR Inten    --      0.2163                 2.2481                 0.7581

                      4                      5                      6
                      A                      A                      A
 Frequencies --    416.8154               481.5115               525.0836
 Red. masses --      2.9895                 2.7500                 5.0523
 Frc consts  --      0.3060                 0.3757                 0.8207
 IR Inten    --      0.0413                 8.1177                 0.4850

                      7                      8                      9
                      A                      A                      A
 Frequencies --    634.8757               713.5412               753.2749
 Red. masses --      6.3655                 2.5214                 1.3315
 Frc consts  --      1.5117                 0.7564                 0.4451
 IR Inten    --      0.3071                15.9882                61.9509

                     10                     11                     12
                      A                      A                      A
 Frequencies --    801.0476               868.4442               918.0614
 Red. masses --      4.5478                 1.2497                 1.3015
 Frc consts  --      1.7194                 0.5553                 0.6463
 IR Inten    --      1.3510                 0.0003                 0.7940

                     13                     14                     15
                      A                      A                      A
 Frequencies --    978.3371              1004.7524              1009.5435
 Red. masses --      1.3488                 1.2458                 2.0037
 Frc consts  --      0.7606                 0.7410                 1.2032
 IR Inten    --      0.0045                 0.0293                 2.3448

                     16                     17                     18
                      A                      A                      A
 Frequencies --   1020.4244              1055.2645              1076.8685
 Red. masses --      2.8626                 2.2300                 1.5264
 Frc consts  --      1.7562                 1.4631                 1.0429
 IR Inten    --      1.5627                 6.8164                 8.2679

                     19                     20                     21
                      A                      A                      A
 Frequencies --   1116.2812              1184.4445              1204.2904
 Red. masses --      1.4331                 1.0926                 1.1304
 Frc consts  --      1.0521                 0.9031                 0.9659
 IR Inten    --     11.9728                 0.1596                 0.6782

                     22                     23                     24
                      A                      A                      A
 Frequencies --   1239.5619              1348.9598              1360.9817
 Red. masses --      3.0060                 2.9566                 1.7954
 Frc consts  --      2.7213                 3.1699                 1.9593
 IR Inten    --      1.8329                 1.2165                 0.1055

                     25                     26                     27
                      A                      A                      A
 Frequencies --   1438.9118              1486.2919              1506.6447
 Red. masses --      1.2464                 1.7065                 1.0442
 Frc consts  --      1.5205                 2.2211                 1.3966
 IR Inten    --      0.1733                 0.2768                 7.8354

                     28                     29                     30
                      A                      A                      A
 Frequencies --   1521.3901              1544.2545              1642.6267
 Red. masses --      1.2375                 2.2707                 5.3430
 Frc consts  --      1.6876                 3.1904                 8.4939
 IR Inten    --     17.4987                21.5600                 0.6867

                     31                     32                     33
                      A                      A                      A
 Frequencies --   1663.6398              3059.3341              3112.2114
 Red. masses --      5.7159                 1.0373                 1.1012
 Frc consts  --      9.3209                 5.7200                 6.2841
 IR Inten    --     11.9556                46.3238                31.4389

                     34                     35                     36
                      A                      A                      A
 Frequencies --   3141.7373              3189.1805              3190.9268
 Red. masses --      1.1016                 1.0869                 1.0871
 Frc consts  --      6.4066                 6.5131                 6.5214
 IR Inten    --     34.7453                18.9488                12.5467

                     37                     38                     39
                      A                      A                      A
 Frequencies --   3202.4770              3209.7784              3221.7537
 Red. masses --      1.0896                 1.0939                 1.0978
 Frc consts  --      6.5843                 6.6399                 6.7136
 IR Inten    --     17.5487                80.1858                30.9035

 - Thermochemistry -
 -------------------
 Temperature   298.150 Kelvin.  Pressure   1.00000 Atm.
 Atom     1 has atomic number  6 and mass  12.00000

 Molecular mass:    92.06260 amu.
 Principal axes and moments of inertia in atomic units:
                           1         2         3
     Eigenvalues --   326.22598 718.948801034.02453
           X            1.00000   0.00018  -0.00000
           Y           -0.00018   1.00000  -0.00000
           Z            0.00000   0.00000   1.00000
 This molecule is an asymmetric top.
 Rotational symmetry number  1.
 Rotational temperatures (Kelvin)      0.26550     0.12047     0.08376
 Rotational constants (GHZ):           5.53218     2.51025     1.74536
 Zero-point vibrational energy     337668.6 (Joules/Mol)
                                   80.70472 (Kcal/Mol)
 Warning -- explicit consideration of   6 degrees of freedom as
           vibrations may cause significant error
 Vibrational temperatures:     88.19   309.35   480.47   599.70   692.79
          (Kelvin)            755.48   913.44  1026.63  1083.79  1152.53
                             1249.50  1320.89  1407.61  1445.61  1452.51
                             1468.16  1518.29  1549.37  1606.08  1704.15
                             1732.71  1783.45  1940.85  1958.15  2070.27
                             2138.44  2167.73  2188.94  2221.84  2363.37
                             2393.61  4401.70  4477.78  4520.26  4588.52
                             4591.03  4607.65  4618.16  4635.39

 Zero-point correction=                           0.128611 (Hartree/Particle)
 Thermal correction to Energy=                    0.134764
 Thermal correction to Enthalpy=                  0.135708
 Thermal correction to Gibbs Free Energy=         0.098384
 Sum of electronic and zero-point Energies=           -271.440561
 Sum of electronic and thermal Energies=              -271.434408
 Sum of electronic and thermal Enthalpies=            -271.433464
 Sum of electronic and thermal Free Energies=         -271.470788

                     E (Thermal)             CV                S
                      KCal/Mol        Cal/Mol-Kelvin    Cal/Mol-Kelvin
 Total                   84.566             23.135             78.556
 Electronic               0.000              0.000              0.000
 Translational            0.889              2.981             39.471
 Rotational               0.889              2.981             26.986
 Vibrational             82.788             17.173             12.098
 Vibration     1          0.597              1.973              4.415
 Vibration     2          0.645              1.818              2.001
 Vibration     3          0.715              1.608              1.241
 Vibration     4          0.780              1.434              0.903
 Vibration     5          0.838              1.291              0.706
 Vibration     6          0.880              1.194              0.598

 Optimization completed.
    -- Stationary point found.
 Normal termination of Gaussian 16 at Tue Mar  1 04:11:46 2022.

 ------------------------------------------
 #p b3lyp/6-31G(d) geom=allcheck guess=read
 ------------------------------------------

 Structure from the checkpoint file:  "100.n.pdb.xyz.mst.wat.chk"
 -------------
 100.n.pdb.xyz
 -------------
 Charge =  0 Multiplicity = 1

 SCF Done:  E(RB3LYP) =  -271.566586912     A.U. after   10 cycles
 Normal termination of Gaussian 16 at Tue Mar  1 04:12:08 2022.
 Gaussian 16:  ES64L-G16RevA.03 25-Dec-2016

 ----------------------------------------------------------------------
 #p b3lyp/6-31G(d) scrf=(iefpcm,read,solvent=water) geom=allcheck guess
 =read
 ----------------------------------------------------------------------

 Structure from the checkpoint file:  "100.n.pdb.xyz.mst.wat.chk"
 -------------
 100.n.pdb.xyz
 -------------
 Charge =  0 Multiplicity = 1

                         Standard orientation:
 ---------------------------------------------------------------------
 Center     Atomic      Atomic             Coordinates (Angstroms)
 Number     Number       Type             X           Y           Z
 ---------------------------------------------------------------------
      1          6           0       -2.424033    0.002271    0.000022
      2          6           0       -0.914644    0.001782   -0.000026
      3          6           0       -0.194408    1.202422   -0.000022
      4          6           0        1.202870    1.205179    0.000007
      5          6           0        1.905225   -0.000280    0.000020
      6          6           0        1.199044   -1.206667    0.000006
      7          6           0       -0.195654   -1.203069   -0.000023
      8          1           0       -2.816309    1.022439   -0.000664
      9          1           0       -2.823707   -0.512601    0.880488
     10          1           0       -2.823788   -0.513883   -0.879667
     11          1           0       -0.736616    2.143826   -0.000050
     12          1           0        1.739847    2.148635   -0.000007
     13          1           0        2.990441   -0.001859    0.000040
     14          1           0        1.735485   -2.150486    0.000001
     15          1           0       -0.735751   -2.145901   -0.000040
 ---------------------------------------------------------------------

 SCF Done:  E(RB3LYP) =  -271.569065151     A.U. after   10 cycles

 The electronic state is 1-A.
 Alpha  occ. eigenvalues --  -10.19694 -10.18880 -10.18848 -10.18685 -10.18574
 Alpha  occ. eigenvalues --  -10.18562 -10.17889  -0.85293  -0.76807  -0.74150
 Alpha  occ. eigenvalues --   -0.68136  -0.60184  -0.58043  -0.50764  -0.45470
 Alpha  occ. eigenvalues --   -0.45196  -0.41631  -0.41606  -0.40458  -0.38062
 Alpha  occ. eigenvalues --   -0.35366  -0.33845  -0.33561  -0.25063  -0.24144
 Alpha virt. eigenvalues --   -0.00239   0.00224   0.09841   0.12619   0.14109
 Alpha virt. eigenvalues --    0.14570   0.16374   0.17778   0.19255   0.20204
 Alpha virt. eigenvalues --    0.20339   0.24021   0.30907   0.31914   0.32437

 Mulliken charges:
               1
     1  C   -0.533413
     2  C    0.162868
     3  C   -0.203971
     4  C   -0.147822
     5  C   -0.155849
     6  C   -0.149830
     7  C   -0.195122
     8  H    0.163537
     9  H    0.169270
    10  H    0.169236
    11  H    0.140826
    12  H    0.146698
    13  H    0.145975
    14  H    0.146956
    15  H    0.140641
 Sum of Mulliken charges =  -0.00000

 Dipole moment (field-independent basis, Debye):
    X=             -0.4623    Y=             -0.0626    Z=              0.0002  Tot=              0.4666
 Quadrupole moment (field-independent basis, Debye-Ang):
   XX=            -36.8091   YY=            -37.4479   ZZ=            -44.9034
   XY=              0.1009   XZ=             -0.0004   YZ=             -0.0000

 Normal termination of Gaussian 16 at Tue Mar  1 04:12:35 2022.
