 Gaussian 16, Revision A.03,

 ----------------------------------------------------------------------
 #p b3lyp/6-31G(d) opt=(MaxStep=10,MaxCycles=1000) freq scf=(MaxCycle=2
 000,NoVarAcc,NoIncFock) scrf=(iefpcm,read,solvent=water)
 ----------------------------------------------------------------------

 -------------
 101.n.pdb.xyz
 -------------
 Symbolic Z-matrix:
 Charge =  0 Multiplicity = 1

 SCF Done:  E(RB3LYP) =  -232.251790935     A.U. after    8 cycles
 SCF Done:  E(RB3LYP) =  -232.251835602     A.U. after    7 cycles
 Optimization completed.
    -- Stationary point found.

 1\1\GINC-PIRINEUS11\FOpt\RB3LYP\6-31G(d)\C6H6\UBATOR01\01-Mar-2022\0\\
 #p b3lyp/6-31G(d) opt=(MaxStep=10,MaxCycles=1000) freq scf=(MaxCycle=2
 000,NoVarAcc,NoIncFock) scrf=(iefpcm,read,solvent=water)\\101.n.pdb.xy
 z\\0,1\C,1.3943792745,-0.0922631905,-0.0064720194\C,0.6171370938,-1.25
 32130917,-0.0356228483\C,-0.7771769846,-1.1608923623,-0.0294635569\C,-
 1.3943792745,0.0922631905,0.0064720194\C,-0.6171370938,1.2532130917,0.
 0356228483\C,0.7771769846,1.1608923623,0.0294635569\H,2.4774239863,-0.
 163866575,-0.0115394728\H,1.0964058042,-2.2267064401,-0.0634708953\H,-

 Normal termination of Gaussian 16 at Tue Mar  1 05:31:19 2022.

 --------------------------------------------------------------------
 #P Geom=AllCheck Guess=TCheck SCRF=Check GenChk RB3LYP/6-31G(d) Freq
 --------------------------------------------------------------------

 Structure from the checkpoint file:  "101.n.pdb.xyz.mst.wat.chk"
 -------------
 101.n.pdb.xyz
 -------------
 Charge =  0 Multiplicity = 1

 SCF Done:  E(RB3LYP) =  -232.251835602     A.U. after    1 cycles

  Exact polarizability:  99.354   0.030  99.233  -0.198   1.992  26.021
 Approx polarizability: 117.810   0.005 117.744  -0.240   2.348  31.326

                      1                      2                      3
                     AU                     AU                     AG
 Frequencies --    416.6791               418.0993               620.4033
 Red. masses --      2.9382                 2.9306                 6.1119
 Frc consts  --      0.3006                 0.3018                 1.3860
 IR Inten    --      0.0008                 0.0017                 0.0001

                      4                      5                      6
                     ?A                     AU                     AU
 Frequencies --    620.9099               697.3966               720.6638
 Red. masses --      6.1050                 1.0849                 3.8386
 Frc consts  --      1.3867                 0.3109                 1.1746
 IR Inten    --      0.0000               113.5047                 0.0033

                      7                      8                      9
                     ?B                     ?B                     ?B
 Frequencies --    871.4785               873.8119               982.4088
 Red. masses --      1.2472                 1.2473                 1.3603
 Frc consts  --      0.5581                 0.5611                 0.7735
 IR Inten    --      0.0003                 0.0006                 0.0027

                     10                     11                     12
                     ?B                     ?A                     ?A
 Frequencies --    984.2383              1017.7638              1018.2745
 Red. masses --      1.3615                 6.0888                 6.4714
 Frc consts  --      0.7771                 3.7160                 3.9535
 IR Inten    --      0.0029                 0.0000                 0.0002

                     13                     14                     15
                     ?B                     AU                     ?A
 Frequencies --   1022.5010              1067.0081              1068.6590
 Red. masses --      1.2270                 1.7023                 1.7118
 Frc consts  --      0.7558                 1.1419                 1.1518
 IR Inten    --      0.0009                 9.9903                 9.2656

                     16                     17                     18
                     ?A                     ?A                     ?A
 Frequencies --   1181.9726              1201.0586              1205.5577
 Red. masses --      1.0741                 1.1336                 1.1362
 Frc consts  --      0.8841                 0.9635                 0.9730
 IR Inten    --      0.0120                 0.0000                 0.0003

                     19                     20                     21
                     ?A                     ?A                     ?A
 Frequencies --   1354.4842              1387.4894              1527.7206
 Red. masses --      6.9324                 1.2475                 2.0129
 Frc consts  --      7.4935                 1.4149                 2.7679
 IR Inten    --      0.0004                 0.0001                10.4632

                     22                     23                     24
                     ?A                     ?A                     ?A
 Frequencies --   1529.8106              1652.0048              1653.1597
 Red. masses --      1.9990                 5.3894                 5.3144
 Frc consts  --      2.7564                 8.6658                 8.5572
 IR Inten    --      9.9534                 0.0001                 0.0005

                     25                     26                     27
                     ?C                     ?C                     ?C
 Frequencies --   3194.3529              3201.8510              3203.2459
 Red. masses --      1.0841                 1.0876                 1.0876
 Frc consts  --      6.5177                 6.5693                 6.5750
 IR Inten    --      0.0867                 0.0381                 0.4015

                     28                     29                     30
                     ?C                     ?C                     ?C
 Frequencies --   3215.7914              3217.3669              3227.5328
 Red. masses --      1.0950                 1.0950                 1.0988
 Frc consts  --      6.6719                 6.6782                 6.7441
 IR Inten    --     85.5006                86.2009                 0.6789

 - Thermochemistry -
 -------------------
 Temperature   298.150 Kelvin.  Pressure   1.00000 Atm.
 Atom     1 has atomic number  6 and mass  12.00000

 Molecular mass:    78.04695 amu.
 Principal axes and moments of inertia in atomic units:
                           1         2         3
     Eigenvalues --   317.57782 317.60364 635.18145
           X            0.98917   0.14677   0.00277
           Y           -0.14664   0.98882  -0.02715
           Z           -0.00672   0.02645   0.99963
 This molecule is an asymmetric top.
 Rotational symmetry number  1.
 Rotational temperatures (Kelvin)      0.27273     0.27271     0.13636
 Rotational constants (GHZ):           5.68283     5.68237     2.84130
 Zero-point vibrational energy     265294.0 (Joules/Mol)
                                   63.40679 (Kcal/Mol)
 Warning -- explicit consideration of   3 degrees of freedom as
           vibrations may cause significant error
 Vibrational temperatures:    599.51   601.55   892.62   893.35  1003.40
          (Kelvin)           1036.87  1253.86  1257.22  1413.47  1416.10
                             1464.34  1465.07  1471.15  1535.19  1537.56
                             1700.59  1728.06  1734.53  1948.80  1996.29
                             2198.05  2201.06  2376.87  2378.53  4595.96
                             4606.75  4608.76  4626.81  4629.07  4643.70

 Zero-point correction=                           0.101045 (Hartree/Particle)
 Thermal correction to Energy=                    0.105419
 Thermal correction to Enthalpy=                  0.106363
 Thermal correction to Gibbs Free Energy=         0.073588
 Sum of electronic and zero-point Energies=           -232.150790
 Sum of electronic and thermal Energies=              -232.146417
 Sum of electronic and thermal Enthalpies=            -232.145473
 Sum of electronic and thermal Free Energies=         -232.178247

                     E (Thermal)             CV                S
                      KCal/Mol        Cal/Mol-Kelvin    Cal/Mol-Kelvin
 Total                   66.151             17.062             68.980
 Electronic               0.000              0.000              0.000
 Translational            0.889              2.981             38.979
 Rotational               0.889              2.981             25.663
 Vibrational             64.374             11.100              4.337
 Vibration     1          0.780              1.434              0.903
 Vibration     2          0.781              1.431              0.898
 Vibration     3          0.980              0.989              0.416

 Optimization completed.
    -- Stationary point found.

 1\1\GINC-PIRINEUS11\Freq\RB3LYP\6-31G(d)\C6H6\UBATOR01\01-Mar-2022\0\\
 #P Geom=AllCheck Guess=TCheck SCRF=Check GenChk RB3LYP/6-31G(d) Freq\\
 101.n.pdb.xyz\\0,1\C,1.3943792745,-0.0922631905,-0.0064720194\C,0.6171
 370938,-1.2532130917,-0.0356228483\C,-0.7771769846,-1.1608923623,-0.02
 94635569\C,-1.3943792745,0.0922631905,0.0064720194\C,-0.6171370938,1.2
 532130917,0.0356228483\C,0.7771769846,1.1608923623,0.0294635569\H,2.47
 74239863,-0.163866575,-0.0115394728\H,1.0964058042,-2.2267064401,-0.06
 34708953\H,-1.3808186372,-2.0626730546,-0.0525785398\H,-2.4774239863,0

 Normal termination of Gaussian 16 at Tue Mar  1 05:32:37 2022.

 ------------------------------------------
 #p b3lyp/6-31G(d) geom=allcheck guess=read
 ------------------------------------------

 Structure from the checkpoint file:  "101.n.pdb.xyz.mst.wat.chk"
 -------------
 101.n.pdb.xyz
 -------------
 Charge =  0 Multiplicity = 1

 SCF Done:  E(RB3LYP) =  -232.248638423     A.U. after    8 cycles
 Normal termination of Gaussian 16 at Tue Mar  1 05:32:43 2022.
 Gaussian 16:  ES64L-G16RevA.03 25-Dec-2016

 ----------------------------------------------------------------------
 #p b3lyp/6-31G(d) scrf=(iefpcm,read,solvent=water) geom=allcheck guess
 =read
 ----------------------------------------------------------------------

 Structure from the checkpoint file:  "101.n.pdb.xyz.mst.wat.chk"
 -------------
 101.n.pdb.xyz
 -------------
 Charge =  0 Multiplicity = 1

                         Standard orientation:
 ---------------------------------------------------------------------
 Center     Atomic      Atomic             Coordinates (Angstroms)
 Number     Number       Type             X           Y           Z
 ---------------------------------------------------------------------
      1          6           0        1.394379   -0.092263   -0.006472
      2          6           0        0.617137   -1.253213   -0.035623
      3          6           0       -0.777177   -1.160892   -0.029464
      4          6           0       -1.394379    0.092263    0.006472
      5          6           0       -0.617137    1.253213    0.035623
      6          6           0        0.777177    1.160892    0.029464
      7          1           0        2.477424   -0.163867   -0.011539
      8          1           0        1.096406   -2.226706   -0.063471
      9          1           0       -1.380819   -2.062673   -0.052579
     10          1           0       -2.477424    0.163867    0.011539
     11          1           0       -1.096406    2.226706    0.063471
     12          1           0        1.380819    2.062673    0.052579
 ---------------------------------------------------------------------

 SCF Done:  E(RB3LYP) =  -232.251722552     A.U. after    8 cycles

 The electronic state is 1-AG.
 Alpha  occ. eigenvalues --  -10.19095 -10.19069 -10.19068 -10.19014 -10.19013
 Alpha  occ. eigenvalues --  -10.18987  -0.85082  -0.74358  -0.74356  -0.60029
 Alpha  occ. eigenvalues --   -0.60027  -0.52067  -0.46062  -0.44133  -0.41935
 Alpha  occ. eigenvalues --   -0.41932  -0.36598  -0.34217  -0.34214  -0.25238
 Alpha  occ. eigenvalues --   -0.25237
 Alpha virt. eigenvalues --   -0.00208  -0.00206   0.09452   0.14910   0.14911
 Alpha virt. eigenvalues --    0.15873   0.18552   0.18553   0.19559   0.30173
 Alpha virt. eigenvalues --    0.30175   0.31745   0.31747   0.47348   0.51823

 Mulliken charges:
               1
     1  C   -0.149231
     2  C   -0.149256
     3  C   -0.149255
     4  C   -0.149231
     5  C   -0.149256
     6  C   -0.149255
     7  H    0.149240
     8  H    0.149260
     9  H    0.149242
    10  H    0.149240
    11  H    0.149260
    12  H    0.149242
 Sum of Mulliken charges =   0.00000

 Dipole moment (field-independent basis, Debye):
    X=             -0.0000    Y=              0.0000    Z=             -0.0000  Tot=              0.0000
 Quadrupole moment (field-independent basis, Debye-Ang):
   XX=            -30.6122   YY=            -30.6167   ZZ=            -38.7089
   XY=              0.0006   XZ=             -0.0222   YZ=              0.2211

 Normal termination of Gaussian 16 at Tue Mar  1 05:32:53 2022.
