 Gaussian 16, Revision A.03,

 ----------------------------------------------------------------------
 #p b3lyp/6-31G(d) opt=(MaxStep=10,MaxCycles=1000) freq scf=(MaxCycle=2
 000,NoVarAcc,NoIncFock) scrf=(iefpcm,read,solvent=water)
 ----------------------------------------------------------------------

 -------------
 102.n.pdb.xyz
 -------------
 Symbolic Z-matrix:
 Charge =  0 Multiplicity = 1

 SCF Done:  E(RB3LYP) =  -1418.02498772     A.U. after   13 cycles
 SCF Done:  E(RB3LYP) =  -1418.02911461     A.U. after   11 cycles
 SCF Done:  E(RB3LYP) =  -1418.02668301     A.U. after   11 cycles
 SCF Done:  E(RB3LYP) =  -1418.03123169     A.U. after   10 cycles
 SCF Done:  E(RB3LYP) =  -1418.03175438     A.U. after   10 cycles
 SCF Done:  E(RB3LYP) =  -1418.03188277     A.U. after   10 cycles
 SCF Done:  E(RB3LYP) =  -1418.03193887     A.U. after    9 cycles
 SCF Done:  E(RB3LYP) =  -1418.03193790     A.U. after    9 cycles
 SCF Done:  E(RB3LYP) =  -1418.03193659     A.U. after    8 cycles
 SCF Done:  E(RB3LYP) =  -1418.03194394     A.U. after    9 cycles
 SCF Done:  E(RB3LYP) =  -1418.03193278     A.U. after    9 cycles
 SCF Done:  E(RB3LYP) =  -1418.03192964     A.U. after    7 cycles
 SCF Done:  E(RB3LYP) =  -1418.03194350     A.U. after    9 cycles
 SCF Done:  E(RB3LYP) =  -1418.03194304     A.U. after    8 cycles
 SCF Done:  E(RB3LYP) =  -1418.03194349     A.U. after    7 cycles
 SCF Done:  E(RB3LYP) =  -1418.03194351     A.U. after    6 cycles
 Optimization completed.
    -- Stationary point found.
 Normal termination of Gaussian 16 at Tue Mar  1 16:19:35 2022.

 --------------------------------------------------------------------
 #P Geom=AllCheck Guess=TCheck SCRF=Check GenChk RB3LYP/6-31G(d) Freq
 --------------------------------------------------------------------

 Structure from the checkpoint file:  "102.n.pdb.xyz.mst.wat.chk"
 -------------
 102.n.pdb.xyz
 -------------
 Charge =  0 Multiplicity = 1

 SCF Done:  E(RB3LYP) =  -1418.03194351     A.U. after    1 cycles

  Exact polarizability: 346.192 -22.097 318.073   9.647  38.210 222.635
 Approx polarizability: 378.690 -22.270 359.830  17.188  50.116 266.527

                      1                      2                      3
                      A                      A                      A
 Frequencies --     21.2874                40.1640                63.3833
 Red. masses --      6.6881                 6.2280                 7.2975
 Frc consts  --      0.0018                 0.0059                 0.0173
 IR Inten    --      0.3711                 0.6936                 3.0914

                      4                      5                      6
                      A                      A                      A
 Frequencies --     65.0511               100.2679               111.0016
 Red. masses --      5.6003                 3.8933                 6.1191
 Frc consts  --      0.0140                 0.0231                 0.0444
 IR Inten    --      0.7768                 3.0678                 1.6573

                      7                      8                      9
                      A                      A                      A
 Frequencies --    146.9371               152.1026               183.6709
 Red. masses --      5.1362                 3.7358                 1.5117
 Frc consts  --      0.0653                 0.0509                 0.0300
 IR Inten    --      0.5350                 0.9512                 0.6663

                     10                     11                     12
                      A                      A                      A
 Frequencies --    197.3358               225.4228               237.9680
 Red. masses --      3.5658                 6.0979                 5.5203
 Frc consts  --      0.0818                 0.1826                 0.1842
 IR Inten    --      0.3549                 0.8145                 2.1334

                     13                     14                     15
                      A                      A                      A
 Frequencies --    249.9490               298.7551               310.4206
 Red. masses --      4.6124                 4.6407                 4.7670
 Frc consts  --      0.1698                 0.2440                 0.2706
 IR Inten    --      0.2244                 6.9460                 3.5791

                     16                     17                     18
                      A                      A                      A
 Frequencies --    316.4242               333.6042               349.9460
 Red. masses --      5.7699                 3.4670                 4.3765
 Frc consts  --      0.3404                 0.2273                 0.3158
 IR Inten    --      4.4718                 3.9859                 0.2456

                     19                     20                     21
                      A                      A                      A
 Frequencies --    408.4889               434.8116               439.4682
 Red. masses --      4.5104                 5.0409                 6.4528
 Frc consts  --      0.4434                 0.5615                 0.7343
 IR Inten    --      2.1411                 1.9834                 2.1561

                     22                     23                     24
                      A                      A                      A
 Frequencies --    457.5649               477.7615               508.2444
 Red. masses --      4.7010                 5.3489                 3.8934
 Frc consts  --      0.5799                 0.7193                 0.5926
 IR Inten    --      2.6806                16.3499                15.4149

                     25                     26                     27
                      A                      A                      A
 Frequencies --    512.2772               545.3214               557.2144
 Red. masses --      4.4308                 4.6569                 5.0017
 Frc consts  --      0.6851                 0.8159                 0.9150
 IR Inten    --      4.4136                11.8226                15.6455

                     28                     29                     30
                      A                      A                      A
 Frequencies --    562.9178               594.5149               640.5893
 Red. masses --      5.1933                 4.9093                 4.4728
 Frc consts  --      0.9696                 1.0223                 1.0814
 IR Inten    --      0.5120                10.7141                 3.3915

                     31                     32                     33
                      A                      A                      A
 Frequencies --    656.9990               680.8219               688.3651
 Red. masses --      5.7981                 4.5649                 5.8387
 Frc consts  --      1.4746                 1.2467                 1.6301
 IR Inten    --     23.8762                 9.4378                 3.3200

                     34                     35                     36
                      A                      A                      A
 Frequencies --    699.9415               708.0380               740.4571
 Red. masses --      6.2340                 5.5024                 4.8382
 Frc consts  --      1.7994                 1.6252                 1.5629
 IR Inten    --      0.1835                 1.7178                 6.5604

                     37                     38                     39
                      A                      A                      A
 Frequencies --    763.5978               782.8205               795.3789
 Red. masses --      2.7647                 1.6313                 4.0888
 Frc consts  --      0.9498                 0.5890                 1.5241
 IR Inten    --     25.0922                59.7118                14.1035

                     40                     41                     42
                      A                      A                      A
 Frequencies --    808.5427               833.9461               838.8070
 Red. masses --      5.2106                 1.5257                 6.5812
 Frc consts  --      2.0070                 0.6252                 2.7282
 IR Inten    --     68.7510                23.6148                24.9200

                     43                     44                     45
                      A                      A                      A
 Frequencies --    847.9783               878.2081               913.5420
 Red. masses --      1.4662                 1.3881                 1.4656
 Frc consts  --      0.6212                 0.6308                 0.7206
 IR Inten    --     44.5395                 1.5217                20.2526

                     46                     47                     48
                      A                      A                      A
 Frequencies --    944.4739               965.6832               976.7322
 Red. masses --      3.0767                 1.3937                 1.3322
 Frc consts  --      1.6170                 0.7658                 0.7488
 IR Inten    --     25.3157                 5.5383                 1.0817

                     49                     50                     51
                      A                      A                      A
 Frequencies --    992.1319               997.0793              1005.3782
 Red. masses --      2.4266                 1.2689                 2.1619
 Frc consts  --      1.4073                 0.7433                 1.2875
 IR Inten    --      3.6806                 0.5166                56.3578

                     52                     53                     54
                      A                      A                      A
 Frequencies --   1017.6240              1035.1388              1061.8394
 Red. masses --      5.4671                 6.0979                 2.8679
 Frc consts  --      3.3357                 3.8497                 1.9051
 IR Inten    --     57.7261                18.6345                 3.7319

                     55                     56                     57
                      A                      A                      A
 Frequencies --   1064.4087              1071.2348              1119.2602
 Red. masses --      2.0799                 1.4828                 1.9125
 Frc consts  --      1.3884                 1.0025                 1.4116
 IR Inten    --     16.2948                 9.0038                38.1001

                     58                     59                     60
                      A                      A                      A
 Frequencies --   1130.6069              1158.0260              1179.1911
 Red. masses --      2.3464                 1.6729                 1.9043
 Frc consts  --      1.7671                 1.3218                 1.5601
 IR Inten    --     44.7519                 7.8803                17.1051

                     61                     62                     63
                      A                      A                      A
 Frequencies --   1185.1732              1192.7896              1237.7225
 Red. masses --      1.2562                 1.6050                 1.4148
 Frc consts  --      1.0396                 1.3454                 1.2770
 IR Inten    --      1.5237                32.4311                19.9286

                     64                     65                     66
                      A                      A                      A
 Frequencies --   1254.3298              1270.9862              1281.8090
 Red. masses --      3.2025                 2.4446                 1.7358
 Frc consts  --      2.9687                 2.3267                 1.6804
 IR Inten    --     80.4081                17.7394                39.5439

                     67                     68                     69
                      A                      A                      A
 Frequencies --   1294.6072              1306.0080              1330.8880
 Red. masses --      1.9360                 2.4800                 2.6495
 Frc consts  --      1.9118                 2.4922                 2.7651
 IR Inten    --     36.5630                45.4557                16.8361

                     70                     71                     72
                      A                      A                      A
 Frequencies --   1342.1801              1354.7188              1359.8597
 Red. masses --      4.4997                 6.9201                 2.1496
 Frc consts  --      4.7759                 7.4828                 2.3421
 IR Inten    --     65.4932                21.5906                77.3754

                     73                     74                     75
                      A                      A                      A
 Frequencies --   1363.4160              1423.6675              1437.4630
 Red. masses --      3.0739                 2.3085                 2.0328
 Frc consts  --      3.3667                 2.7567                 2.4748
 IR Inten    --      6.1296                72.1269                 2.6832

                     76                     77                     78
                      A                      A                      A
 Frequencies --   1451.4811              1491.8690              1493.8745
 Red. masses --      2.9245                 2.2805                 1.1492
 Frc consts  --      3.6301                 2.9905                 1.5111
 IR Inten    --    233.6557                42.3274                13.9792

                     79                     80                     81
                      A                      A                      A
 Frequencies --   1498.4979              1508.8076              1525.7055
 Red. masses --      1.1046                 1.4054                 1.9677
 Frc consts  --      1.4614                 1.8850                 2.6986
 IR Inten    --      9.0137               103.3529               163.5179

                     82                     83                     84
                      A                      A                      A
 Frequencies --   1532.5736              1553.9873              1611.0769
 Red. masses --      2.7926                 4.5016                 7.2155
 Frc consts  --      3.8646                 6.4050                11.0345
 IR Inten    --     86.9576                27.7441                28.2668

                     85                     86                     87
                      A                      A                      A
 Frequencies --   1631.1557              1633.5165              1651.0364
 Red. masses --      6.1456                 6.5249                 6.9055
 Frc consts  --      9.6339                10.2583                11.0907
 IR Inten    --     16.9542                24.9684                10.2956

                     88                     89                     90
                      A                      A                      A
 Frequencies --   1663.0156              1684.3482              3029.4991
 Red. masses --      6.7436                10.2418                 1.0703
 Frc consts  --     10.9884                17.1195                 5.7877
 IR Inten    --     84.4322               246.1881                51.1497

                     91                     92                     93
                      A                      A                      A
 Frequencies --   3071.6482              3133.0562              3138.0640
 Red. masses --      1.0416                 1.0964                 1.0936
 Frc consts  --      5.7902                 6.3411                 6.3449
 IR Inten    --     30.8047                16.4221                49.6648

                     94                     95                     96
                      A                      A                      A
 Frequencies --   3171.2013              3214.0037              3221.0149
 Red. masses --      1.1022                 1.0876                 1.0900
 Frc consts  --      6.5307                 6.6191                 6.6626
 IR Inten    --     17.4066                 4.6496                12.7335

                     97                     98                     99
                      A                      A                      A
 Frequencies --   3237.6927              3243.3781              3245.5510
 Red. masses --      1.0928                 1.0967                 1.0899
 Frc consts  --      6.7494                 6.7974                 6.7644
 IR Inten    --     18.6774                19.0021                 2.0859

                    100                    101                    102
                      A                      A                      A
 Frequencies --   3250.0504              3259.1352              3274.1031
 Red. masses --      1.0915                 1.0941                 1.0972
 Frc consts  --      6.7926                 6.8470                 6.9299
 IR Inten    --      1.4609                 4.7332                15.6946

 - Thermochemistry -
 -------------------
 Temperature   298.150 Kelvin.  Pressure   1.00000 Atm.
 Atom     1 has atomic number  6 and mass  12.00000

 Molecular mass:   325.07820 amu.
 Principal axes and moments of inertia in atomic units:
                           1         2         3
     Eigenvalues --  6482.025488588.88694**********
           X            0.99987   0.01532  -0.00487
           Y           -0.01528   0.99986   0.00726
           Z            0.00498  -0.00719   0.99996
 This molecule is an asymmetric top.
 Rotational symmetry number  1.
 Warning -- assumption of classical behavior for rotation
           may cause significant error
 Rotational temperatures (Kelvin)      0.01336     0.01008     0.00697
 Rotational constants (GHZ):           0.27842     0.21013     0.14530
 Zero-point vibrational energy     717484.7 (Joules/Mol)
                                  171.48297 (Kcal/Mol)
 Warning -- explicit consideration of  29 degrees of freedom as
           vibrations may cause significant error
 Vibrational temperatures:     30.63    57.79    91.19    93.59   144.26
          (Kelvin)            159.71   211.41   218.84   264.26   283.92
                              324.33   342.38   359.62   429.84   446.63
                              455.26   479.98   503.49   587.72   625.60
                              632.30   658.33   687.39   731.25   737.05
                              784.60   801.71   809.91   855.37   921.67
                              945.27   979.55   990.40  1007.06  1018.71
                             1065.35  1098.65  1126.30  1144.37  1163.31
                             1199.86  1206.86  1220.05  1263.55  1314.38
                             1358.89  1389.40  1405.30  1427.46  1434.57
                             1446.52  1464.13  1489.33  1527.75  1531.45
                             1541.27  1610.37  1626.69  1666.14  1696.59
                             1705.20  1716.16  1780.81  1804.70  1828.67
                             1844.24  1862.65  1879.05  1914.85  1931.10
                             1949.14  1956.53  1961.65  2048.34  2068.19
                             2088.36  2146.47  2149.35  2156.00  2170.84
                             2195.15  2205.03  2235.84  2317.98  2346.87
                             2350.27  2375.47  2392.71  2423.40  4358.77
                             4419.42  4507.77  4514.97  4562.65  4624.23
                             4634.32  4658.32  4666.50  4669.62  4676.10
                             4689.17  4710.70

 Zero-point correction=                           0.273276 (Hartree/Particle)
 Thermal correction to Energy=                    0.291514
 Thermal correction to Enthalpy=                  0.292458
 Thermal correction to Gibbs Free Energy=         0.225876
 Sum of electronic and zero-point Energies=          -1417.758668
 Sum of electronic and thermal Energies=             -1417.740430
 Sum of electronic and thermal Enthalpies=           -1417.739486
 Sum of electronic and thermal Free Energies=        -1417.806067

                     E (Thermal)             CV                S
                      KCal/Mol        Cal/Mol-Kelvin    Cal/Mol-Kelvin
 Total                  182.927             72.038            140.132
 Electronic               0.000              0.000              0.000
 Translational            0.889              2.981             43.232
 Rotational               0.889              2.981             34.891
 Vibrational            181.150             66.076             62.010
 Vibration     1          0.593              1.985              6.510
 Vibration     2          0.594              1.981              5.251
 Vibration     3          0.597              1.972              4.349
 Vibration     4          0.597              1.971              4.298
 Vibration     5          0.604              1.949              3.449
 Vibration     6          0.607              1.940              3.251
 Vibration     7          0.617              1.906              2.712
 Vibration     8          0.619              1.900              2.646
 Vibration     9          0.631              1.862              2.291
 Vibration    10          0.637              1.844              2.158
 Vibration    11          0.650              1.802              1.915
 Vibration    12          0.656              1.783              1.818
 Vibration    13          0.663              1.763              1.731
 Vibration    14          0.692              1.676              1.424
 Vibration    15          0.699              1.654              1.360
 Vibration    16          0.703              1.642              1.329
 Vibration    17          0.715              1.608              1.243
 Vibration    18          0.727              1.575              1.166
 Vibration    19          0.773              1.452              0.932
 Vibration    20          0.795              1.394              0.843
 Vibration    21          0.800              1.384              0.828
 Vibration    22          0.816              1.344              0.773
 Vibration    23          0.834              1.299              0.716
 Vibration    24          0.863              1.232              0.638
 Vibration    25          0.867              1.223              0.628
 Vibration    26          0.900              1.150              0.554
 Vibration    27          0.913              1.124              0.529
 Vibration    28          0.919              1.112              0.518
 Vibration    29          0.952              1.043              0.459

                           ! Non-Optimized Parameters !
 Normal termination of Gaussian 16 at Tue Mar  1 17:15:06 2022.

 ------------------------------------------
 #p b3lyp/6-31G(d) geom=allcheck guess=read
 ------------------------------------------

 Structure from the checkpoint file:  "102.n.pdb.xyz.mst.wat.chk"
 -------------
 102.n.pdb.xyz
 -------------
 Charge =  0 Multiplicity = 1

 SCF Done:  E(RB3LYP) =  -1418.02051550     A.U. after   12 cycles
 Normal termination of Gaussian 16 at Tue Mar  1 17:19:02 2022.
 Gaussian 16:  ES64L-G16RevA.03 25-Dec-2016

 ----------------------------------------------------------------------
 #p b3lyp/6-31G(d) scrf=(iefpcm,read,solvent=water) geom=allcheck guess
 =read
 ----------------------------------------------------------------------

 Structure from the checkpoint file:  "102.n.pdb.xyz.mst.wat.chk"
 -------------
 102.n.pdb.xyz
 -------------
 Charge =  0 Multiplicity = 1

                         Standard orientation:
 ---------------------------------------------------------------------
 Center     Atomic      Atomic             Coordinates (Angstroms)
 Number     Number       Type             X           Y           Z
 ---------------------------------------------------------------------
      1          6           0        3.809731   -0.122794    1.997359
      2          6           0        3.330137   -1.016783    0.901181
      3          7           0        3.800421   -2.226966    0.661706
      4          6           0        3.072844   -2.724490   -0.401403
      5          6           0        2.145148   -1.812292   -0.817736
      6          6           0        1.050293   -1.810686   -1.824741
      7          7           0       -0.255851   -1.845710   -1.149044
      8          6           0       -0.619111   -0.807770   -0.487396
      9          6           0        0.172749    0.456216   -0.346200
     10          6           0       -0.514726    1.674738   -0.459959
     11          6           0        0.162738    2.880666   -0.351632
     12         17           0       -0.728752    4.386487   -0.513725
     13          6           0        1.535037    2.918426   -0.118385
     14          6           0        2.227515    1.719185   -0.003405
     15          6           0        1.565063    0.491009   -0.107616
     16          7           0        2.307439   -0.709494    0.021910
     17          6           0       -1.944795   -0.847665    0.200144
     18          6           0       -3.090450   -1.369994   -0.413838
     19          9           0       -3.033679   -1.786697   -1.697814
     20          6           0       -4.315835   -1.452678    0.234856
     21          6           0       -4.416274   -1.008503    1.553355
     22          6           0       -3.297353   -0.477113    2.197895
     23          6           0       -2.082319   -0.391150    1.521853
     24          1           0        4.338841   -0.732329    2.731245
     25          1           0        4.503842    0.643370    1.636041
     26          1           0        2.983009    0.388772    2.495954
     27          1           0        3.252803   -3.712208   -0.800891
     28          1           0        1.135373   -2.695706   -2.456554
     29          1           0        1.120380   -0.926322   -2.473266
     30          1           0       -1.582638    1.668273   -0.635726
     31          1           0        2.057147    3.863836   -0.041841
     32          1           0        3.297809    1.735128    0.154392
     33          1           0       -5.167971   -1.856597   -0.299031
     34          1           0       -5.368137   -1.073878    2.070330
     35          1           0       -3.369941   -0.130591    3.221339
     36          1           0       -1.215031    0.023506    2.023667
 ---------------------------------------------------------------------

 SCF Done:  E(RB3LYP) =  -1418.03049180     A.U. after   11 cycles

 The electronic state is 1-A.
 Alpha  occ. eigenvalues -- -101.56058 -24.71205 -14.40432 -14.34002 -14.32075
 Alpha  occ. eigenvalues --  -10.28230 -10.26636 -10.26227 -10.25742 -10.25433
 Alpha  occ. eigenvalues --  -10.23021 -10.22561 -10.22328 -10.22032 -10.21940
 Alpha  occ. eigenvalues --  -10.21672 -10.21418 -10.20627 -10.20493 -10.20212
 Alpha  occ. eigenvalues --  -10.20113 -10.19735 -10.19259  -9.47683  -7.24078
 Alpha  occ. eigenvalues --   -7.23115  -7.23078  -1.22348  -1.02988  -0.94446
 Alpha  occ. eigenvalues --   -0.91169  -0.89369  -0.86916  -0.84515  -0.79899
 Alpha  occ. eigenvalues --   -0.78859  -0.76597  -0.75488  -0.75023  -0.72740
 Alpha  occ. eigenvalues --   -0.68598  -0.65523  -0.64446  -0.63011  -0.62027
 Alpha  occ. eigenvalues --   -0.59290  -0.58833  -0.56434  -0.53825  -0.51863
 Alpha  occ. eigenvalues --   -0.51244  -0.49865  -0.49610  -0.48995  -0.47481
 Alpha  occ. eigenvalues --   -0.46836  -0.46674  -0.45609  -0.45525  -0.44630
 Alpha  occ. eigenvalues --   -0.43848  -0.43728  -0.41619  -0.41134  -0.40583
 Alpha  occ. eigenvalues --   -0.40111  -0.40088  -0.39300  -0.38945  -0.38124
 Alpha  occ. eigenvalues --   -0.37256  -0.36798  -0.35554  -0.35061  -0.32675
 Alpha  occ. eigenvalues --   -0.32489  -0.30044  -0.28461  -0.28005  -0.27047
 Alpha  occ. eigenvalues --   -0.25700  -0.24932  -0.24576  -0.22333
 Alpha virt. eigenvalues --   -0.06254  -0.03515  -0.02887  -0.00553   0.01545
 Alpha virt. eigenvalues --    0.02225   0.04008   0.05954   0.08901   0.10148
 Alpha virt. eigenvalues --    0.12341   0.12703   0.13124   0.13861   0.14441

 Mulliken charges:
               1
     1  C   -0.536148
     2  C    0.473731
     3  N   -0.548709
     4  C   -0.110238
     5  C    0.307062
     6  C   -0.259997
     7  N   -0.438048
     8  C    0.218081
     9  C    0.090314
    10  C   -0.191279
    11  C   -0.061631
    12  Cl  -0.024254
    13  C   -0.141229
    14  C   -0.148852
    15  C    0.258422
    16  N   -0.578971
    17  C    0.008905
    18  C    0.338635
    19  F   -0.294828
    20  C   -0.207086
    21  C   -0.136971
    22  C   -0.146473
    23  C   -0.174909
    24  H    0.186128
    25  H    0.190029
    26  H    0.183673
    27  H    0.156891
    28  H    0.181524
    29  H    0.180876
    30  H    0.188140
    31  H    0.188942
    32  H    0.186956
    33  H    0.169215
    34  H    0.166712
    35  H    0.160842
    36  H    0.164544
 Sum of Mulliken charges =  -0.00000

 Dipole moment (field-independent basis, Debye):
    X=             -1.2473    Y=              4.5849    Z=              1.5551  Tot=              4.9995
 Quadrupole moment (field-independent basis, Debye-Ang):
   XX=           -131.2499   YY=           -149.0846   ZZ=           -130.9711
   XY=             17.1297   XZ=             -9.1226   YZ=              4.5527

 Normal termination of Gaussian 16 at Tue Mar  1 17:23:26 2022.
