 Gaussian 16, Revision A.03,

 ----------------------------------------------------------------------
 #p b3lyp/6-31G(d) opt=(MaxStep=10,MaxCycles=1000) freq scf=(MaxCycle=2
 000,NoVarAcc,NoIncFock) scrf=(iefpcm,read,solvent=water)
 ----------------------------------------------------------------------

 -------------
 103.n.pdb.xyz
 -------------
 Symbolic Z-matrix:
 Charge =  0 Multiplicity = 1

 SCF Done:  E(RB3LYP) =  -804.581600070     A.U. after   12 cycles
 SCF Done:  E(RB3LYP) =  -804.584900670     A.U. after   11 cycles
 SCF Done:  E(RB3LYP) =  -804.582373364     A.U. after   11 cycles
 SCF Done:  E(RB3LYP) =  -804.585430909     A.U. after   11 cycles
 SCF Done:  E(RB3LYP) =  -804.585715694     A.U. after   11 cycles
 SCF Done:  E(RB3LYP) =  -804.585714335     A.U. after   11 cycles
 SCF Done:  E(RB3LYP) =  -804.585890886     A.U. after   10 cycles
 SCF Done:  E(RB3LYP) =  -804.585836346     A.U. after   10 cycles
 SCF Done:  E(RB3LYP) =  -804.585939130     A.U. after   11 cycles
 SCF Done:  E(RB3LYP) =  -804.586042554     A.U. after   10 cycles
 SCF Done:  E(RB3LYP) =  -804.586154031     A.U. after    9 cycles
 SCF Done:  E(RB3LYP) =  -804.586163241     A.U. after    8 cycles
 SCF Done:  E(RB3LYP) =  -804.586157318     A.U. after    8 cycles
 SCF Done:  E(RB3LYP) =  -804.586162064     A.U. after    8 cycles
 SCF Done:  E(RB3LYP) =  -804.586162805     A.U. after    8 cycles
 SCF Done:  E(RB3LYP) =  -804.586163216     A.U. after    8 cycles
 SCF Done:  E(RB3LYP) =  -804.586157121     A.U. after    8 cycles
 Optimization completed.
    -- Stationary point found.
 Normal termination of Gaussian 16 at Tue Mar  1 18:04:16 2022.

 --------------------------------------------------------------------
 #P Geom=AllCheck Guess=TCheck SCRF=Check GenChk RB3LYP/6-31G(d) Freq
 --------------------------------------------------------------------

 Structure from the checkpoint file:  "103.n.pdb.xyz.mst.wat.chk"
 -------------
 103.n.pdb.xyz
 -------------
 Charge =  0 Multiplicity = 1

 SCF Done:  E(RB3LYP) =  -804.586157121     A.U. after    1 cycles

  Exact polarizability: 224.614 -11.225 188.958 -13.161 -10.138 158.991
 Approx polarizability: 231.458 -12.608 210.529 -15.472 -16.788 174.598

 ******    1 imaginary frequencies (negative Signs) ******

                      1                      2                      3
                      A                      A                      A
 Frequencies --     -8.5652                26.9396                31.9846
 Red. masses --      2.8042                 2.6648                 3.6637
 Frc consts  --      0.0001                 0.0011                 0.0022
 IR Inten    --      0.9967                 0.6219                 0.5030

                      4                      5                      6
                      A                      A                      A
 Frequencies --     56.5637                83.0691               102.4009
 Red. masses --      4.1814                 2.5850                 1.7064
 Frc consts  --      0.0079                 0.0105                 0.0105
 IR Inten    --      0.2911                 0.0081                 0.1166

                      7                      8                      9
                      A                      A                      A
 Frequencies --    119.5041               120.7329               140.2819
 Red. masses --      5.4528                 3.0227                 3.7139
 Frc consts  --      0.0459                 0.0260                 0.0431
 IR Inten    --      1.3941                 0.2191                 5.6888

                     10                     11                     12
                      A                      A                      A
 Frequencies --    147.9900               161.3628               177.5170
 Red. masses --      2.8396                 2.3462                 2.2765
 Frc consts  --      0.0366                 0.0360                 0.0423
 IR Inten    --      3.2219                 1.7406                 0.3217

                     13                     14                     15
                      A                      A                      A
 Frequencies --    193.2037               209.0083               253.9342
 Red. masses --      3.6812                 2.6566                 1.1272
 Frc consts  --      0.0810                 0.0684                 0.0428
 IR Inten    --      2.8853                 0.7621                 0.0707

                     16                     17                     18
                      A                      A                      A
 Frequencies --    263.2740               276.3644               307.8283
 Red. masses --      2.8238                 2.7524                 2.8177
 Frc consts  --      0.1153                 0.1239                 0.1573
 IR Inten    --      2.1718                 5.7361                 4.7037

                     19                     20                     21
                      A                      A                      A
 Frequencies --    355.0959               387.0875               409.8564
 Red. masses --      3.6746                 9.1265                10.9429
 Frc consts  --      0.2730                 0.8057                 1.0830
 IR Inten    --     14.5854                66.4344                 2.5185

                     22                     23                     24
                      A                      A                      A
 Frequencies --    435.5382               443.9141               503.5334
 Red. masses --      3.7244                 2.8261                10.1369
 Frc consts  --      0.4163                 0.3281                 1.5143
 IR Inten    --     17.1517                 0.1512                22.0040

                     25                     26                     27
                      A                      A                      A
 Frequencies --    540.6687               592.9282               635.3078
 Red. masses --      4.5114                 1.1685                 4.2480
 Frc consts  --      0.7770                 0.2420                 1.0102
 IR Inten    --     56.7124                48.0083                23.7576

                     28                     29                     30
                      A                      A                      A
 Frequencies --    651.5805               683.1933               725.8300
 Red. masses --      1.2249                 3.8124                 4.4986
 Frc consts  --      0.3064                 1.0484                 1.3964
 IR Inten    --    242.7889                 8.4015                50.9387

                     31                     32                     33
                      A                      A                      A
 Frequencies --    733.7586               743.4100               745.8947
 Red. masses --      1.1214                 1.3184                 4.3408
 Frc consts  --      0.3557                 0.4293                 1.4229
 IR Inten    --     22.0664                11.1798                33.4325

                     34                     35                     36
                      A                      A                      A
 Frequencies --    752.3879               769.1333               784.1202
 Red. masses --      5.4403                 3.8172                 1.4890
 Frc consts  --      1.8145                 1.3305                 0.5394
 IR Inten    --      5.4651                 4.3311                 2.0457

                     37                     38                     39
                      A                      A                      A
 Frequencies --    801.0569               878.4051               906.0264
 Red. masses --      1.2573                 1.3956                 1.9106
 Frc consts  --      0.4754                 0.6344                 0.9241
 IR Inten    --     15.3317                 2.4542                 2.0642

                     40                     41                     42
                      A                      A                      A
 Frequencies --    952.5982               955.4952              1001.9676
 Red. masses --      2.1259                 1.9244                 2.2202
 Frc consts  --      1.1366                 1.0352                 1.3132
 IR Inten    --      1.6216                 1.2952                 4.9201

                     43                     44                     45
                      A                      A                      A
 Frequencies --   1019.8193              1025.1676              1048.2987
 Red. masses --      1.8147                 2.1534                 2.8602
 Frc consts  --      1.1120                 1.3334                 1.8519
 IR Inten    --      2.7235                 4.3811                 2.9632

                     46                     47                     48
                      A                      A                      A
 Frequencies --   1052.1401              1068.0916              1075.3998
 Red. masses --      2.6401                 2.6557                 2.5457
 Frc consts  --      1.7219                 1.7850                 1.7346
 IR Inten    --      0.8431                 1.4731                 0.1389

                     49                     50                     51
                      A                      A                      A
 Frequencies --   1077.4902              1130.3694              1152.2109
 Red. masses --      2.1330                 2.1767                 3.0115
 Frc consts  --      1.4590                 1.6386                 2.3555
 IR Inten    --      0.2476                14.7229                14.2931

                     52                     53                     54
                      A                      A                      A
 Frequencies --   1176.3874              1190.2716              1237.0172
 Red. masses --      2.3028                 2.0403                 1.7336
 Frc consts  --      1.8776                 1.7030                 1.5630
 IR Inten    --     15.6497                24.4457                15.7074

                     55                     56                     57
                      A                      A                      A
 Frequencies --   1252.4624              1266.5799              1297.8359
 Red. masses --      2.2413                 1.4123                 1.3021
 Frc consts  --      2.0715                 1.3349                 1.2923
 IR Inten    --     82.8233                21.5370                34.0711

                     58                     59                     60
                      A                      A                      A
 Frequencies --   1307.7072              1329.0627              1330.4651
 Red. masses --      1.3105                 1.2953                 1.2246
 Frc consts  --      1.3204                 1.3480                 1.2772
 IR Inten    --     64.2759                56.1360                40.6468

                     61                     62                     63
                      A                      A                      A
 Frequencies --   1338.2035              1349.4414              1366.7469
 Red. masses --      1.0658                 1.2082                 2.1828
 Frc consts  --      1.1245                 1.2963                 2.4023
 IR Inten    --      2.9653                65.8617               457.6560

                     64                     65                     66
                      A                      A                      A
 Frequencies --   1373.9973              1379.3765              1412.7119
 Red. masses --      1.5023                 1.4188                 1.5671
 Frc consts  --      1.6710                 1.5905                 1.8427
 IR Inten    --     80.5754                 6.3301                20.9986

                     67                     68                     69
                      A                      A                      A
 Frequencies --   1414.6872              1420.6837              1431.0294
 Red. masses --      2.0722                 1.6394                 1.2545
 Frc consts  --      2.4434                 1.9495                 1.5136
 IR Inten    --     98.2628                 2.0294                 0.3863

                     70                     71                     72
                      A                      A                      A
 Frequencies --   1431.7905              1437.4526              1462.8463
 Red. masses --      1.2573                 3.5294                 2.3372
 Frc consts  --      1.5186                 4.2968                 2.9468
 IR Inten    --      7.1583               450.0447               166.3122

                     73                     74                     75
                      A                      A                      A
 Frequencies --   1496.9407              1501.7736              1504.8637
 Red. masses --      1.0722                 1.0710                 1.0703
 Frc consts  --      1.4156                 1.4231                 1.4281
 IR Inten    --      0.1752                 2.6211                 2.8509

                     76                     77                     78
                      A                      A                      A
 Frequencies --   1508.5200              1513.4203              1516.5793
 Red. masses --      1.0532                 1.0572                 1.0415
 Frc consts  --      1.4121                 1.4267                 1.4114
 IR Inten    --      3.4311                 3.6396                 6.4711

                     79                     80                     81
                      A                      A                      A
 Frequencies --   1519.1259              1528.0487              1530.3829
 Red. masses --      1.0783                 1.0753                 1.0874
 Frc consts  --      1.4661                 1.4793                 1.5006
 IR Inten    --      2.5462                16.1350                 2.4524

                     82                     83                     84
                      A                      A                      A
 Frequencies --   1536.7542              1747.2947              1763.9731
 Red. masses --      1.0962                 9.8842                 7.0961
 Frc consts  --      1.5253                17.7797                13.0094
 IR Inten    --      6.0506               709.6979              1340.3674

                     85                     86                     87
                      A                      A                      A
 Frequencies --   1810.2912              3023.5418              3027.3291
 Red. masses --     11.8834                 1.0584                 1.0588
 Frc consts  --     22.9450                 5.7007                 5.7173
 IR Inten    --    222.4964                11.3031                44.3200

                     88                     89                     90
                      A                      A                      A
 Frequencies --   3036.8638              3045.9799              3050.4762
 Red. masses --      1.0599                 1.0987                 1.0363
 Frc consts  --      5.7594                 6.0060                 5.6816
 IR Inten    --    129.4353                 1.5945                48.5293

                     91                     92                     93
                      A                      A                      A
 Frequencies --   3053.6099              3058.5468              3065.7433
 Red. masses --      1.0708                 1.0941                 1.0738
 Frc consts  --      5.8831                 6.0302                 5.9464
 IR Inten    --      5.9441                16.5944                84.7699

                     94                     95                     96
                      A                      A                      A
 Frequencies --   3070.1501              3076.9162              3080.9860
 Red. masses --      1.0383                 1.1040                 1.0647
 Frc consts  --      5.7662                 6.1579                 5.9545
 IR Inten    --     29.3277               183.3925                34.8384

                     97                     98                     99
                      A                      A                      A
 Frequencies --   3113.6853              3114.7026              3118.0640
 Red. masses --      1.1030                 1.0933                 1.1022
 Frc consts  --      6.3004                 6.2493                 6.3138
 IR Inten    --    111.5202                 1.4451                74.0925

                    100                    101                    102
                      A                      A                      A
 Frequencies --   3127.9466              3133.2542              3136.4903
 Red. masses --      1.0978                 1.1009                 1.0990
 Frc consts  --      6.3285                 6.3676                 6.3697
 IR Inten    --     16.3902                75.1347                47.4585

                    103                    104                    105
                      A                      A                      A
 Frequencies --   3161.4596              3566.9285              3570.2716
 Red. masses --      1.1009                 1.0775                 1.0798
 Frc consts  --      6.4832                 8.0773                 8.1097
 IR Inten    --     38.6384               228.2327               124.7161

 - Thermochemistry -
 -------------------
 Temperature   298.150 Kelvin.  Pressure   1.00000 Atm.
 Atom     1 has atomic number  6 and mass  12.00000

 Molecular mass:   240.14739 amu.
 Principal axes and moments of inertia in atomic units:
                           1         2         3
     Eigenvalues --  1916.068619448.21650**********
           X            0.99996   0.00734   0.00579
           Y           -0.00769   0.99803   0.06232
           Z           -0.00532  -0.06236   0.99804
 This molecule is an asymmetric top.
 Rotational symmetry number  1.
 Warning -- assumption of classical behavior for rotation
           may cause significant error
 Rotational temperatures (Kelvin)      0.04520     0.00917     0.00855
 Rotational constants (GHZ):           0.94190     0.19101     0.17824
    1 imaginary frequencies ignored.
 Zero-point vibrational energy     837549.9 (Joules/Mol)
                                  200.17923 (Kcal/Mol)
 Warning -- explicit consideration of  25 degrees of freedom as
           vibrations may cause significant error
 Vibrational temperatures:     38.76    46.02    81.38   119.52   147.33
          (Kelvin)            171.94   173.71   201.83   212.92   232.17
                              255.41   277.98   300.72   365.35   378.79
                              397.63   442.90   510.90   556.93   589.69
                              626.64   638.69   724.47   777.90   853.09
                              914.07   937.48   982.96  1044.31  1055.71
                             1069.60  1073.18  1082.52  1106.61  1128.17
                             1152.54  1263.83  1303.57  1370.58  1374.74
                             1441.61  1467.29  1474.99  1508.27  1513.79
                             1536.75  1547.26  1550.27  1626.35  1657.77
                             1692.56  1712.54  1779.79  1802.01  1822.33
                             1867.30  1881.50  1912.22  1914.24  1925.38
                             1941.55  1966.44  1976.88  1984.62  2032.58
                             2035.42  2044.05  2058.93  2060.03  2068.17
                             2104.71  2153.76  2160.72  2165.16  2170.42
                             2177.47  2182.02  2185.68  2198.52  2201.88
                             2211.05  2513.97  2537.96  2604.61  4350.20
                             4355.65  4369.37  4382.49  4388.95  4393.46
                             4400.57  4410.92  4417.26  4427.00  4432.85
                             4479.90  4481.36  4486.20  4500.42  4508.05
                             4512.71  4548.64  5132.01  5136.82

 Zero-point correction=                           0.319006 (Hartree/Particle)
 Thermal correction to Energy=                    0.336749
 Thermal correction to Enthalpy=                  0.337693
 Thermal correction to Gibbs Free Energy=         0.272175
 Sum of electronic and zero-point Energies=           -804.267151
 Sum of electronic and thermal Energies=              -804.249408
 Sum of electronic and thermal Enthalpies=            -804.248464
 Sum of electronic and thermal Free Energies=         -804.313982

                     E (Thermal)             CV                S
                      KCal/Mol        Cal/Mol-Kelvin    Cal/Mol-Kelvin
 Total                  211.313             65.677            137.894
 Electronic               0.000              0.000              0.000
 Translational            0.889              2.981             42.329
 Rotational               0.889              2.981             33.571
 Vibrational            209.536             59.716             61.994
 Vibration     1          0.593              1.984              6.043
 Vibration     2          0.594              1.983              5.702
 Vibration     3          0.596              1.975              4.574
 Vibration     4          0.600              1.961              3.817
 Vibration     5          0.604              1.947              3.408
 Vibration     6          0.609              1.933              3.108
 Vibration     7          0.609              1.932              3.089
 Vibration     8          0.615              1.913              2.800
 Vibration     9          0.617              1.905              2.698
 Vibration    10          0.622              1.890              2.534
 Vibration    11          0.628              1.870              2.354
 Vibration    12          0.635              1.849              2.197
 Vibration    13          0.642              1.827              2.052
 Vibration    14          0.665              1.756              1.703
 Vibration    15          0.670              1.740              1.640
 Vibration    16          0.678              1.717              1.556
 Vibration    17          0.698              1.659              1.374
 Vibration    18          0.731              1.565              1.143
 Vibration    19          0.756              1.498              1.011
 Vibration    20          0.774              1.449              0.927
 Vibration    21          0.796              1.393              0.841
 Vibration    22          0.803              1.374              0.814
 Vibration    23          0.859              1.242              0.649
 Vibration    24          0.896              1.160              0.564
 Vibration    25          0.950              1.047              0.462

                           ! Non-Optimized Parameters !
 Normal termination of Gaussian 16 at Tue Mar  1 18:36:43 2022.

 ------------------------------------------
 #p b3lyp/6-31G(d) geom=allcheck guess=read
 ------------------------------------------

 Structure from the checkpoint file:  "103.n.pdb.xyz.mst.wat.chk"
 -------------
 103.n.pdb.xyz
 -------------
 Charge =  0 Multiplicity = 1

 SCF Done:  E(RB3LYP) =  -804.565896560     A.U. after   11 cycles
 Normal termination of Gaussian 16 at Tue Mar  1 18:38:58 2022.
 Gaussian 16:  ES64L-G16RevA.03 25-Dec-2016

 ----------------------------------------------------------------------
 #p b3lyp/6-31G(d) scrf=(iefpcm,read,solvent=water) geom=allcheck guess
 =read
 ----------------------------------------------------------------------

 Structure from the checkpoint file:  "103.n.pdb.xyz.mst.wat.chk"
 -------------
 103.n.pdb.xyz
 -------------
 Charge =  0 Multiplicity = 1

                         Standard orientation:
 ---------------------------------------------------------------------
 Center     Atomic      Atomic             Coordinates (Angstroms)
 Number     Number       Type             X           Y           Z
 ---------------------------------------------------------------------
      1          6           0       -6.629551   -0.526811    0.022057
      2          6           0       -5.356595   -0.167185   -0.747660
      3          6           0       -4.082477   -0.320248    0.088813
      4          6           0       -2.802841    0.044566   -0.670352
      5          6           0       -1.535068   -0.112629    0.176759
      6          6           0       -0.276706    0.276547   -0.605277
      7          6           0        1.074191    0.252249    0.168939
      8          6           0        0.986190    0.994793    1.550650
      9          6           0        0.540355    2.455403    1.499892
     10          6           0        2.110961    0.983571   -0.688225
     11          8           0        1.871798    2.049621   -1.237243
     12          7           0        3.370804    0.426578   -0.787792
     13          6           0        3.762853   -0.831016   -0.367322
     14          8           0        4.891709   -1.260098   -0.540762
     15          7           0        2.773017   -1.569559    0.255518
     16          6           0        1.472615   -1.182941    0.516400
     17          8           0        0.706221   -1.966192    1.058326
     18          1           0       -7.521678   -0.408245   -0.601536
     19          1           0       -6.601003   -1.565680    0.368959
     20          1           0       -6.751629    0.112475    0.903691
     21          1           0       -5.279386   -0.798707   -1.642479
     22          1           0       -5.428395    0.866585   -1.109716
     23          1           0       -4.162583    0.308247    0.986602
     24          1           0       -4.008238   -1.355687    0.448034
     25          1           0       -2.876221    1.080590   -1.028911
     26          1           0       -2.721898   -0.583931   -1.567705
     27          1           0       -1.622508    0.514104    1.072173
     28          1           0       -1.444953   -1.143284    0.527412
     29          1           0       -0.388152    1.293363   -0.990562
     30          1           0       -0.178342   -0.373561   -1.483407
     31          1           0        0.291857    0.413029    2.160461
     32          1           0        1.963581    0.926446    2.038251
     33          1           0       -0.471807    2.558144    1.095619
     34          1           0        0.537477    2.864651    2.514481
     35          1           0        1.210656    3.060639    0.886930
     36          1           0        4.066120    0.954013   -1.309561
     37          1           0        3.038986   -2.506767    0.546577
 ---------------------------------------------------------------------

 SCF Done:  E(RB3LYP) =  -804.584942508     A.U. after   10 cycles

 The electronic state is 1-A.
 Alpha  occ. eigenvalues --  -19.14637 -19.14584 -19.14468 -14.39180 -14.39178
 Alpha  occ. eigenvalues --  -10.35011 -10.31917 -10.31876 -10.23112 -10.20063
 Alpha  occ. eigenvalues --  -10.18980 -10.17570 -10.17441 -10.17408 -10.17382
 Alpha  occ. eigenvalues --  -10.17247 -10.16862  -1.08848  -1.06179  -1.05847
 Alpha  occ. eigenvalues --   -0.96418  -0.92382  -0.83622  -0.79722  -0.76109
 Alpha  occ. eigenvalues --   -0.73768  -0.70236  -0.67450  -0.65328  -0.63856
 Alpha  occ. eigenvalues --   -0.62499  -0.58999  -0.57210  -0.56063  -0.55008
 Alpha  occ. eigenvalues --   -0.49681  -0.48896  -0.48341  -0.47076  -0.46341
 Alpha  occ. eigenvalues --   -0.45357  -0.44713  -0.43896  -0.43315  -0.42260
 Alpha  occ. eigenvalues --   -0.41860  -0.40669  -0.39429  -0.38944  -0.38120
 Alpha  occ. eigenvalues --   -0.37224  -0.36324  -0.35915  -0.35349  -0.34644
 Alpha  occ. eigenvalues --   -0.33134  -0.32690  -0.32024  -0.31736  -0.30874
 Alpha  occ. eigenvalues --   -0.30716  -0.29435  -0.29379  -0.28138  -0.26282
 Alpha virt. eigenvalues --   -0.04155  -0.00194   0.06562   0.08680   0.09963
 Alpha virt. eigenvalues --    0.10480   0.11864   0.12028   0.12868   0.13316
 Alpha virt. eigenvalues --    0.14708   0.15115   0.15720   0.16535   0.17040

 Mulliken charges:
               1
     1  C   -0.451039
     2  C   -0.249315
     3  C   -0.249316
     4  C   -0.259681
     5  C   -0.272324
     6  C   -0.284316
     7  C   -0.134671
     8  C   -0.278685
     9  C   -0.459675
    10  C    0.672388
    11  O   -0.535679
    12  N   -0.672028
    13  C    0.787341
    14  O   -0.539427
    15  N   -0.665760
    16  C    0.658577
    17  O   -0.530856
    18  H    0.143712
    19  H    0.143744
    20  H    0.143669
    21  H    0.132130
    22  H    0.132147
    23  H    0.129240
    24  H    0.129469
    25  H    0.130370
    26  H    0.131624
    27  H    0.139135
    28  H    0.154952
    29  H    0.166976
    30  H    0.154074
    31  H    0.177577
    32  H    0.161637
    33  H    0.158757
    34  H    0.157448
    35  H    0.166300
    36  H    0.405766
    37  H    0.405740
 Sum of Mulliken charges =  -0.00000

 Dipole moment (field-independent basis, Debye):
    X=             -0.0175    Y=              0.3975    Z=              0.6099  Tot=              0.7282
 Quadrupole moment (field-independent basis, Debye-Ang):
   XX=           -111.1775   YY=           -108.6784   ZZ=           -102.6093
   XY=              1.6319   XZ=              3.4941   YZ=              5.5223

 Normal termination of Gaussian 16 at Tue Mar  1 18:41:37 2022.
