 Gaussian 16, Revision A.03,

 ----------------------------------------------------------------------
 #p b3lyp/6-31G(d) opt=(MaxStep=10,MaxCycles=1000) freq scf=(MaxCycle=2
 000,NoVarAcc,NoIncFock) scrf=(iefpcm,read,solvent=water)
 ----------------------------------------------------------------------

 -------------
 104.n.pdb.xyz
 -------------
 Symbolic Z-matrix:
 Charge =  0 Multiplicity = 1

 SCF Done:  E(RB3LYP) =  -1337.70746530     A.U. after   13 cycles
 SCF Done:  E(RB3LYP) =  -1337.71299539     A.U. after   11 cycles
 SCF Done:  E(RB3LYP) =  -1337.71398549     A.U. after   11 cycles
 SCF Done:  E(RB3LYP) =  -1337.71670914     A.U. after   11 cycles
 SCF Done:  E(RB3LYP) =  -1337.71750917     A.U. after   11 cycles
 SCF Done:  E(RB3LYP) =  -1337.71766813     A.U. after   10 cycles
 SCF Done:  E(RB3LYP) =  -1337.71763673     A.U. after   10 cycles
 SCF Done:  E(RB3LYP) =  -1337.71767655     A.U. after    9 cycles
 SCF Done:  E(RB3LYP) =  -1337.71767633     A.U. after    9 cycles
 SCF Done:  E(RB3LYP) =  -1337.71766767     A.U. after    9 cycles
 SCF Done:  E(RB3LYP) =  -1337.71769834     A.U. after   10 cycles
 SCF Done:  E(RB3LYP) =  -1337.71767420     A.U. after   10 cycles
 SCF Done:  E(RB3LYP) =  -1337.71767423     A.U. after    7 cycles
 SCF Done:  E(RB3LYP) =  -1337.71769695     A.U. after   10 cycles
 SCF Done:  E(RB3LYP) =  -1337.71769852     A.U. after    8 cycles
 SCF Done:  E(RB3LYP) =  -1337.71767407     A.U. after   10 cycles
 Optimization completed.
    -- Stationary point found.
 Normal termination of Gaussian 16 at Tue Mar  1 21:16:10 2022.

 --------------------------------------------------------------------
 #P Geom=AllCheck Guess=TCheck SCRF=Check GenChk RB3LYP/6-31G(d) Freq
 --------------------------------------------------------------------

 Structure from the checkpoint file:  "104.n.pdb.xyz.mst.wat.chk"
 -------------
 104.n.pdb.xyz
 -------------
 Charge =  0 Multiplicity = 1

 SCF Done:  E(RB3LYP) =  -1337.71767407     A.U. after    1 cycles

  Exact polarizability: 307.454  12.092 287.644 -22.629  19.292 200.405
 Approx polarizability: 340.347  13.737 327.596 -29.714  23.828 235.360

                      1                      2                      3
                      A                      A                      A
 Frequencies --     37.0546                38.1801                61.9058
 Red. masses --      4.2499                 5.3322                 8.4673
 Frc consts  --      0.0034                 0.0046                 0.0191
 IR Inten    --      1.0691                 1.0924                 1.4397

                      4                      5                      6
                      A                      A                      A
 Frequencies --     66.7950                88.2466               108.2384
 Red. masses --      7.0482                 7.3392                 3.8802
 Frc consts  --      0.0185                 0.0337                 0.0268
 IR Inten    --      3.9847                 3.5257                 3.3639

                      7                      8                      9
                      A                      A                      A
 Frequencies --    124.9625               157.6232               169.2269
 Red. masses --      3.1478                 1.3725                 5.0726
 Frc consts  --      0.0290                 0.0201                 0.0856
 IR Inten    --      4.4712                 2.3533                 2.5093

                     10                     11                     12
                      A                      A                      A
 Frequencies --    204.0978               215.6158               253.2603
 Red. masses --      5.5984                 5.7022                 5.8722
 Frc consts  --      0.1374                 0.1562                 0.2219
 IR Inten    --      1.6332                 1.3871                12.3364

                     13                     14                     15
                      A                      A                      A
 Frequencies --    282.9486               295.6436               325.6865
 Red. masses --      4.9431                 6.5554                 5.9920
 Frc consts  --      0.2332                 0.3376                 0.3745
 IR Inten    --      4.2940                 2.6487                 2.0312

                     16                     17                     18
                      A                      A                      A
 Frequencies --    369.8254               391.5599               401.3667
 Red. masses --      5.0576                 5.3159                 4.5510
 Frc consts  --      0.4076                 0.4802                 0.4320
 IR Inten    --      4.0920                16.1286                 1.6107

                     19                     20                     21
                      A                      A                      A
 Frequencies --    421.6354               442.1214               461.0566
 Red. masses --      2.9884                 6.7820                 3.5296
 Frc consts  --      0.3130                 0.7811                 0.4421
 IR Inten    --      0.4609                12.1139                 5.1167

                     22                     23                     24
                      A                      A                      A
 Frequencies --    495.0433               498.7329               530.5305
 Red. masses --      2.9512                 5.4557                 4.1219
 Frc consts  --      0.4261                 0.7995                 0.6836
 IR Inten    --      4.3400                39.7998                34.6966

                     25                     26                     27
                      A                      A                      A
 Frequencies --    544.6692               582.5653               603.9237
 Red. masses --      3.8149                 5.2635                 4.8657
 Frc consts  --      0.6668                 1.0525                 1.0456
 IR Inten    --     21.9153                 5.4544                 4.1225

                     28                     29                     30
                      A                      A                      A
 Frequencies --    625.6590               638.6089               648.7814
 Red. masses --      6.6760                 6.3532                 6.4181
 Frc consts  --      1.5397                 1.5266                 1.5917
 IR Inten    --      3.6227                 7.6258                 1.1834

                     31                     32                     33
                      A                      A                      A
 Frequencies --    684.9102               697.5376               711.6413
 Red. masses --      5.9451                 5.4707                 1.9767
 Frc consts  --      1.6431                 1.5683                 0.5898
 IR Inten    --     11.6693                 2.2833                53.7521

                     34                     35                     36
                      A                      A                      A
 Frequencies --    738.2726               776.8223               788.1092
 Red. masses --      4.0593                 1.9239                 5.5770
 Frc consts  --      1.3036                 0.6840                 2.0409
 IR Inten    --     10.3623                51.4144                 5.5360

                     37                     38                     39
                      A                      A                      A
 Frequencies --    817.7316               833.8087               857.5127
 Red. masses --      4.9367                 1.5024                 1.2481
 Frc consts  --      1.9449                 0.6154                 0.5407
 IR Inten    --     98.3554                40.6079                 0.4327

                     40                     41                     42
                      A                      A                      A
 Frequencies --    892.9812               931.8813               935.5759
 Red. masses --      1.4193                 2.4432                 1.6948
 Frc consts  --      0.6668                 1.2501                 0.8740
 IR Inten    --     19.8344                10.7992                 2.1835

                     43                     44                     45
                      A                      A                      A
 Frequencies --    954.3529               963.3733               979.1149
 Red. masses --      3.7428                 1.3306                 1.3792
 Frc consts  --      2.0085                 0.7276                 0.7790
 IR Inten    --      1.6948                 1.2786                 1.2348

                     46                     47                     48
                      A                      A                      A
 Frequencies --    982.8505              1007.4282              1019.5901
 Red. masses --      2.5909                 1.2817                 6.1936
 Frc consts  --      1.4746                 0.7664                 3.7935
 IR Inten    --      9.9943                 0.4698                 3.5975

                     49                     50                     51
                      A                      A                      A
 Frequencies --   1022.1073              1053.7336              1082.6201
 Red. masses --      5.1035                 2.1727                 3.5424
 Frc consts  --      3.1413                 1.4214                 2.4462
 IR Inten    --     43.2020                 7.2513                20.5606

                     52                     53                     54
                      A                      A                      A
 Frequencies --   1109.0336              1118.5087              1139.3447
 Red. masses --      1.5458                 2.1826                 1.6098
 Frc consts  --      1.1202                 1.6088                 1.2312
 IR Inten    --     11.5329                12.5419                59.2380

                     55                     56                     57
                      A                      A                      A
 Frequencies --   1158.1142              1173.7490              1188.7971
 Red. masses --      1.3460                 1.4551                 1.0937
 Frc consts  --      1.0637                 1.1811                 0.9107
 IR Inten    --     13.9910                17.9659                 0.0335

                     58                     59                     60
                      A                      A                      A
 Frequencies --   1190.0533              1201.7408              1229.7210
 Red. masses --      1.8252                 1.1361                 2.2643
 Frc consts  --      1.5230                 0.9667                 2.0174
 IR Inten    --     48.9005                 1.6670                 4.4963

                     61                     62                     63
                      A                      A                      A
 Frequencies --   1288.4118              1292.8118              1302.9630
 Red. masses --      1.4714                 2.9159                 1.7961
 Frc consts  --      1.4391                 2.8714                 1.7966
 IR Inten    --     54.1602                17.0386                12.9015

                     64                     65                     66
                      A                      A                      A
 Frequencies --   1329.5477              1344.9604              1353.3131
 Red. masses --      4.2697                 2.4149                 4.1963
 Frc consts  --      4.4469                 2.5738                 4.5280
 IR Inten    --    188.4359                42.3740               310.9765

                     67                     68                     69
                      A                      A                      A
 Frequencies --   1363.7441              1366.3890              1403.5815
 Red. masses --      2.2974                 6.6771                 4.6122
 Frc consts  --      2.5174                 7.3449                 5.3534
 IR Inten    --     24.3488                18.4829               688.9129

                     70                     71                     72
                      A                      A                      A
 Frequencies --   1450.7165              1469.7344              1483.4694
 Red. masses --      4.4403                 1.1850                 1.1019
 Frc consts  --      5.5058                 1.5081                 1.4288
 IR Inten    --     23.7631                22.3189                56.8659

                     73                     74                     75
                      A                      A                      A
 Frequencies --   1498.6809              1513.1939              1534.2910
 Red. masses --      2.2537                 1.0820                 2.6492
 Frc consts  --      2.9824                 1.4598                 3.6743
 IR Inten    --      2.3875                21.6485               288.0032

                     76                     77                     78
                      A                      A                      A
 Frequencies --   1541.3469              1542.1239              1623.9991
 Red. masses --      2.2847                 1.0889                 8.3296
 Frc consts  --      3.1980                 1.5257                12.9434
 IR Inten    --     57.8623                21.9367                18.3283

                     79                     80                     81
                      A                      A                      A
 Frequencies --   1644.3483              1648.0225              1655.5423
 Red. masses --      6.3279                 6.0575                 5.7597
 Frc consts  --     10.0808                 9.6932                 9.3011
 IR Inten    --     52.0138                17.9032                11.5638

                     82                     83                     84
                      A                      A                      A
 Frequencies --   1732.7727              1756.6049              3083.9623
 Red. masses --      9.5263                11.9715                 1.0423
 Frc consts  --     16.8523                21.7644                 5.8406
 IR Inten    --    402.9794              1222.3874                51.4990

                     85                     86                     87
                      A                      A                      A
 Frequencies --   3106.7345              3166.0017              3208.8361
 Red. masses --      1.0673                 1.0945                 1.0859
 Frc consts  --      6.0693                 6.4641                 6.5874
 IR Inten    --      1.6376                22.9171                 1.3231

                     88                     89                     90
                      A                      A                      A
 Frequencies --   3209.2812              3210.6045              3214.9283
 Red. masses --      1.0992                 1.1048                 1.0888
 Frc consts  --      6.6703                 6.7099                 6.6305
 IR Inten    --      3.7497                 7.7935                 5.3217

                     91                     92                     93
                      A                      A                      A
 Frequencies --   3222.4323              3231.2025              3237.5272
 Red. masses --      1.0927                 1.0957                 1.0963
 Frc consts  --      6.6850                 6.7404                 6.7704
 IR Inten    --     36.7154                38.6349                 9.2635

                     94                     95                     96
                      A                      A                      A
 Frequencies --   3241.5306              3253.5618              3255.1388
 Red. masses --      1.0884                 1.0951                 1.0922
 Frc consts  --      6.7381                 6.8298                 6.8187
 IR Inten    --      4.0663                 4.1252                 0.9194

 - Thermochemistry -
 -------------------
 Temperature   298.150 Kelvin.  Pressure   1.00000 Atm.
 Atom     1 has atomic number  6 and mass  12.00000

 Molecular mass:   300.06656 amu.
 Principal axes and moments of inertia in atomic units:
                           1         2         3
     Eigenvalues --  5922.266756353.92737**********
           X            0.98989  -0.14170  -0.00654
           Y            0.14173   0.98989   0.00518
           Z            0.00574  -0.00606   0.99997
 This molecule is an asymmetric top.
 Rotational symmetry number  1.
 Warning -- assumption of classical behavior for rotation
           may cause significant error
 Rotational temperatures (Kelvin)      0.01463     0.01363     0.00827
 Rotational constants (GHZ):           0.30474     0.28404     0.17233
 Zero-point vibrational energy     688504.1 (Joules/Mol)
                                  164.55643 (Kcal/Mol)
 Warning -- explicit consideration of  27 degrees of freedom as
           vibrations may cause significant error
 Vibrational temperatures:     53.31    54.93    89.07    96.10   126.97
          (Kelvin)            155.73   179.79   226.78   243.48   293.65
                              310.22   364.39   407.10   425.37   468.59
                              532.10   563.37   577.48   606.64   636.11
                              663.36   712.26   717.57   763.32   783.66
                              838.18   868.91   900.18   918.82   933.45
                              985.43  1003.60  1023.89  1062.21  1117.67
                             1133.91  1176.53  1199.66  1233.77  1284.80
                             1340.77  1346.08  1373.10  1386.08  1408.73
                             1414.10  1449.46  1466.96  1470.58  1516.09
                             1557.65  1595.65  1609.28  1639.26  1666.27
                             1688.76  1710.41  1712.22  1729.04  1769.29
                             1853.74  1860.07  1874.67  1912.92  1935.10
                             1947.12  1962.12  1965.93  2019.44  2087.26
                             2114.62  2134.38  2156.27  2177.15  2207.50
                             2217.65  2218.77  2336.57  2365.85  2371.14
                             2381.96  2493.07  2527.36  4437.13  4469.90
                             4555.17  4616.80  4617.44  4619.34  4625.56
                             4636.36  4648.98  4658.08  4663.84  4681.15
                             4683.42

 Zero-point correction=                           0.262237 (Hartree/Particle)
 Thermal correction to Energy=                    0.279616
 Thermal correction to Enthalpy=                  0.280560
 Thermal correction to Gibbs Free Energy=         0.215926
 Sum of electronic and zero-point Energies=          -1337.455437
 Sum of electronic and thermal Energies=             -1337.438058
 Sum of electronic and thermal Enthalpies=           -1337.437114
 Sum of electronic and thermal Free Energies=        -1337.501748

                     E (Thermal)             CV                S
                      KCal/Mol        Cal/Mol-Kelvin    Cal/Mol-Kelvin
 Total                  175.462             67.550            136.035
 Electronic               0.000              0.000              0.000
 Translational            0.889              2.981             42.993
 Rotational               0.889              2.981             34.332
 Vibrational            173.684             61.589             58.710
 Vibration     1          0.594              1.982              5.411
 Vibration     2          0.594              1.982              5.351
 Vibration     3          0.597              1.972              4.395
 Vibration     4          0.598              1.970              4.246
 Vibration     5          0.601              1.957              3.699
 Vibration     6          0.606              1.943              3.300
 Vibration     7          0.610              1.928              3.022
 Vibration     8          0.621              1.894              2.578
 Vibration     9          0.625              1.880              2.444
 Vibration    10          0.640              1.834              2.096
 Vibration    11          0.645              1.817              1.996
 Vibration    12          0.664              1.757              1.708
 Vibration    13          0.682              1.705              1.516
 Vibration    14          0.690              1.682              1.441
 Vibration    15          0.710              1.624              1.281
 Vibration    16          0.742              1.534              1.081
 Vibration    17          0.759              1.488              0.994
 Vibration    18          0.767              1.467              0.958
 Vibration    19          0.784              1.423              0.886
 Vibration    20          0.802              1.378              0.820
 Vibration    21          0.819              1.336              0.763
 Vibration    22          0.851              1.261              0.671
 Vibration    23          0.854              1.253              0.661
 Vibration    24          0.885              1.182              0.586
 Vibration    25          0.900              1.151              0.555
 Vibration    26          0.939              1.069              0.481
 Vibration    27          0.962              1.023              0.443

 Optimization completed.
    -- Stationary point found.
 Normal termination of Gaussian 16 at Tue Mar  1 22:04:17 2022.

 ------------------------------------------
 #p b3lyp/6-31G(d) geom=allcheck guess=read
 ------------------------------------------

 Structure from the checkpoint file:  "104.n.pdb.xyz.mst.wat.chk"
 -------------
 104.n.pdb.xyz
 -------------
 Charge =  0 Multiplicity = 1

 SCF Done:  E(RB3LYP) =  -1337.70219194     A.U. after   12 cycles
 Normal termination of Gaussian 16 at Tue Mar  1 22:07:56 2022.
 Gaussian 16:  ES64L-G16RevA.03 25-Dec-2016

 ----------------------------------------------------------------------
 #p b3lyp/6-31G(d) scrf=(iefpcm,read,solvent=water) geom=allcheck guess
 =read
 ----------------------------------------------------------------------

 Structure from the checkpoint file:  "104.n.pdb.xyz.mst.wat.chk"
 -------------
 104.n.pdb.xyz
 -------------
 Charge =  0 Multiplicity = 1

                         Standard orientation:
 ---------------------------------------------------------------------
 Center     Atomic      Atomic             Coordinates (Angstroms)
 Number     Number       Type             X           Y           Z
 ---------------------------------------------------------------------
      1          6           0       -3.339262   -0.709042    1.738618
      2          7           0       -2.435301   -0.745344    0.583179
      3          6           0       -1.696153    0.420851    0.262152
      4          6           0       -0.361910    0.375336   -0.194766
      5          6           0        0.317062    1.573592   -0.458736
      6          6           0       -0.309007    2.791466   -0.247294
      7         17           0        0.572657    4.277290   -0.574025
      8          6           0       -1.622321    2.858867    0.213425
      9          6           0       -2.300865    1.672419    0.453233
     10          7           0        0.355083   -0.842444   -0.365731
     11          6           0        1.729563   -0.884921    0.066970
     12          6           0        2.759724   -1.050992   -0.861413
     13          6           0        4.083365   -1.082320   -0.423046
     14          6           0        4.378504   -0.940107    0.934632
     15          6           0        3.344250   -0.769951    1.857143
     16          6           0        2.017704   -0.746314    1.426425
     17          6           0       -0.174825   -1.945395   -1.008898
     18          8           0        0.456472   -2.983503   -1.163076
     19          6           0       -1.611449   -1.792102   -1.467899
     20          6           0       -2.526748   -1.827441   -0.258720
     21          8           0       -3.270703   -2.776660   -0.029851
     22          1           0       -2.869918   -0.141425    2.541188
     23          1           0       -4.301494   -0.254163    1.485110
     24          1           0       -3.512685   -1.734560    2.057664
     25          1           0        1.339027    1.533419   -0.810696
     26          1           0       -2.105299    3.814063    0.374340
     27          1           0       -3.324691    1.709440    0.803441
     28          1           0        2.524109   -1.154917   -1.913762
     29          1           0        4.883031   -1.211787   -1.144480
     30          1           0        5.409250   -0.960957    1.271557
     31          1           0        3.567016   -0.661346    2.912783
     32          1           0        1.207170   -0.621715    2.136567
     33          1           0       -1.857626   -2.638689   -2.102363
     34          1           0       -1.743476   -0.859174   -2.022575
 ---------------------------------------------------------------------

 SCF Done:  E(RB3LYP) =  -1337.71653218     A.U. after   11 cycles

 The electronic state is 1-A.
 Alpha  occ. eigenvalues -- -101.55882 -19.13590 -19.13316 -14.39592 -14.39053
 Alpha  occ. eigenvalues --  -10.31138 -10.30712 -10.26305 -10.25886 -10.25448
 Alpha  occ. eigenvalues --  -10.23969 -10.21977 -10.21495 -10.21258 -10.21196
 Alpha  occ. eigenvalues --  -10.20846 -10.20104 -10.20046 -10.19866 -10.19850
 Alpha  occ. eigenvalues --  -10.19734  -9.47506  -7.23898  -7.22938  -7.22904
 Alpha  occ. eigenvalues --   -1.06047  -1.05048  -0.98018  -0.95444  -0.89851
 Alpha  occ. eigenvalues --   -0.86141  -0.84087  -0.79358  -0.77354  -0.75596
 Alpha  occ. eigenvalues --   -0.75414  -0.74283  -0.70323  -0.65789  -0.64252
 Alpha  occ. eigenvalues --   -0.62347  -0.61449  -0.59326  -0.56311  -0.53919
 Alpha  occ. eigenvalues --   -0.52698  -0.51229  -0.50519  -0.49338  -0.48325
 Alpha  occ. eigenvalues --   -0.47434  -0.46675  -0.45798  -0.45081  -0.44715
 Alpha  occ. eigenvalues --   -0.43562  -0.42987  -0.42727  -0.41521  -0.41116
 Alpha  occ. eigenvalues --   -0.40393  -0.39683  -0.39443  -0.38505  -0.37671
 Alpha  occ. eigenvalues --   -0.37392  -0.36273  -0.35782  -0.35232  -0.32388
 Alpha  occ. eigenvalues --   -0.30751  -0.29144  -0.28181  -0.27576  -0.26734
 Alpha  occ. eigenvalues --   -0.25916  -0.24223  -0.22912
 Alpha virt. eigenvalues --   -0.03478  -0.03063  -0.01709  -0.00902   0.00446
 Alpha virt. eigenvalues --    0.02124   0.03455   0.09036   0.10549   0.11756
 Alpha virt. eigenvalues --    0.12556   0.13365   0.13690   0.14472   0.14893

 Mulliken charges:
               1
     1  C   -0.335083
     2  N   -0.502711
     3  C    0.290773
     4  C    0.281865
     5  C   -0.169275
     6  C   -0.077751
     7  Cl  -0.030868
     8  C   -0.142492
     9  C   -0.175278
    10  N   -0.592940
    11  C    0.234132
    12  C   -0.140628
    13  C   -0.160797
    14  C   -0.133730
    15  C   -0.158235
    16  C   -0.143446
    17  C    0.587177
    18  O   -0.546149
    19  C   -0.463287
    20  C    0.588941
    21  O   -0.554387
    22  H    0.186470
    23  H    0.186573
    24  H    0.194370
    25  H    0.187501
    26  H    0.181821
    27  H    0.182737
    28  H    0.162901
    29  H    0.160269
    30  H    0.157448
    31  H    0.160427
    32  H    0.161773
    33  H    0.199379
    34  H    0.222503
 Sum of Mulliken charges =  -0.00000

 Dipole moment (field-independent basis, Debye):
    X=             -0.0774    Y=              5.8794    Z=              1.9434  Tot=              6.1927
 Quadrupole moment (field-independent basis, Debye-Ang):
   XX=           -113.4469   YY=           -157.2628   ZZ=           -116.0559
   XY=            -15.0776   XZ=             -2.2718   YZ=             -1.1029

 Normal termination of Gaussian 16 at Tue Mar  1 22:11:59 2022.
