 Gaussian 16, Revision A.03,

 ----------------------------------------------------------------------
 #p b3lyp/6-31G(d) opt=(MaxStep=10,MaxCycles=1000) freq scf=(MaxCycle=2
 000,NoVarAcc,NoIncFock) scrf=(iefpcm,read,solvent=water)
 ----------------------------------------------------------------------

 -------------
 105.n.pdb.xyz
 -------------
 Symbolic Z-matrix:
 Charge =  0 Multiplicity = 1

 SCF Done:  E(RB3LYP) =  -1298.40261218     A.U. after   13 cycles
 SCF Done:  E(RB3LYP) =  -1298.40879250     A.U. after   11 cycles
 SCF Done:  E(RB3LYP) =  -1298.41257734     A.U. after   12 cycles
 SCF Done:  E(RB3LYP) =  -1298.41409937     A.U. after   11 cycles
 SCF Done:  E(RB3LYP) =  -1298.41458289     A.U. after   10 cycles
 SCF Done:  E(RB3LYP) =  -1298.41461495     A.U. after   10 cycles
 SCF Done:  E(RB3LYP) =  -1298.41464021     A.U. after    9 cycles
 SCF Done:  E(RB3LYP) =  -1298.41463605     A.U. after    9 cycles
 SCF Done:  E(RB3LYP) =  -1298.41462329     A.U. after   10 cycles
 SCF Done:  E(RB3LYP) =  -1298.41463769     A.U. after   10 cycles
 SCF Done:  E(RB3LYP) =  -1298.41463894     A.U. after    9 cycles
 SCF Done:  E(RB3LYP) =  -1298.41464400     A.U. after   10 cycles
 SCF Done:  E(RB3LYP) =  -1298.41464082     A.U. after    8 cycles
 SCF Done:  E(RB3LYP) =  -1298.41464084     A.U. after    8 cycles
 SCF Done:  E(RB3LYP) =  -1298.41464093     A.U. after    7 cycles
 SCF Done:  E(RB3LYP) =  -1298.41464092     A.U. after    6 cycles
 Optimization completed.
    -- Stationary point found.
 Normal termination of Gaussian 16 at Tue Mar  1 21:51:49 2022.

 --------------------------------------------------------------------
 #P Geom=AllCheck Guess=TCheck SCRF=Check GenChk RB3LYP/6-31G(d) Freq
 --------------------------------------------------------------------

 Structure from the checkpoint file:  "105.n.pdb.xyz.mst.wat.chk"
 -------------
 105.n.pdb.xyz
 -------------
 Charge =  0 Multiplicity = 1

 SCF Done:  E(RB3LYP) =  -1298.41464092     A.U. after    1 cycles

  Exact polarizability: 274.652 -13.432 291.496  33.251   1.354 186.452
 Approx polarizability: 306.251 -12.791 329.867  42.730  -0.801 223.558

                      1                      2                      3
                      A                      A                      A
 Frequencies --     35.4908                38.7828                62.4648
 Red. masses --      4.3346                 5.9857                 7.6969
 Frc consts  --      0.0032                 0.0053                 0.0177
 IR Inten    --      0.3578                 2.6314                 0.8249

                      4                      5                      6
                      A                      A                      A
 Frequencies --     68.6873                89.1914               127.5173
 Red. masses --      8.1726                 7.0697                 8.6352
 Frc consts  --      0.0227                 0.0331                 0.0827
 IR Inten    --      3.9633                 1.8140                 3.5194

                      7                      8                      9
                      A                      A                      A
 Frequencies --    147.7395               190.1897               211.2008
 Red. masses --      5.4785                 7.4974                 5.9477
 Frc consts  --      0.0705                 0.1598                 0.1563
 IR Inten    --      8.7886                 1.2138                 0.4327

                     10                     11                     12
                      A                      A                      A
 Frequencies --    242.6878               284.2274               317.9083
 Red. masses --      6.6813                 5.2269                 7.7465
 Frc consts  --      0.2318                 0.2488                 0.4613
 IR Inten    --      6.1803                 6.8283                 2.3098

                     13                     14                     15
                      A                      A                      A
 Frequencies --    323.5251               371.0603               396.1196
 Red. masses --      8.3315                 5.6622                 6.1023
 Frc consts  --      0.5138                 0.4593                 0.5642
 IR Inten    --      5.3620                 1.1877                 6.2990

                     16                     17                     18
                      A                      A                      A
 Frequencies --    421.3519               438.7577               455.0908
 Red. masses --      2.9802                 3.9445                 4.9383
 Frc consts  --      0.3117                 0.4474                 0.6026
 IR Inten    --      0.2860                 8.3490                 8.2565

                     19                     20                     21
                      A                      A                      A
 Frequencies --    485.4502               490.2580               520.3023
 Red. masses --      4.8006                 3.4149                 4.1091
 Frc consts  --      0.6665                 0.4836                 0.6554
 IR Inten    --     24.9948                16.0091                27.5656

                     22                     23                     24
                      A                      A                      A
 Frequencies --    549.6309               563.2661               591.1944
 Red. masses --      3.5533                 2.7434                 3.3237
 Frc consts  --      0.6324                 0.5128                 0.6844
 IR Inten    --     23.7397                32.0716                39.3011

                     25                     26                     27
                      A                      A                      A
 Frequencies --    614.0816               631.3563               647.6958
 Red. masses --      2.8032                 5.4852                 5.7193
 Frc consts  --      0.6228                 1.2882                 1.4136
 IR Inten    --     90.8424                 8.7201                 9.2460

                     28                     29                     30
                      A                      A                      A
 Frequencies --    659.7383               694.9675               707.7871
 Red. masses --      3.2219                 6.1847                 2.4183
 Frc consts  --      0.8262                 1.7599                 0.7138
 IR Inten    --     46.5165                 8.8784                10.6033

                     31                     32                     33
                      A                      A                      A
 Frequencies --    722.2658               738.5472               778.5294
 Red. masses --      3.4463                 4.7461                 2.0449
 Frc consts  --      1.0592                 1.5253                 0.7302
 IR Inten    --     75.5518                47.8828                18.2961

                     34                     35                     36
                      A                      A                      A
 Frequencies --    786.2008               830.1249               855.1878
 Red. masses --      4.5369                 1.4961                 1.2495
 Frc consts  --      1.6523                 0.6074                 0.5384
 IR Inten    --      5.0388                45.6199                 0.3479

                     37                     38                     39
                      A                      A                      A
 Frequencies --    887.0992               896.4822               924.9264
 Red. masses --      5.0025                 1.4301                 3.3629
 Frc consts  --      2.3194                 0.6772                 1.6951
 IR Inten    --     62.3315                20.2248                11.9737

                     40                     41                     42
                      A                      A                      A
 Frequencies --    933.7518               953.5732               961.4168
 Red. masses --      1.4504                 4.9592                 1.3322
 Frc consts  --      0.7451                 2.6569                 0.7255
 IR Inten    --      1.0763                10.8463                 0.7937

                     43                     44                     45
                      A                      A                      A
 Frequencies --    977.9764               993.7450              1007.6477
 Red. masses --      1.3511                 2.4670                 1.2800
 Frc consts  --      0.7614                 1.4354                 0.7658
 IR Inten    --      0.2283                26.4931                 0.3198

                     46                     47                     48
                      A                      A                      A
 Frequencies --   1019.9851              1022.9353              1055.1405
 Red. masses --      6.2439                 5.0998                 2.1068
 Frc consts  --      3.8273                 3.1441                 1.3819
 IR Inten    --      3.3693                36.7120                 8.2092

                     49                     50                     51
                      A                      A                      A
 Frequencies --   1109.5691              1116.4307              1149.8373
 Red. masses --      1.5294                 2.0625                 1.4005
 Frc consts  --      1.1094                 1.5146                 1.0910
 IR Inten    --     11.4544                42.6429                 9.0918

                     52                     53                     54
                      A                      A                      A
 Frequencies --   1161.5869              1190.9727              1201.9769
 Red. masses --      1.4869                 1.0947                 1.1352
 Frc consts  --      1.1821                 0.9149                 0.9663
 IR Inten    --     17.4127                 0.0085                 0.2986

                     55                     56                     57
                      A                      A                      A
 Frequencies --   1225.4940              1262.8549              1275.8090
 Red. masses --      2.5471                 2.8361                 1.4961
 Frc consts  --      2.2538                 2.6648                 1.4348
 IR Inten    --      9.7666                43.6348                34.4526

                     58                     59                     60
                      A                      A                      A
 Frequencies --   1291.2039              1305.6960              1336.3343
 Red. masses --      1.9990                 2.3336                 3.8411
 Frc consts  --      1.9636                 2.3440                 4.0414
 IR Inten    --     11.2210                56.5303               151.4764

                     61                     62                     63
                      A                      A                      A
 Frequencies --   1344.6725              1362.5463              1364.9105
 Red. masses --      2.4381                 2.2963                 7.4281
 Frc consts  --      2.5974                 2.5118                 8.1533
 IR Inten    --      1.3353                24.2039                94.0600

                     64                     65                     66
                      A                      A                      A
 Frequencies --   1383.1495              1430.7196              1478.4680
 Red. masses --      4.0319                 3.2133                 1.1047
 Frc consts  --      4.5446                 3.8753                 1.4228
 IR Inten    --    751.2998               166.1203                53.3995

                     67                     68                     69
                      A                      A                      A
 Frequencies --   1498.5887              1509.0155              1532.5054
 Red. masses --      2.2245                 2.1376                 2.9395
 Frc consts  --      2.9434                 2.8679                 4.0674
 IR Inten    --      4.4931                32.6541               311.4476

                     70                     71                     72
                      A                      A                      A
 Frequencies --   1541.7431              1630.0378              1646.4628
 Red. masses --      2.2865                 7.0978                 6.1213
 Frc consts  --      3.2022                11.1114                 9.7769
 IR Inten    --     55.5502                 6.6972                27.4733

                     73                     74                     75
                      A                      A                      A
 Frequencies --   1648.2566              1656.2162              1738.6094
 Red. masses --      6.2666                 5.7836                 9.5626
 Frc consts  --     10.0306                 9.3472                17.0306
 IR Inten    --     42.3559                12.5041               435.2736

                     76                     77                     78
                      A                      A                      A
 Frequencies --   1766.9364              3098.8250              3196.9305
 Red. masses --      9.3530                 1.0663                 1.1000
 Frc consts  --     17.2046                 6.0330                 6.6240
 IR Inten    --   1374.6283                 1.8824                 4.7897

                     79                     80                     81
                      A                      A                      A
 Frequencies --   3207.0866              3215.2750              3223.6023
 Red. masses --      1.0858                 1.0889                 1.0925
 Frc consts  --      6.5800                 6.6322                 6.6888
 IR Inten    --      0.1753                10.4423                39.0580

                     82                     83                     84
                      A                      A                      A
 Frequencies --   3224.0421              3231.0379              3236.7464
 Red. masses --      1.0895                 1.0954                 1.0965
 Frc consts  --      6.6722                 6.7377                 6.7681
 IR Inten    --      7.2223                31.5781                 8.3662

                     85                     86                     87
                      A                      A                      A
 Frequencies --   3243.4335              3254.8872              3570.1570
 Red. masses --      1.0949                 1.0917                 1.0772
 Frc consts  --      6.7864                 6.8141                 8.0896
 IR Inten    --      4.3042                 0.2369               139.4503

 - Thermochemistry -
 -------------------
 Temperature   298.150 Kelvin.  Pressure   1.00000 Atm.
 Atom     1 has atomic number 17 and mass  34.96885

 Molecular mass:   286.05091 amu.
 Principal axes and moments of inertia in atomic units:
                           1         2         3
     Eigenvalues --  5536.288105702.262079885.41497
           X            0.63609   0.77161   0.00198
           Y            0.77157  -0.63608   0.00903
           Z           -0.00823   0.00422   0.99996
 This molecule is an asymmetric top.
 Rotational symmetry number  1.
 Warning -- assumption of classical behavior for rotation
           may cause significant error
 Rotational temperatures (Kelvin)      0.01564     0.01519     0.00876
 Rotational constants (GHZ):           0.32598     0.31650     0.18257
 Zero-point vibrational energy     613599.9 (Joules/Mol)
                                  146.65388 (Kcal/Mol)
 Warning -- explicit consideration of  25 degrees of freedom as
           vibrations may cause significant error
 Vibrational temperatures:     51.06    55.80    89.87    98.83   128.33
          (Kelvin)            183.47   212.56   273.64   303.87   349.17
                              408.94   457.40   465.48   533.87   569.93
                              606.23   631.27   654.77   698.45   705.37
                              748.60   790.80   810.41   850.60   883.53
                              908.38   931.89   949.22   999.90  1018.35
                             1039.18  1062.60  1120.13  1131.17  1194.36
                             1230.42  1276.34  1289.84  1330.76  1343.46
                             1371.98  1383.26  1407.09  1429.78  1449.78
                             1467.53  1471.78  1518.11  1596.42  1606.29
                             1654.36  1671.26  1713.54  1729.38  1763.21
                             1816.97  1835.60  1857.75  1878.61  1922.69
                             1934.68  1960.40  1963.80  1990.04  2058.49
                             2127.19  2156.13  2171.14  2204.93  2218.22
                             2345.26  2368.89  2371.47  2382.93  2501.47
                             2542.23  4458.52  4599.67  4614.28  4626.06
                             4638.04  4638.68  4648.74  4656.96  4666.58
                             4683.06  5136.66

 Zero-point correction=                           0.233708 (Hartree/Particle)
 Thermal correction to Energy=                    0.249556
 Thermal correction to Enthalpy=                  0.250501
 Thermal correction to Gibbs Free Energy=         0.189021
 Sum of electronic and zero-point Energies=          -1298.180933
 Sum of electronic and thermal Energies=             -1298.165084
 Sum of electronic and thermal Enthalpies=           -1298.164140
 Sum of electronic and thermal Free Energies=        -1298.225620

                     E (Thermal)             CV                S
                      KCal/Mol        Cal/Mol-Kelvin    Cal/Mol-Kelvin
 Total                  156.599             62.366            129.395
 Electronic               0.000              0.000              0.000
 Translational            0.889              2.981             42.851
 Rotational               0.889              2.981             34.100
 Vibrational            154.822             56.404             52.444
 Vibration     1          0.594              1.982              5.496
 Vibration     2          0.594              1.981              5.320
 Vibration     3          0.597              1.972              4.378
 Vibration     4          0.598              1.969              4.191
 Vibration     5          0.602              1.957              3.678
 Vibration     6          0.611              1.926              2.983
 Vibration     7          0.617              1.905              2.701
 Vibration     8          0.634              1.853              2.226
 Vibration     9          0.643              1.824              2.033
 Vibration    10          0.659              1.775              1.783
 Vibration    11          0.683              1.703              1.508
 Vibration    12          0.704              1.639              1.321
 Vibration    13          0.708              1.628              1.292
 Vibration    14          0.743              1.532              1.075
 Vibration    15          0.763              1.478              0.977
 Vibration    16          0.784              1.424              0.887
 Vibration    17          0.799              1.386              0.831
 Vibration    18          0.813              1.350              0.781
 Vibration    19          0.842              1.282              0.696
 Vibration    20          0.846              1.272              0.683
 Vibration    21          0.875              1.205              0.609
 Vibration    22          0.905              1.140              0.545
 Vibration    23          0.919              1.111              0.517
 Vibration    24          0.949              1.051              0.465
 Vibration    25          0.973              1.002              0.426

                           ! Non-Optimized Parameters !
 Normal termination of Gaussian 16 at Tue Mar  1 22:30:51 2022.

 ------------------------------------------
 #p b3lyp/6-31G(d) geom=allcheck guess=read
 ------------------------------------------

 Structure from the checkpoint file:  "105.n.pdb.xyz.mst.wat.chk"
 -------------
 105.n.pdb.xyz
 -------------
 Charge =  0 Multiplicity = 1

 SCF Done:  E(RB3LYP) =  -1298.39340542     A.U. after   12 cycles
 Normal termination of Gaussian 16 at Tue Mar  1 22:33:46 2022.
 Gaussian 16:  ES64L-G16RevA.03 25-Dec-2016

 ----------------------------------------------------------------------
 #p b3lyp/6-31G(d) scrf=(iefpcm,read,solvent=water) geom=allcheck guess
 =read
 ----------------------------------------------------------------------

 Structure from the checkpoint file:  "105.n.pdb.xyz.mst.wat.chk"
 -------------
 105.n.pdb.xyz
 -------------
 Charge =  0 Multiplicity = 1

                         Standard orientation:
 ---------------------------------------------------------------------
 Center     Atomic      Atomic             Coordinates (Angstroms)
 Number     Number       Type             X           Y           Z
 ---------------------------------------------------------------------
      1         17           0        1.543436    3.955053   -0.582383
      2          6           0        1.658981    2.253913   -0.157599
      3          6           0        0.586365    1.418667   -0.423143
      4          6           0        0.649079    0.058831   -0.083316
      5          6           0        1.830140   -0.451754    0.493748
      6          7           0        1.967136   -1.800517    0.870892
      7          6           0        1.625045   -2.890887    0.116770
      8          8           0        1.896143   -4.034990    0.463509
      9          6           0        0.864507   -2.562785   -1.157379
     10          6           0       -0.505590   -2.011344   -0.808421
     11          8           0       -1.529266   -2.668360   -0.953935
     12          7           0       -0.518536   -0.732749   -0.282163
     13          6           0       -1.794331   -0.140287    0.040250
     14          6           0       -2.085518    0.160805    1.372169
     15          6           0       -3.308705    0.746856    1.696206
     16          6           0       -4.241093    1.024610    0.694683
     17          6           0       -3.945098    0.718071   -0.635545
     18          6           0       -2.720408    0.138706   -0.967455
     19          6           0        2.900182    0.420882    0.742192
     20          6           0        2.824601    1.772048    0.435873
     21          1           0       -0.316181    1.810094   -0.872800
     22          1           0        2.584980   -1.998302    1.653281
     23          1           0        0.729542   -3.479196   -1.727625
     24          1           0        1.429591   -1.833855   -1.745714
     25          1           0       -1.358031   -0.064636    2.143997
     26          1           0       -3.533425    0.980366    2.731568
     27          1           0       -5.193115    1.478395    0.948936
     28          1           0       -4.664468    0.934364   -1.418257
     29          1           0       -2.481544   -0.096897   -1.997814
     30          1           0        3.803590    0.021352    1.189397
     31          1           0        3.656472    2.434085    0.643622
 ---------------------------------------------------------------------

 SCF Done:  E(RB3LYP) =  -1298.41313637     A.U. after   11 cycles

 The electronic state is 1-A.
 Alpha  occ. eigenvalues -- -101.55820 -19.13486 -19.13288 -14.39557 -14.38141
 Alpha  occ. eigenvalues --  -10.31122 -10.30991 -10.26175 -10.25805 -10.25536
 Alpha  occ. eigenvalues --  -10.23923 -10.21432 -10.21208 -10.21144 -10.20898
 Alpha  occ. eigenvalues --  -10.20066 -10.20035 -10.19857 -10.19843 -10.19736
 Alpha  occ. eigenvalues --   -9.47447  -7.23838  -7.22879  -7.22846  -1.05913
 Alpha  occ. eigenvalues --   -1.04901  -0.97766  -0.94666  -0.89757  -0.86050
 Alpha  occ. eigenvalues --   -0.83959  -0.78675  -0.77283  -0.75575  -0.75324
 Alpha  occ. eigenvalues --   -0.73185  -0.65996  -0.64349  -0.62217  -0.61658
 Alpha  occ. eigenvalues --   -0.60533  -0.57110  -0.55183  -0.53113  -0.51107
 Alpha  occ. eigenvalues --   -0.50140  -0.49130  -0.48668  -0.47641  -0.46417
 Alpha  occ. eigenvalues --   -0.45328  -0.44883  -0.44067  -0.43045  -0.42765
 Alpha  occ. eigenvalues --   -0.41418  -0.41134  -0.40835  -0.39737  -0.39020
 Alpha  occ. eigenvalues --   -0.38142  -0.37396  -0.36282  -0.35817  -0.35381
 Alpha  occ. eigenvalues --   -0.32342  -0.30893  -0.29938  -0.28140  -0.27441
 Alpha  occ. eigenvalues --   -0.26656  -0.25918  -0.24329  -0.22878
 Alpha virt. eigenvalues --   -0.03383  -0.02974  -0.01604  -0.00893   0.00603
 Alpha virt. eigenvalues --    0.02177   0.03593   0.09138   0.10529   0.11827
 Alpha virt. eigenvalues --    0.13213   0.13317   0.14270   0.14705   0.15002

 Mulliken charges:
               1
     1  Cl  -0.032633
     2  C   -0.079079
     3  C   -0.171105
     4  C    0.281576
     5  C    0.317489
     6  N   -0.679150
     7  C    0.584573
     8  O   -0.550232
     9  C   -0.461804
    10  C    0.587331
    11  O   -0.545582
    12  N   -0.596525
    13  C    0.233175
    14  C   -0.142939
    15  C   -0.158592
    16  C   -0.133539
    17  C   -0.161356
    18  C   -0.138954
    19  C   -0.179503
    20  C   -0.141095
    21  H    0.186262
    22  H    0.395739
    23  H    0.199429
    24  H    0.220920
    25  H    0.162502
    26  H    0.160292
    27  H    0.157437
    28  H    0.160123
    29  H    0.162512
    30  H    0.181552
    31  H    0.181176
 Sum of Mulliken charges =  -0.00000

 Dipole moment (field-independent basis, Debye):
    X=              2.5821    Y=              5.3082    Z=              1.3916  Tot=              6.0647
 Quadrupole moment (field-independent basis, Debye-Ang):
   XX=           -103.5615   YY=           -156.3212   ZZ=           -110.0084
   XY=             -7.2848   XZ=              2.7090   YZ=              1.9149

 Normal termination of Gaussian 16 at Tue Mar  1 22:37:01 2022.
