 Gaussian 16, Revision A.03,

 ----------------------------------------------------------------------
 #p b3lyp/6-31G(d) opt=(MaxStep=10,MaxCycles=1000) freq scf=(MaxCycle=2
 000,NoVarAcc,NoIncFock) scrf=(iefpcm,read,solvent=water)
 ----------------------------------------------------------------------

 -------------
 106.n.pdb.xyz
 -------------
 Symbolic Z-matrix:
 Charge =  0 Multiplicity = 1

 SCF Done:  E(RB3LYP) =  -3447.55311295     A.U. after   12 cycles
 SCF Done:  E(RB3LYP) =  -3447.55481713     A.U. after   10 cycles
 SCF Done:  E(RB3LYP) =  -3447.55490682     A.U. after    9 cycles
 SCF Done:  E(RB3LYP) =  -3447.55493206     A.U. after    9 cycles
 SCF Done:  E(RB3LYP) =  -3447.55494081     A.U. after    9 cycles
 SCF Done:  E(RB3LYP) =  -3447.55494558     A.U. after    8 cycles
 SCF Done:  E(RB3LYP) =  -3447.55494957     A.U. after    8 cycles
 SCF Done:  E(RB3LYP) =  -3447.55495170     A.U. after    8 cycles
 Optimization completed.
    -- Stationary point found.
 Normal termination of Gaussian 16 at Wed Mar  2 00:06:52 2022.

 --------------------------------------------------------------------
 #P Geom=AllCheck Guess=TCheck SCRF=Check GenChk RB3LYP/6-31G(d) Freq
 --------------------------------------------------------------------

 Structure from the checkpoint file:  "106.n.pdb.xyz.mst.wat.chk"
 -------------
 106.n.pdb.xyz
 -------------
 Charge =  0 Multiplicity = 1

 SCF Done:  E(RB3LYP) =  -3447.55495170     A.U. after    1 cycles

  Exact polarizability:  81.423  -8.001  80.333  -0.132  -0.947  56.312
 Approx polarizability:  92.871 -10.925  96.659  -1.291  -1.994  68.857

                      1                      2                      3
                      A                      A                      A
 Frequencies --     20.7888                91.8779               131.1967
 Red. masses --     17.6835                 7.1714                11.4005
 Frc consts  --      0.0045                 0.0357                 0.1156
 IR Inten    --      0.5989                 3.5647                 4.4333

                      4                      5                      6
                      A                      A                      A
 Frequencies --    193.3789               216.8648               284.4217
 Red. masses --     15.7962                22.2150                16.8775
 Frc consts  --      0.3480                 0.6156                 0.8044
 IR Inten    --      0.3494                 1.8656                 0.4277

                      7                      8                      9
                      A                      A                      A
 Frequencies --    358.5177               425.7455               525.0602
 Red. masses --      3.8298                 3.5225                 6.7556
 Frc consts  --      0.2900                 0.3762                 1.0973
 IR Inten    --      2.2080                10.8894                 4.0189

                     10                     11                     12
                      A                      A                      A
 Frequencies --    536.5669               591.1196               660.2938
 Red. masses --     10.1616                 8.3156                 5.8641
 Frc consts  --      1.7237                 1.7120                 1.5063
 IR Inten    --      0.5606               122.3830               114.1145

                     13                     14                     15
                      A                      A                      A
 Frequencies --    712.0613               848.8399               940.2047
 Red. masses --      6.9159                 6.2297                 2.1904
 Frc consts  --      2.0660                 2.6446                 1.1408
 IR Inten    --     25.2921                 7.8865                12.7516

                     16                     17                     18
                      A                      A                      A
 Frequencies --   1072.2899              1128.3503              1165.1179
 Red. masses --      3.6469                 2.1128                 4.1658
 Frc consts  --      2.4706                 1.5848                 3.3319
 IR Inten    --     60.9928               179.5072               306.2845

                     19                     20                     21
                      A                      A                      A
 Frequencies --   1217.9244              1258.6346              1287.9285
 Red. masses --      1.2468                 2.8484                 2.0589
 Frc consts  --      1.0897                 2.6586                 2.0122
 IR Inten    --     96.7270               229.0257               228.9105

                     22                     23                     24
                      A                      A                      A
 Frequencies --   1349.3726              1414.4175              1481.5944
 Red. masses --      1.2487                 1.7563                 1.0936
 Frc consts  --      1.3396                 2.0702                 1.4144
 IR Inten    --     19.3549               119.4108                15.7016

                     25                     26                     27
                      A                      A                      A
 Frequencies --   3112.3880              3164.9378              3223.9846
 Red. masses --      1.0611                 1.1059                 1.0882
 Frc consts  --      6.0559                 6.5269                 6.6641
 IR Inten    --      0.9250                 0.7750                 0.6644

 - Thermochemistry -
 -------------------
 Temperature   298.150 Kelvin.  Pressure   1.00000 Atm.
 Atom     1 has atomic number  9 and mass  18.99840

 Molecular mass:   209.90587 amu.
 Principal axes and moments of inertia in atomic units:
                           1         2         3
     Eigenvalues --   939.686213084.438793662.13950
           X            0.99990   0.01402   0.00270
           Y           -0.01404   0.99986   0.00895
           Z           -0.00258  -0.00898   0.99996
 This molecule is an asymmetric top.
 Rotational symmetry number  1.
 Warning -- assumption of classical behavior for rotation
           may cause significant error
 Rotational temperatures (Kelvin)      0.09217     0.02808     0.02365
 Rotational constants (GHZ):           1.92058     0.58511     0.49281
 Zero-point vibrational energy     163971.4 (Joules/Mol)
                                   39.19011 (Kcal/Mol)
 Warning -- explicit consideration of  11 degrees of freedom as
           vibrations may cause significant error
 Vibrational temperatures:     29.91   132.19   188.76   278.23   312.02
          (Kelvin)            409.22   515.83   612.55   755.44   772.00
                              850.49   950.02  1024.50  1221.29  1352.74
                             1542.79  1623.44  1676.34  1752.32  1810.89
                             1853.04  1941.45  2035.03  2131.68  4478.03
                             4553.64  4638.59

 Zero-point correction=                           0.062453 (Hartree/Particle)
 Thermal correction to Energy=                    0.070844
 Thermal correction to Enthalpy=                  0.071788
 Thermal correction to Gibbs Free Energy=         0.026003
 Sum of electronic and zero-point Energies=          -3447.492498
 Sum of electronic and thermal Energies=             -3447.484108
 Sum of electronic and thermal Enthalpies=           -3447.483164
 Sum of electronic and thermal Free Energies=        -3447.528949

                     E (Thermal)             CV                S
                      KCal/Mol        Cal/Mol-Kelvin    Cal/Mol-Kelvin
 Total                   44.455             27.926             96.362
 Electronic               0.000              0.000              0.000
 Translational            0.889              2.981             41.928
 Rotational               0.889              2.981             30.741
 Vibrational             42.678             21.964             23.694
 Vibration     1          0.593              1.986              6.557
 Vibration     2          0.602              1.955              3.620
 Vibration     3          0.612              1.922              2.928
 Vibration     4          0.635              1.849              2.195
 Vibration     5          0.646              1.815              1.985
 Vibration     6          0.683              1.703              1.507
 Vibration     7          0.733              1.558              1.129
 Vibration     8          0.788              1.414              0.873
 Vibration     9          0.880              1.195              0.598
 Vibration    10          0.892              1.169              0.573
 Vibration    11          0.949              1.051              0.465

 Optimization completed.
    -- Stationary point found.
 Normal termination of Gaussian 16 at Wed Mar  2 00:10:00 2022.

 ------------------------------------------
 #p b3lyp/6-31G(d) geom=allcheck guess=read
 ------------------------------------------

 Structure from the checkpoint file:  "106.n.pdb.xyz.mst.wat.chk"
 -------------
 106.n.pdb.xyz
 -------------
 Charge =  0 Multiplicity = 1

 SCF Done:  E(RB3LYP) =  -3447.55576105     A.U. after   10 cycles
 Normal termination of Gaussian 16 at Wed Mar  2 00:10:19 2022.
 Gaussian 16:  ES64L-G16RevA.03 25-Dec-2016

 ----------------------------------------------------------------------
 #p b3lyp/6-31G(d) scrf=(iefpcm,read,solvent=water) geom=allcheck guess
 =read
 ----------------------------------------------------------------------

 Structure from the checkpoint file:  "106.n.pdb.xyz.mst.wat.chk"
 -------------
 106.n.pdb.xyz
 -------------
 Charge =  0 Multiplicity = 1

                         Standard orientation:
 ---------------------------------------------------------------------
 Center     Atomic      Atomic             Coordinates (Angstroms)
 Number     Number       Type             X           Y           Z
 ---------------------------------------------------------------------
      1          9           0       -2.216243   -0.458755    1.313809
      2          6           0       -2.065565   -0.346030   -0.025871
      3          9           0       -2.891216   -1.240380   -0.605102
      4          9           0       -2.500509    0.881950   -0.372988
      5          6           0       -0.631904   -0.613673   -0.446077
      6          6           0        0.396820    0.189123    0.335105
      7         17           0        0.366183    1.941690   -0.063523
      8         35           0        2.193450   -0.543632   -0.021430
      9          1           0       -0.443751   -1.673262   -0.258394
     10          1           0       -0.536986   -0.435679   -1.519268
     11          1           0        0.260499    0.105467    1.407181
 ---------------------------------------------------------------------

 SCF Done:  E(RB3LYP) =  -3447.55444429     A.U. after   10 cycles

 The electronic state is 1-A.
 Alpha  occ. eigenvalues -- -482.92106-101.56012 -61.88350 -56.40431 -56.40029
 Alpha  occ. eigenvalues --  -56.40021 -24.73450 -24.73334 -24.73333 -10.44341
 Alpha  occ. eigenvalues --  -10.31898 -10.23202  -9.47697  -8.59503  -7.24117
 Alpha  occ. eigenvalues --   -7.23100  -7.23073  -6.54931  -6.53593  -6.53570
 Alpha  occ. eigenvalues --   -2.66485  -2.66117  -2.66098  -2.65031  -2.65031
 Alpha  occ. eigenvalues --   -1.31217  -1.22476  -1.22408  -0.90031  -0.81000
 Alpha  occ. eigenvalues --   -0.78109  -0.68899  -0.63525  -0.59389  -0.59038
 Alpha  occ. eigenvalues --   -0.55998  -0.49599  -0.46967  -0.46404  -0.45461
 Alpha  occ. eigenvalues --   -0.43931  -0.42986  -0.41872  -0.40799  -0.40162
 Alpha  occ. eigenvalues --   -0.38296  -0.32538  -0.32350  -0.29522  -0.29253
 Alpha virt. eigenvalues --   -0.03783   0.01014   0.10605   0.12036   0.12365
 Alpha virt. eigenvalues --    0.13730   0.19813   0.20708   0.21563   0.21947
 Alpha virt. eigenvalues --    0.28021   0.35735   0.38415   0.40999   0.41643

 Mulliken charges:
               1
     1  F   -0.269338
     2  C    0.820963
     3  F   -0.267697
     4  F   -0.259621
     5  C   -0.384231
     6  C   -0.257996
     7  Cl  -0.023278
     8  Br  -0.082487
     9  H    0.229363
    10  H    0.225519
    11  H    0.268803
 Sum of Mulliken charges =  -0.00000

 Dipole moment (field-independent basis, Debye):
    X=              0.2368    Y=             -1.7918    Z=              0.0308  Tot=              1.8076
 Quadrupole moment (field-independent basis, Debye-Ang):
   XX=            -69.8337   YY=            -64.5123   ZZ=            -61.6765
   XY=             -0.4788   XZ=              0.6461   YZ=              0.5606

 Normal termination of Gaussian 16 at Wed Mar  2 00:10:45 2022.
