 Gaussian 16, Revision A.03,

 ----------------------------------------------------------------------
 #p b3lyp/6-31G(d) opt=(MaxStep=10,MaxCycles=1000) freq scf=(MaxCycle=2
 000,NoVarAcc,NoIncFock) scrf=(iefpcm,read,solvent=water)
 ----------------------------------------------------------------------

 -------------
 107.n.pdb.xyz
 -------------
 Symbolic Z-matrix:
 Charge =  0 Multiplicity = 1

 SCF Done:  E(RB3LYP) =  -3408.22818034     A.U. after   12 cycles
 SCF Done:  E(RB3LYP) =  -3408.22967145     A.U. after   10 cycles
 SCF Done:  E(RB3LYP) =  -3408.22983310     A.U. after    9 cycles
 SCF Done:  E(RB3LYP) =  -3408.22983837     A.U. after    8 cycles
 Optimization completed.
    -- Stationary point found.
 Normal termination of Gaussian 16 at Wed Mar  2 02:55:16 2022.

 --------------------------------------------------------------------
 #P Geom=AllCheck Guess=TCheck SCRF=Check GenChk RB3LYP/6-31G(d) Freq
 --------------------------------------------------------------------

 Structure from the checkpoint file:  "107.n.pdb.xyz.mst.wat.chk"
 -------------
 107.n.pdb.xyz
 -------------
 Charge =  0 Multiplicity = 1

 SCF Done:  E(RB3LYP) =  -3408.22983837     A.U. after    1 cycles

  Exact polarizability:  66.069 -11.322  65.337   2.955   2.397  45.452
 Approx polarizability:  79.992 -15.344  79.200   5.223   3.786  57.409

                      1                      2                      3
                      A                      A                      A
 Frequencies --     68.2878               156.8220               195.5461
 Red. masses --     21.1636                23.1127                20.9480
 Frc consts  --      0.0581                 0.3349                 0.4719
 IR Inten    --      0.0143                 1.9954                 1.3685

                      4                      5                      6
                      A                      A                      A
 Frequencies --    223.7167               301.5842               358.1325
 Red. masses --     22.4837                21.3910                19.8952
 Frc consts  --      0.6630                 1.1463                 1.5034
 IR Inten    --      1.3627                 2.0598                 0.4931

                      7                      8                      9
                      A                      A                      A
 Frequencies --    504.9646               539.4163               650.3598
 Red. masses --     14.0575                17.3265                11.3885
 Frc consts  --      2.1119                 2.9704                 2.8381
 IR Inten    --     10.2291                19.7501                52.0552

                     10                     11                     12
                      A                      A                      A
 Frequencies --    704.1551               782.0206               869.8565
 Red. masses --      6.2703                 8.6723                 7.2481
 Frc consts  --      1.8318                 3.1248                 3.2313
 IR Inten    --     51.0445               165.2697                27.7912

                     13                     14                     15
                      A                      A                      A
 Frequencies --   1146.1286              1201.1899              1231.1595
 Red. masses --      2.8553                 4.4892                 1.3605
 Frc consts  --      2.2099                 3.8163                 1.2150
 IR Inten    --    304.1427               319.5624                10.6516

                     16                     17                     18
                      A                      A                      A
 Frequencies --   1264.4504              1347.5342              3207.5843
 Red. masses --      8.3349                 1.7573                 1.0883
 Frc consts  --      7.8516                 1.8801                 6.5972
 IR Inten    --    278.6176                81.5836                 6.0622

 - Thermochemistry -
 -------------------
 Temperature   298.150 Kelvin.  Pressure   1.00000 Atm.
 Atom     1 has atomic number  9 and mass  18.99840

 Molecular mass:   195.89022 amu.
 Principal axes and moments of inertia in atomic units:
                           1         2         3
     Eigenvalues --   981.828901563.910502206.40184
           X            0.99994   0.01082   0.00084
           Y           -0.01082   0.99993  -0.00424
           Z           -0.00089   0.00423   0.99999
 This molecule is an asymmetric top.
 Rotational symmetry number  1.
 Warning -- assumption of classical behavior for rotation
           may cause significant error
 Rotational temperatures (Kelvin)      0.08822     0.05538     0.03926
 Rotational constants (GHZ):           1.83814     1.15399     0.81796
 Zero-point vibrational energy      88242.0 (Joules/Mol)
                                   21.09034 (Kcal/Mol)
 Warning -- explicit consideration of   8 degrees of freedom as
           vibrations may cause significant error
 Vibrational temperatures:     98.25   225.63   281.35   321.88   433.91
          (Kelvin)            515.27   726.53   776.10   935.72  1013.12
                             1125.15  1251.53  1649.02  1728.24  1771.36
                             1819.26  1938.80  4615.00

 Zero-point correction=                           0.033610 (Hartree/Particle)
 Thermal correction to Energy=                    0.040615
 Thermal correction to Enthalpy=                  0.041559
 Thermal correction to Gibbs Free Energy=         0.000124
 Sum of electronic and zero-point Energies=          -3408.196229
 Sum of electronic and thermal Energies=             -3408.189224
 Sum of electronic and thermal Enthalpies=           -3408.188280
 Sum of electronic and thermal Free Energies=        -3408.229715

                     E (Thermal)             CV                S
                      KCal/Mol        Cal/Mol-Kelvin    Cal/Mol-Kelvin
 Total                   25.486             23.005             87.207
 Electronic               0.000              0.000              0.000
 Translational            0.889              2.981             41.722
 Rotational               0.889              2.981             29.606
 Vibrational             23.709             17.043             15.879
 Vibration     1          0.598              1.969              4.202
 Vibration     2          0.620              1.895              2.588
 Vibration     3          0.636              1.846              2.175
 Vibration     4          0.649              1.805              1.929
 Vibration     5          0.694              1.671              1.408
 Vibration     6          0.733              1.559              1.130
 Vibration     7          0.860              1.239              0.646
 Vibration     8          0.894              1.163              0.567

 Optimization completed.
    -- Stationary point found.
 Normal termination of Gaussian 16 at Wed Mar  2 02:57:01 2022.

 ------------------------------------------
 #p b3lyp/6-31G(d) geom=allcheck guess=read
 ------------------------------------------

 Structure from the checkpoint file:  "107.n.pdb.xyz.mst.wat.chk"
 -------------
 107.n.pdb.xyz
 -------------
 Charge =  0 Multiplicity = 1

 SCF Done:  E(RB3LYP) =  -3408.23198711     A.U. after   10 cycles
 Normal termination of Gaussian 16 at Wed Mar  2 02:57:14 2022.
 Gaussian 16:  ES64L-G16RevA.03 25-Dec-2016

 ----------------------------------------------------------------------
 #p b3lyp/6-31G(d) scrf=(iefpcm,read,solvent=water) geom=allcheck guess
 =read
 ----------------------------------------------------------------------

 Structure from the checkpoint file:  "107.n.pdb.xyz.mst.wat.chk"
 -------------
 107.n.pdb.xyz
 -------------
 Charge =  0 Multiplicity = 1

                         Standard orientation:
 ---------------------------------------------------------------------
 Center     Atomic      Atomic             Coordinates (Angstroms)
 Number     Number       Type             X           Y           Z
 ---------------------------------------------------------------------
      1          9           0       -1.202675   -0.634356    1.332560
      2          6           0       -1.208171   -0.579913   -0.006495
      3          9           0       -0.999531   -1.817226   -0.481547
      4          9           0       -2.422909   -0.172829   -0.407973
      5          6           0       -0.129037    0.369101   -0.541817
      6         17           0       -0.421313    2.031272    0.029054
      7         35           0        1.627160   -0.286219    0.012480
      8          1           0       -0.138995    0.370599   -1.628192
 ---------------------------------------------------------------------

 SCF Done:  E(RB3LYP) =  -3408.22961806     A.U. after   10 cycles

 The electronic state is 1-A.
 Alpha  occ. eigenvalues -- -482.93157-101.57245 -61.89397 -56.41487 -56.41063
 Alpha  occ. eigenvalues --  -56.41052 -24.74689 -24.74685 -24.74602 -10.46124
 Alpha  occ. eigenvalues --  -10.32818  -9.48932  -8.60550  -7.25385  -7.24316
 Alpha  occ. eigenvalues --   -7.24284  -6.56029  -6.54613  -6.54582  -2.67574
 Alpha  occ. eigenvalues --   -2.67185  -2.67159  -2.66030  -2.66030  -1.32774
 Alpha  occ. eigenvalues --   -1.23953  -1.23918  -0.91074  -0.80803  -0.74843
 Alpha  occ. eigenvalues --   -0.66515  -0.60799  -0.60555  -0.56889  -0.48979
 Alpha  occ. eigenvalues --   -0.48007  -0.47199  -0.45653  -0.43364  -0.42564
 Alpha  occ. eigenvalues --   -0.41943  -0.41659  -0.33800  -0.33343  -0.30405
 Alpha  occ. eigenvalues --   -0.30139
 Alpha virt. eigenvalues --   -0.04304  -0.00284   0.09615   0.16453   0.17275
 Alpha virt. eigenvalues --    0.18541   0.19548   0.25108   0.34919   0.37734
 Alpha virt. eigenvalues --    0.40113   0.40879   0.42043   0.43108   0.44330

 Mulliken charges:
               1
     1  F   -0.248236
     2  C    0.847921
     3  F   -0.252568
     4  F   -0.251530
     5  C   -0.354284
     6  Cl   0.016411
     7  Br  -0.047605
     8  H    0.289890
 Sum of Mulliken charges =  -0.00000

 Dipole moment (field-independent basis, Debye):
    X=              0.2290    Y=              0.0355    Z=             -1.6558  Tot=              1.6720
 Quadrupole moment (field-independent basis, Debye-Ang):
   XX=            -57.4544   YY=            -58.2392   ZZ=            -54.7413
   XY=             -0.6530   XZ=              0.7849   YZ=             -0.4743

 Normal termination of Gaussian 16 at Wed Mar  2 02:57:33 2022.
