 Gaussian 16, Revision A.03,

 ----------------------------------------------------------------------
 #p b3lyp/6-31G(d) opt=(MaxStep=10,MaxCycles=1000) freq scf=(MaxCycle=2
 000,NoVarAcc,NoIncFock) scrf=(iefpcm,read,solvent=water)
 ----------------------------------------------------------------------

 -------------
 108.n.pdb.xyz
 -------------
 Symbolic Z-matrix:
 Charge =  0 Multiplicity = 1

 SCF Done:  E(RB3LYP) =  -731.481294212     A.U. after   13 cycles
 SCF Done:  E(RB3LYP) =  -731.486433518     A.U. after   11 cycles
 SCF Done:  E(RB3LYP) =  -731.488994750     A.U. after   11 cycles
 SCF Done:  E(RB3LYP) =  -731.490456443     A.U. after   11 cycles
 SCF Done:  E(RB3LYP) =  -731.490933376     A.U. after   11 cycles
 SCF Done:  E(RB3LYP) =  -731.492487200     A.U. after   10 cycles
 SCF Done:  E(RB3LYP) =  -731.491923062     A.U. after   11 cycles
 SCF Done:  E(RB3LYP) =  -731.492526184     A.U. after   11 cycles
 SCF Done:  E(RB3LYP) =  -731.492675042     A.U. after   10 cycles
 SCF Done:  E(RB3LYP) =  -731.492672861     A.U. after    9 cycles
 SCF Done:  E(RB3LYP) =  -731.492667138     A.U. after    8 cycles
 SCF Done:  E(RB3LYP) =  -731.492651751     A.U. after    8 cycles
 SCF Done:  E(RB3LYP) =  -731.492655866     A.U. after    7 cycles
 SCF Done:  E(RB3LYP) =  -731.492659246     A.U. after    8 cycles
 SCF Done:  E(RB3LYP) =  -731.492652820     A.U. after    8 cycles
 SCF Done:  E(RB3LYP) =  -731.492656414     A.U. after    8 cycles
 SCF Done:  E(RB3LYP) =  -731.492655995     A.U. after    6 cycles
 Optimization completed.
    -- Stationary point found.
 Normal termination of Gaussian 16 at Wed Mar  2 04:33:58 2022.

 --------------------------------------------------------------------
 #P Geom=AllCheck Guess=TCheck SCRF=Check GenChk RB3LYP/6-31G(d) Freq
 --------------------------------------------------------------------

 Structure from the checkpoint file:  "108.n.pdb.xyz.mst.wat.chk"
 -------------
 108.n.pdb.xyz
 -------------
 Charge =  0 Multiplicity = 1

 SCF Done:  E(RB3LYP) =  -731.492655996     A.U. after    1 cycles

  Exact polarizability: 264.366  -7.796 232.124 -19.831 -14.365 159.153
 Approx polarizability: 269.022  -7.416 251.781 -20.429 -20.498 182.237

                      1                      2                      3
                      A                      A                      A
 Frequencies --     24.2701                27.0779                44.3239
 Red. masses --      3.5541                 3.2061                 3.3955
 Frc consts  --      0.0012                 0.0014                 0.0039
 IR Inten    --      0.2246                 0.0193                 0.6132

                      4                      5                      6
                      A                      A                      A
 Frequencies --     63.0084                80.8450                93.7503
 Red. masses --      2.0295                 2.6506                 3.1633
 Frc consts  --      0.0047                 0.0102                 0.0164
 IR Inten    --      1.4553                 1.7267                 0.0609

                      7                      8                      9
                      A                      A                      A
 Frequencies --    109.0376               131.5954               148.4905
 Red. masses --      3.8620                 2.6954                 1.0993
 Frc consts  --      0.0271                 0.0275                 0.0143
 IR Inten    --     10.4353                 2.5705                 0.0818

                     10                     11                     12
                      A                      A                      A
 Frequencies --    164.4257               197.9361               204.4768
 Red. masses --      1.2261                 2.4747                 3.1249
 Frc consts  --      0.0195                 0.0571                 0.0770
 IR Inten    --      1.7926                 9.1387                 5.0923

                     13                     14                     15
                      A                      A                      A
 Frequencies --    241.2353               248.0188               258.7538
 Red. masses --      2.2154                 1.3310                 1.4660
 Frc consts  --      0.0760                 0.0482                 0.0578
 IR Inten    --      1.1638                 0.0363                 1.3685

                     16                     17                     18
                      A                      A                      A
 Frequencies --    284.3661               299.8621               309.1515
 Red. masses --      2.4016                 3.0321                 3.0958
 Frc consts  --      0.1144                 0.1606                 0.1743
 IR Inten    --      6.4185                 3.9612                 2.4076

                     19                     20                     21
                      A                      A                      A
 Frequencies --    323.0829               328.7610               415.8126
 Red. masses --      3.2514                 3.5163                 1.9257
 Frc consts  --      0.2000                 0.2239                 0.1962
 IR Inten    --      3.3405                 2.6823                 6.5904

                     22                     23                     24
                      A                      A                      A
 Frequencies --    440.1809               479.5878               490.1475
 Red. masses --      3.1434                 2.4723                 2.8530
 Frc consts  --      0.3588                 0.3350                 0.4038
 IR Inten    --      4.1398                23.0621                42.2681

                     25                     26                     27
                      A                      A                      A
 Frequencies --    511.2418               528.1824               533.1931
 Red. masses --      1.7357                 3.1499                 4.3399
 Frc consts  --      0.2673                 0.5177                 0.7269
 IR Inten    --    111.8829                 1.8266                 9.5712

                     28                     29                     30
                      A                      A                      A
 Frequencies --    547.9030               561.9849               620.3345
 Red. masses --      3.2385                 4.1279                 2.8571
 Frc consts  --      0.5728                 0.7681                 0.6478
 IR Inten    --     19.0112                12.5346                11.3465

                     31                     32                     33
                      A                      A                      A
 Frequencies --    690.8223               727.1250               774.8486
 Red. masses --      4.8459                 4.4055                 4.0427
 Frc consts  --      1.3626                 1.3724                 1.4301
 IR Inten    --      9.2590                12.4852                 3.6541

                     34                     35                     36
                      A                      A                      A
 Frequencies --    791.9993               801.2740               811.1215
 Red. masses --      1.2188                 1.4308                 1.1707
 Frc consts  --      0.4504                 0.5413                 0.4538
 IR Inten    --     41.4565                18.9802                 4.1476

                     37                     38                     39
                      A                      A                      A
 Frequencies --    833.8318               867.3933               911.2412
 Red. masses --      2.2989                 3.4060                 1.2964
 Frc consts  --      0.9417                 1.5098                 0.6342
 IR Inten    --     13.4574                 2.2111                 0.3826

                     40                     41                     42
                      A                      A                      A
 Frequencies --    925.7765               934.8571               975.6791
 Red. masses --      2.8357                 2.3167                 1.8842
 Frc consts  --      1.4319                 1.1929                 1.0568
 IR Inten    --     22.8001                 5.1204                 8.6668

                     43                     44                     45
                      A                      A                      A
 Frequencies --    984.2818              1009.4709              1019.5008
 Red. masses --      1.9080                 2.1294                 1.5834
 Frc consts  --      1.0891                 1.2785                 0.9697
 IR Inten    --      8.3351                17.1595                 6.9448

                     46                     47                     48
                      A                      A                      A
 Frequencies --   1036.4616              1065.7554              1073.3223
 Red. masses --      2.5109                 1.6476                 1.5324
 Frc consts  --      1.5892                 1.1026                 1.0401
 IR Inten    --     16.3055                 4.6742                 0.5347

                     49                     50                     51
                      A                      A                      A
 Frequencies --   1075.0283              1088.9849              1100.5616
 Red. masses --      1.6808                 2.1467                 2.4825
 Frc consts  --      1.1445                 1.4999                 1.7716
 IR Inten    --     13.9199                34.0520                10.1705

                     52                     53                     54
                      A                      A                      A
 Frequencies --   1122.2326              1127.0037              1152.9062
 Red. masses --      1.7414                 1.6961                 2.1586
 Frc consts  --      1.2921                 1.2692                 1.6904
 IR Inten    --      3.3689                49.1597                37.6083

                     55                     56                     57
                      A                      A                      A
 Frequencies --   1192.5172              1194.8129              1212.5033
 Red. masses --      1.7577                 1.2209                 2.9023
 Frc consts  --      1.4727                 1.0269                 2.5140
 IR Inten    --     65.2221                 7.4545                29.1790

                     58                     59                     60
                      A                      A                      A
 Frequencies --   1246.3224              1254.8808              1285.5423
 Red. masses --      2.4511                 2.7700                 1.8829
 Frc consts  --      2.2432                 2.5700                 1.8333
 IR Inten    --     18.4551               130.9072                 3.1459

                     61                     62                     63
                      A                      A                      A
 Frequencies --   1295.6710              1312.7179              1334.5289
 Red. masses --      2.1657                 1.2556                 1.1725
 Frc consts  --      2.1421                 1.2748                 1.2303
 IR Inten    --     34.9098                53.6311                30.5138

                     64                     65                     66
                      A                      A                      A
 Frequencies --   1344.7310              1373.0680              1407.1087
 Red. masses --      6.2535                 1.2848                 1.3255
 Frc consts  --      6.6626                 1.4272                 1.5463
 IR Inten    --     37.1199                48.3092                 9.6637

                     67                     68                     69
                      A                      A                      A
 Frequencies --   1412.2042              1426.9041              1429.1341
 Red. masses --      1.2867                 1.2580                 1.2532
 Frc consts  --      1.5119                 1.5092                 1.5081
 IR Inten    --     11.2881                 1.8655                 8.8202

                     70                     71                     72
                      A                      A                      A
 Frequencies --   1437.8118              1440.8019              1450.8412
 Red. masses --      1.2549                 1.3303                 1.4122
 Frc consts  --      1.5285                 1.6271                 1.7514
 IR Inten    --      0.6426                21.3467                 7.1479

                     73                     74                     75
                      A                      A                      A
 Frequencies --   1479.2654              1489.5549              1494.2965
 Red. masses --      2.0241                 1.0937                 1.0936
 Frc consts  --      2.6096                 1.4298                 1.4387
 IR Inten    --      2.2146                50.2226                12.4210

                     76                     77                     78
                      A                      A                      A
 Frequencies --   1497.9596              1503.3656              1506.1115
 Red. masses --      1.3368                 1.0574                 1.2059
 Frc consts  --      1.7674                 1.4080                 1.6117
 IR Inten    --     23.7464                 2.8573                29.5055

                     79                     80                     81
                      A                      A                      A
 Frequencies --   1507.5202              1510.9788              1514.4026
 Red. masses --      1.0581                 1.0494                 1.0419
 Frc consts  --      1.4168                 1.4116                 1.4078
 IR Inten    --      7.1127                 3.8223                 3.6991

                     82                     83                     84
                      A                      A                      A
 Frequencies --   1519.8024              1526.5858              1528.1567
 Red. masses --      1.3233                 1.3542                 1.0786
 Frc consts  --      1.8008                 1.8595                 1.4841
 IR Inten    --    161.7392                72.0425                 8.2194

                     85                     86                     87
                      A                      A                      A
 Frequencies --   1537.0126              1548.3250              1648.6150
 Red. masses --      1.0986                 1.9586                 5.9733
 Frc consts  --      1.5292                 2.7664                 9.5654
 IR Inten    --      8.6329               299.8338                 8.8515

                     88                     89                     90
                      A                      A                      A
 Frequencies --   1649.6783              1746.8034              2944.9211
 Red. masses --      5.5591                 8.1333                 1.0735
 Frc consts  --      8.9137                14.6219                 5.4853
 IR Inten    --      4.6155               374.7187               129.7694

                     91                     92                     93
                      A                      A                      A
 Frequencies --   2966.5807              2980.7619              3057.6641
 Red. masses --      1.0722                 1.0713                 1.0395
 Frc consts  --      5.5597                 5.6080                 5.7262
 IR Inten    --    124.1065               146.2550                51.3766

                     94                     95                     96
                      A                      A                      A
 Frequencies --   3060.3597              3063.2247              3066.8357
 Red. masses --      1.0372                 1.0358                 1.0354
 Frc consts  --      5.7235                 5.7265                 5.7378
 IR Inten    --     36.6275                28.8378                34.0405

                     97                     98                     99
                      A                      A                      A
 Frequencies --   3088.3701              3097.2032              3110.8676
 Red. masses --      1.0896                 1.0880                 1.0980
 Frc consts  --      6.1233                 6.1489                 6.2604
 IR Inten    --      1.6498                47.9869                30.5672

                    100                    101                    102
                      A                      A                      A
 Frequencies --   3111.8612              3120.2221              3131.6760
 Red. masses --      1.0886                 1.0989                 1.1017
 Frc consts  --      6.2110                 6.3033                 6.3658
 IR Inten    --     16.5345                21.4167                48.9610

                    103                    104                    105
                      A                      A                      A
 Frequencies --   3133.5378              3136.3759              3141.3001
 Red. masses --      1.1028                 1.1003                 1.1029
 Frc consts  --      6.3801                 6.3768                 6.4124
 IR Inten    --     31.1779               146.0194                58.9931

                    106                    107                    108
                      A                      A                      A
 Frequencies --   3146.1795              3146.3817              3195.5652
 Red. masses --      1.1017                 1.1031                 1.0860
 Frc consts  --      6.4252                 6.4343                 6.5341
 IR Inten    --     31.3463                27.9277                 0.5948

                    109                    110                    111
                      A                      A                      A
 Frequencies --   3201.5421              3220.5722              3576.6769
 Red. masses --      1.0907                 1.0963                 1.0772
 Frc consts  --      6.5866                 6.6995                 8.1187
 IR Inten    --     46.0888                49.7297                90.0231

 - Thermochemistry -
 -------------------
 Temperature   298.150 Kelvin.  Pressure   1.00000 Atm.
 Atom     1 has atomic number  6 and mass  12.00000

 Molecular mass:   234.17321 amu.
 Principal axes and moments of inertia in atomic units:
                           1         2         3
     Eigenvalues --  1839.178167859.545978995.26014
           X            1.00000  -0.00059  -0.00017
           Y            0.00059   0.99998   0.00634
           Z            0.00017  -0.00634   0.99998
 This molecule is an asymmetric top.
 Rotational symmetry number  1.
 Warning -- assumption of classical behavior for rotation
           may cause significant error
 Rotational temperatures (Kelvin)      0.04709     0.01102     0.00963
 Rotational constants (GHZ):           0.98128     0.22962     0.20063
 Zero-point vibrational energy     900619.0 (Joules/Mol)
                                  215.25310 (Kcal/Mol)
 Warning -- explicit consideration of  30 degrees of freedom as
           vibrations may cause significant error
 Vibrational temperatures:     34.92    38.96    63.77    90.66   116.32
          (Kelvin)            134.89   156.88   189.34   213.64   236.57
                              284.79   294.20   347.08   356.84   372.29
                              409.14   431.43   444.80   464.84   473.01
                              598.26   633.32   690.02   705.21   735.56
                              759.94   767.15   788.31   808.57   892.52
                              993.94  1046.17  1114.83  1139.51  1152.85
                             1167.02  1199.70  1247.99  1311.07  1331.99
                             1345.05  1403.78  1416.16  1452.40  1466.83
                             1491.24  1533.38  1544.27  1546.73  1566.81
                             1583.46  1614.64  1621.51  1658.77  1715.77
                             1719.07  1744.52  1793.18  1805.49  1849.61
                             1864.18  1888.71  1920.09  1934.77  1975.54
                             2024.52  2031.85  2053.00  2056.21  2068.69
                             2072.99  2087.44  2128.33  2143.14  2149.96
                             2155.23  2163.01  2166.96  2168.99  2173.96
                             2178.89  2186.66  2196.42  2198.68  2211.42
                             2227.69  2371.99  2373.52  2513.26  4237.08
                             4268.25  4288.65  4399.30  4403.18  4407.30
                             4412.49  4443.48  4456.18  4475.84  4477.27
                             4489.30  4505.78  4508.46  4512.55  4519.63
                             4526.65  4526.94  4597.71  4606.31  4633.69
                             5146.04

 Zero-point correction=                           0.343028 (Hartree/Particle)
 Thermal correction to Energy=                    0.361729
 Thermal correction to Enthalpy=                  0.362673
 Thermal correction to Gibbs Free Energy=         0.294967
 Sum of electronic and zero-point Energies=           -731.149628
 Sum of electronic and thermal Energies=              -731.130927
 Sum of electronic and thermal Enthalpies=            -731.129983
 Sum of electronic and thermal Free Energies=         -731.197689

                     E (Thermal)             CV                S
                      KCal/Mol        Cal/Mol-Kelvin    Cal/Mol-Kelvin
 Total                  226.988             69.424            142.499
 Electronic               0.000              0.000              0.000
 Translational            0.889              2.981             42.254
 Rotational               0.889              2.981             33.230
 Vibrational            225.211             63.463             67.015
 Vibration     1          0.593              1.985              6.250
 Vibration     2          0.593              1.984              6.033
 Vibration     3          0.595              1.980              5.056
 Vibration     4          0.597              1.972              4.361
 Vibration     5          0.600              1.962              3.870
 Vibration     6          0.603              1.954              3.580
 Vibration     7          0.606              1.942              3.286
 Vibration     8          0.612              1.922              2.923
 Vibration     9          0.618              1.904              2.691
 Vibration    10          0.623              1.886              2.498
 Vibration    11          0.637              1.843              2.152
 Vibration    12          0.640              1.834              2.092
 Vibration    13          0.658              1.777              1.794
 Vibration    14          0.662              1.766              1.745
 Vibration    15          0.668              1.748              1.670
 Vibration    16          0.683              1.703              1.507
 Vibration    17          0.692              1.674              1.418
 Vibration    18          0.699              1.656              1.367
 Vibration    19          0.708              1.629              1.294
 Vibration    20          0.712              1.618              1.266
 Vibration    21          0.779              1.436              0.906
 Vibration    22          0.800              1.383              0.826
 Vibration    23          0.836              1.295              0.711
 Vibration    24          0.846              1.272              0.683
 Vibration    25          0.866              1.225              0.631
 Vibration    26          0.883              1.188              0.591
 Vibration    27          0.888              1.177              0.580
 Vibration    28          0.903              1.144              0.549
 Vibration    29          0.918              1.114              0.520
 Vibration    30          0.980              0.989              0.416

                           ! Non-Optimized Parameters !
 Normal termination of Gaussian 16 at Wed Mar  2 05:13:35 2022.

 ------------------------------------------
 #p b3lyp/6-31G(d) geom=allcheck guess=read
 ------------------------------------------

 Structure from the checkpoint file:  "108.n.pdb.xyz.mst.wat.chk"
 -------------
 108.n.pdb.xyz
 -------------
 Charge =  0 Multiplicity = 1

 SCF Done:  E(RB3LYP) =  -731.475854046     A.U. after   11 cycles
 Normal termination of Gaussian 16 at Wed Mar  2 05:16:16 2022.
 Gaussian 16:  ES64L-G16RevA.03 25-Dec-2016

 ----------------------------------------------------------------------
 #p b3lyp/6-31G(d) scrf=(iefpcm,read,solvent=water) geom=allcheck guess
 =read
 ----------------------------------------------------------------------

 Structure from the checkpoint file:  "108.n.pdb.xyz.mst.wat.chk"
 -------------
 108.n.pdb.xyz
 -------------
 Charge =  0 Multiplicity = 1

                         Standard orientation:
 ---------------------------------------------------------------------
 Center     Atomic      Atomic             Coordinates (Angstroms)
 Number     Number       Type             X           Y           Z
 ---------------------------------------------------------------------
      1          6           0        2.227204    2.021121    1.129747
      2          6           0        3.261349    1.352577    0.227718
      3          7           0        2.994653   -0.065767   -0.048985
      4          6           0        4.175054   -0.722386   -0.635977
      5          6           0        5.283809   -0.981946    0.381321
      6          6           0        1.811222   -0.233759   -0.880544
      7          6           0        0.504931   -0.356613   -0.084718
      8          8           0        0.456492   -0.826613    1.050967
      9          7           0       -0.599818    0.024996   -0.790138
     10          6           0       -1.945448   -0.045629   -0.323988
     11          6           0       -2.690651    1.149101   -0.263982
     12          6           0       -2.077892    2.472634   -0.648432
     13          6           0       -4.020249    1.087337    0.164152
     14          6           0       -4.599820   -0.126406    0.529819
     15          6           0       -3.851780   -1.298667    0.451282
     16          6           0       -2.522091   -1.286005    0.012126
     17          6           0       -1.762363   -2.580052   -0.116865
     18          1           0        2.535243    3.049885    1.339890
     19          1           0        2.132089    1.486240    2.078845
     20          1           0        1.238604    2.062918    0.662671
     21          1           0        4.238775    1.416748    0.711634
     22          1           0        3.338580    1.914643   -0.721451
     23          1           0        3.845239   -1.682672   -1.042015
     24          1           0        4.575966   -0.142098   -1.484856
     25          1           0        4.905686   -1.579291    1.216438
     26          1           0        5.703068   -0.056570    0.787005
     27          1           0        6.101662   -1.531795   -0.094394
     28          1           0        1.718968    0.561580   -1.640306
     29          1           0        1.901249   -1.175588   -1.432468
     30          1           0       -0.442036    0.538903   -1.650331
     31          1           0       -2.772337    3.288401   -0.434466
     32          1           0       -1.834317    2.517213   -1.716611
     33          1           0       -1.147607    2.661483   -0.103322
     34          1           0       -4.596481    2.006238    0.216799
     35          1           0       -5.630777   -0.158915    0.866446
     36          1           0       -4.301737   -2.250889    0.715502
     37          1           0       -2.433364   -3.430518    0.025008
     38          1           0       -1.295696   -2.668872   -1.103976
     39          1           0       -0.956207   -2.636589    0.620135
 ---------------------------------------------------------------------

 SCF Done:  E(RB3LYP) =  -731.488887042     A.U. after   11 cycles

 The electronic state is 1-A.
 Alpha  occ. eigenvalues --  -19.11749 -14.36559 -14.32442 -10.28973 -10.22630
 Alpha  occ. eigenvalues --  -10.21508 -10.20447 -10.20313 -10.20023 -10.19931
 Alpha  occ. eigenvalues --  -10.18796 -10.18604 -10.18547 -10.18279 -10.17461
 Alpha  occ. eigenvalues --  -10.17116 -10.17081  -1.03442  -0.93342  -0.91938
 Alpha  occ. eigenvalues --   -0.85109  -0.78343  -0.76318  -0.75638  -0.74096
 Alpha  occ. eigenvalues --   -0.70285  -0.67860  -0.67641  -0.62350  -0.61143
 Alpha  occ. eigenvalues --   -0.58530  -0.57033  -0.56048  -0.52677  -0.49348
 Alpha  occ. eigenvalues --   -0.48930  -0.47317  -0.46992  -0.45706  -0.44187
 Alpha  occ. eigenvalues --   -0.43103  -0.42308  -0.42053  -0.41543  -0.40868
 Alpha  occ. eigenvalues --   -0.40460  -0.40198  -0.40058  -0.38932  -0.37711
 Alpha  occ. eigenvalues --   -0.37211  -0.36947  -0.35137  -0.35111  -0.34570
 Alpha  occ. eigenvalues --   -0.34424  -0.33930  -0.33740  -0.32590  -0.28211
 Alpha  occ. eigenvalues --   -0.25555  -0.24033  -0.23235  -0.21572
 Alpha virt. eigenvalues --   -0.01047   0.00219   0.02771   0.07495   0.09621
 Alpha virt. eigenvalues --    0.10421   0.11137   0.12410   0.12642   0.13124
 Alpha virt. eigenvalues --    0.13879   0.14452   0.14892   0.15853   0.16423

 Mulliken charges:
               1
     1  C   -0.463459
     2  C   -0.126350
     3  N   -0.379497
     4  C   -0.118099
     5  C   -0.456387
     6  C   -0.240683
     7  C    0.610851
     8  O   -0.571749
     9  N   -0.711280
    10  C    0.172918
    11  C    0.167539
    12  C   -0.551535
    13  C   -0.230883
    14  C   -0.132287
    15  C   -0.232139
    16  C    0.182594
    17  C   -0.543658
    18  H    0.149767
    19  H    0.154584
    20  H    0.154252
    21  H    0.150889
    22  H    0.118197
    23  H    0.148350
    24  H    0.120375
    25  H    0.150891
    26  H    0.155077
    27  H    0.149802
    28  H    0.145407
    29  H    0.187849
    30  H    0.383465
    31  H    0.169954
    32  H    0.172768
    33  H    0.177475
    34  H    0.143014
    35  H    0.146884
    36  H    0.142316
    37  H    0.158682
    38  H    0.161691
    39  H    0.182418
 Sum of Mulliken charges =  -0.00000

 Dipole moment (field-independent basis, Debye):
    X=              0.3014    Y=              2.3858    Z=             -5.0860  Tot=              5.6259
 Quadrupole moment (field-independent basis, Debye-Ang):
   XX=            -93.3322   YY=            -96.8696   ZZ=           -104.8551
   XY=              0.1696   XZ=             -4.5250   YZ=              1.3245

 Normal termination of Gaussian 16 at Wed Mar  2 05:19:39 2022.
