 Gaussian 16, Revision A.03,

 ----------------------------------------------------------------------
 #p b3lyp/6-31G(d) opt=(MaxStep=10,MaxCycles=1000) freq scf=(MaxCycle=2
 000,NoVarAcc,NoIncFock) scrf=(iefpcm,read,solvent=water)
 ----------------------------------------------------------------------

 -------------
 109.n.pdb.xyz
 -------------
 Symbolic Z-matrix:
 Charge =  0 Multiplicity = 1

 SCF Done:  E(RB3LYP) =  -713.224492515     A.U. after   12 cycles
 SCF Done:  E(RB3LYP) =  -713.226847710     A.U. after    9 cycles
 SCF Done:  E(RB3LYP) =  -713.224380317     A.U. after   10 cycles
 SCF Done:  E(RB3LYP) =  -713.227494225     A.U. after    9 cycles
 SCF Done:  E(RB3LYP) =  -713.227495522     A.U. after    9 cycles
 SCF Done:  E(RB3LYP) =  -713.227572728     A.U. after    8 cycles
 SCF Done:  E(RB3LYP) =  -713.227606657     A.U. after    9 cycles
 SCF Done:  E(RB3LYP) =  -713.227612837     A.U. after    8 cycles
 SCF Done:  E(RB3LYP) =  -713.227614098     A.U. after    7 cycles
 SCF Done:  E(RB3LYP) =  -713.227614224     A.U. after    7 cycles
 SCF Done:  E(RB3LYP) =  -713.227642767     A.U. after    8 cycles
 SCF Done:  E(RB3LYP) =  -713.227641007     A.U. after    9 cycles
 SCF Done:  E(RB3LYP) =  -713.227646101     A.U. after    8 cycles
 SCF Done:  E(RB3LYP) =  -713.227640942     A.U. after    7 cycles
 SCF Done:  E(RB3LYP) =  -713.227641877     A.U. after    6 cycles
 SCF Done:  E(RB3LYP) =  -713.227641640     A.U. after    6 cycles
 SCF Done:  E(RB3LYP) =  -713.227641609     A.U. after    5 cycles
 Optimization completed.
    -- Stationary point found.
 Normal termination of Gaussian 16 at Wed Mar  2 05:08:12 2022.

 --------------------------------------------------------------------
 #P Geom=AllCheck Guess=TCheck SCRF=Check GenChk RB3LYP/6-31G(d) Freq
 --------------------------------------------------------------------

 Structure from the checkpoint file:  "109.n.pdb.xyz.mst.wat.chk"
 -------------
 109.n.pdb.xyz
 -------------
 Charge =  0 Multiplicity = 1

 SCF Done:  E(RB3LYP) =  -713.227641609     A.U. after    1 cycles

  Exact polarizability: 255.257   4.792 204.876   1.083 -15.915 134.607
 Approx polarizability: 257.502   1.841 228.339   1.995 -20.418 148.949

 ******    1 imaginary frequencies (negative Signs) ******

                      1                      2                      3
                      A                      A                      A
 Frequencies --    -42.8918                21.8202                35.1405
 Red. masses --      1.0282                 4.4125                 2.9644
 Frc consts  --      0.0011                 0.0012                 0.0022
 IR Inten    --      0.2946                 0.1857                 0.2790

                      4                      5                      6
                      A                      A                      A
 Frequencies --     43.8865                63.4697                70.0704
 Red. masses --      3.9213                 4.4576                 3.2909
 Frc consts  --      0.0044                 0.0106                 0.0095
 IR Inten    --      0.0663                 1.1325                 1.3264

                      7                      8                      9
                      A                      A                      A
 Frequencies --    125.5260               134.1688               153.4554
 Red. masses --      3.2532                 2.9991                 2.6893
 Frc consts  --      0.0302                 0.0318                 0.0373
 IR Inten    --      8.8993                 0.9607                 4.2247

                     10                     11                     12
                      A                      A                      A
 Frequencies --    187.8618               218.7549               230.6324
 Red. masses --      4.5995                 2.9970                 1.6551
 Frc consts  --      0.0956                 0.0845                 0.0519
 IR Inten    --      0.5908                 2.2585                25.3701

                     13                     14                     15
                      A                      A                      A
 Frequencies --    239.0060               243.7944               259.5633
 Red. masses --      1.2874                 4.3118                 1.2039
 Frc consts  --      0.0433                 0.1510                 0.0478
 IR Inten    --     43.1295                 8.4638                76.4171

                     16                     17                     18
                      A                      A                      A
 Frequencies --    273.3936               300.1585               328.7361
 Red. masses --      1.4524                 2.3944                 2.7911
 Frc consts  --      0.0640                 0.1271                 0.1777
 IR Inten    --     40.1840                60.6748                 1.0960

                     19                     20                     21
                      A                      A                      A
 Frequencies --    384.5585               444.7277               456.4758
 Red. masses --      2.3038                 3.0239                 3.0001
 Frc consts  --      0.2007                 0.3524                 0.3683
 IR Inten    --      4.4209                 6.8364                 3.3361

                     22                     23                     24
                      A                      A                      A
 Frequencies --    465.4505               480.7830               519.5879
 Red. masses --      3.0150                 2.3911                 4.5383
 Frc consts  --      0.3848                 0.3256                 0.7219
 IR Inten    --      1.8256                16.0007                 5.1691

                     25                     26                     27
                      A                      A                      A
 Frequencies --    530.4148               544.9007               578.2038
 Red. masses --      3.6752                 2.9484                 3.6757
 Frc consts  --      0.6092                 0.5158                 0.7240
 IR Inten    --     10.1796                 7.5081                 0.4826

                     28                     29                     30
                      A                      A                      A
 Frequencies --    639.4597               703.7504               760.2206
 Red. masses --      4.6819                 2.5421                 5.9993
 Frc consts  --      1.1280                 0.7418                 2.0428
 IR Inten    --     13.8647                 6.7503                15.3910

                     31                     32                     33
                      A                      A                      A
 Frequencies --    791.4136               819.3958               848.5589
 Red. masses --      1.4046                 1.7387                 1.8037
 Frc consts  --      0.5183                 0.6878                 0.7652
 IR Inten    --     67.1046                94.4209                48.8582

                     34                     35                     36
                      A                      A                      A
 Frequencies --    876.7367               894.5723               898.3734
 Red. masses --      1.2886                 1.4826                 2.4821
 Frc consts  --      0.5836                 0.6990                 1.1803
 IR Inten    --      6.1512                 3.9461                51.9345

                     37                     38                     39
                      A                      A                      A
 Frequencies --    928.5214               942.1306               952.8500
 Red. masses --      2.6918                 1.1968                 1.7548
 Frc consts  --      1.3674                 0.6259                 0.9387
 IR Inten    --     13.5370                 6.5227                16.6407

                     40                     41                     42
                      A                      A                      A
 Frequencies --    970.3809               977.6339               995.1679
 Red. masses --      1.4462                 1.2612                 1.8343
 Frc consts  --      0.8024                 0.7102                 1.0703
 IR Inten    --      2.0077                 0.6428                 4.4603

                     43                     44                     45
                      A                      A                      A
 Frequencies --   1010.5222              1016.3576              1054.0958
 Red. masses --      4.5941                 1.8434                 2.1892
 Frc consts  --      2.7641                 1.1219                 1.4331
 IR Inten    --      0.3199                 8.6044                87.3246

                     46                     47                     48
                      A                      A                      A
 Frequencies --   1069.4869              1084.4986              1104.9147
 Red. masses --      1.5175                 2.6881                 2.4725
 Frc consts  --      1.0227                 1.8628                 1.7785
 IR Inten    --      8.2321               141.5573                20.3183

                     49                     50                     51
                      A                      A                      A
 Frequencies --   1121.8881              1130.6698              1138.1599
 Red. masses --      2.7446                 2.0714                 1.7435
 Frc consts  --      2.0353                 1.5602                 1.3307
 IR Inten    --     74.7974                28.5737                 6.7115

                     52                     53                     54
                      A                      A                      A
 Frequencies --   1171.4327              1189.8777              1200.7274
 Red. masses --      1.9607                 1.7440                 2.1214
 Frc consts  --      1.5853                 1.4548                 1.8020
 IR Inten    --     42.4610               168.5851                13.6838

                     55                     56                     57
                      A                      A                      A
 Frequencies --   1206.3025              1209.0185              1236.7355
 Red. masses --      1.2542                 1.8707                 1.2543
 Frc consts  --      1.0753                 1.6111                 1.1303
 IR Inten    --     11.4490                34.9934                19.7305

                     58                     59                     60
                      A                      A                      A
 Frequencies --   1270.4434              1293.7221              1297.7582
 Red. masses --      1.1149                 3.0351                 1.2379
 Frc consts  --      1.0602                 2.9930                 1.2283
 IR Inten    --     12.4841               305.2228                17.9045

                     61                     62                     63
                      A                      A                      A
 Frequencies --   1329.4360              1335.3938              1359.0532
 Red. masses --      1.3277                 1.6245                 1.3811
 Frc consts  --      1.3825                 1.7068                 1.5030
 IR Inten    --     66.2671                89.3723                31.6912

                     64                     65                     66
                      A                      A                      A
 Frequencies --   1368.2428              1384.4324              1395.1222
 Red. masses --      3.9399                 1.3678                 1.3889
 Frc consts  --      4.3457                 1.5446                 1.5928
 IR Inten    --     22.0987                36.6421                11.0065

                     67                     68                     69
                      A                      A                      A
 Frequencies --   1426.0969              1429.4365              1432.5623
 Red. masses --      1.3123                 1.2572                 1.3205
 Frc consts  --      1.5725                 1.5135                 1.5966
 IR Inten    --      9.2819                 3.6119                 8.6856

                     70                     71                     72
                      A                      A                      A
 Frequencies --   1437.1271              1465.6364              1480.6053
 Red. masses --      1.2516                 1.6850                 1.7602
 Frc consts  --      1.5230                 2.1326                 2.2734
 IR Inten    --     20.1547                12.3659                11.7239

                     73                     74                     75
                      A                      A                      A
 Frequencies --   1495.8422              1500.7513              1511.3499
 Red. masses --      1.1248                 1.0441                 1.0564
 Frc consts  --      1.4829                 1.3855                 1.4217
 IR Inten    --     22.0039                 8.0109                 2.4460

                     76                     77                     78
                      A                      A                      A
 Frequencies --   1516.3196              1516.8856              1524.3422
 Red. masses --      1.2950                 1.0593                 1.1459
 Frc consts  --      1.7543                 1.4361                 1.5687
 IR Inten    --     77.2717                 4.2218                 1.9096

                     79                     80                     81
                      A                      A                      A
 Frequencies --   1528.8260              1530.7066              1537.8023
 Red. masses --      1.3044                 1.2678                 1.1352
 Frc consts  --      1.7963                 1.7502                 1.5816
 IR Inten    --     56.7405                17.1897                25.8864

                     82                     83                     84
                      A                      A                      A
 Frequencies --   1540.5802              1639.9383              1667.0865
 Red. masses --      1.5226                 5.3963                 6.0967
 Frc consts  --      2.1291                 8.5507                 9.9829
 IR Inten    --     22.8033               112.0249               125.8478

                     85                     86                     87
                      A                      A                      A
 Frequencies --   2927.6763              2951.9119              3033.1983
 Red. masses --      1.0812                 1.0728                 1.0830
 Frc consts  --      5.4602                 5.5080                 5.8707
 IR Inten    --    150.9700               115.5163                76.0988

                     88                     89                     90
                      A                      A                      A
 Frequencies --   3051.6767              3055.7847              3058.7435
 Red. masses --      1.0554                 1.0351                 1.0374
 Frc consts  --      5.7910                 5.6950                 5.7186
 IR Inten    --     58.3272                44.3595                43.3799

                     91                     92                     93
                      A                      A                      A
 Frequencies --   3060.8651              3095.0651              3103.0886
 Red. masses --      1.0362                 1.0925                 1.1034
 Frc consts  --      5.7199                 6.1661                 6.2599
 IR Inten    --     20.2835                10.5635               122.7176

                     94                     95                     96
                      A                      A                      A
 Frequencies --   3112.0497              3123.1584              3125.4339
 Red. masses --      1.1012                 1.1026                 1.1018
 Frc consts  --      6.2834                 6.3364                 6.3413
 IR Inten    --     30.2954                56.2950                63.4000

                     97                     98                     99
                      A                      A                      A
 Frequencies --   3127.8848              3134.9993              3143.4904
 Red. masses --      1.1023                 1.1021                 1.1017
 Frc consts  --      6.3541                 6.3818                 6.4141
 IR Inten    --     36.2740                84.5215                34.6599

                    100                    101                    102
                      A                      A                      A
 Frequencies --   3196.3372              3209.9050              3212.7810
 Red. masses --      1.0868                 1.0915                 1.0932
 Frc consts  --      6.5417                 6.6258                 6.6482
 IR Inten    --     11.5300                51.8710                13.4263

                    103                    104                    105
                      A                      A                      A
 Frequencies --   3246.5809              3493.4488              3726.0866
 Red. masses --      1.0918                 1.0738                 1.0659
 Frc consts  --      6.7800                 7.7210                 8.7193
 IR Inten    --     13.2426                 5.2027                91.1217

 - Thermochemistry -
 -------------------
 Temperature   298.150 Kelvin.  Pressure   1.00000 Atm.
 Atom     1 has atomic number  6 and mass  12.00000

 Molecular mass:   223.15723 amu.
 Principal axes and moments of inertia in atomic units:
                           1         2         3
     Eigenvalues --   991.50821********************
           X            0.99998   0.00624   0.00002
           Y           -0.00624   0.99995  -0.00740
           Z           -0.00007   0.00740   0.99997
 This molecule is an asymmetric top.
 Rotational symmetry number  1.
 Warning -- assumption of classical behavior for rotation
           may cause significant error
 Rotational temperatures (Kelvin)      0.08736     0.00720     0.00681
 Rotational constants (GHZ):           1.82020     0.15001     0.14193
    1 imaginary frequencies ignored.
 Zero-point vibrational energy     853440.2 (Joules/Mol)
                                  203.97711 (Kcal/Mol)
 Warning -- explicit consideration of  26 degrees of freedom as
           vibrations may cause significant error
 Vibrational temperatures:     31.39    50.56    63.14    91.32   100.82
          (Kelvin)            180.60   193.04   220.79   270.29   314.74
                              331.83   343.88   350.77   373.45   393.35
                              431.86   472.98   553.29   639.86   656.77
                              669.68   691.74   747.57   763.15   783.99
                              831.91   920.04  1012.54  1093.79  1138.67
                             1178.93  1220.89  1261.43  1287.09  1292.56
                             1335.94  1355.52  1370.94  1396.16  1406.60
                             1431.82  1453.92  1462.31  1516.61  1538.75
                             1560.35  1589.73  1614.15  1626.78  1637.56
                             1685.43  1711.97  1727.58  1735.60  1739.51
                             1779.39  1827.88  1861.38  1867.18  1912.76
                             1921.33  1955.37  1968.60  1991.89  2007.27
                             2051.84  2056.64  2061.14  2067.71  2108.72
                             2130.26  2152.18  2159.25  2174.50  2181.65
                             2182.46  2193.19  2199.64  2202.35  2212.55
                             2216.55  2359.51  2398.57  4212.27  4247.14
                             4364.10  4390.68  4396.59  4400.85  4403.90
                             4453.11  4464.65  4477.55  4493.53  4496.80
                             4500.33  4510.56  4522.78  4598.82  4618.34
                             4622.48  4671.11  5026.29  5361.01

 Zero-point correction=                           0.325058 (Hartree/Particle)
 Thermal correction to Energy=                    0.342079
 Thermal correction to Enthalpy=                  0.343023
 Thermal correction to Gibbs Free Energy=         0.278705
 Sum of electronic and zero-point Energies=           -712.902583
 Sum of electronic and thermal Energies=              -712.885562
 Sum of electronic and thermal Enthalpies=            -712.884618
 Sum of electronic and thermal Free Energies=         -712.948936

                     E (Thermal)             CV                S
                      KCal/Mol        Cal/Mol-Kelvin    Cal/Mol-Kelvin
 Total                  214.658             63.690            135.369
 Electronic               0.000              0.000              0.000
 Translational            0.889              2.981             42.111
 Rotational               0.889              2.981             33.383
 Vibrational            212.880             57.728             59.875
 Vibration     1          0.593              1.985              6.461
 Vibration     2          0.594              1.982              5.516
 Vibration     3          0.595              1.980              5.075
 Vibration     4          0.597              1.972              4.346
 Vibration     5          0.598              1.968              4.151
 Vibration     6          0.610              1.928              3.013
 Vibration     7          0.613              1.919              2.885
 Vibration     8          0.619              1.899              2.629
 Vibration     9          0.633              1.857              2.249
 Vibration    10          0.647              1.813              1.969
 Vibration    11          0.652              1.794              1.874
 Vibration    12          0.657              1.781              1.810
 Vibration    13          0.659              1.773              1.775
 Vibration    14          0.668              1.747              1.665
 Vibration    15          0.676              1.722              1.575
 Vibration    16          0.693              1.673              1.416
 Vibration    17          0.712              1.618              1.266
 Vibration    18          0.753              1.503              1.021
 Vibration    19          0.804              1.373              0.812
 Vibration    20          0.815              1.347              0.776
 Vibration    21          0.823              1.327              0.750
 Vibration    22          0.837              1.293              0.708
 Vibration    23          0.875              1.207              0.611
 Vibration    24          0.885              1.183              0.586
 Vibration    25          0.900              1.151              0.555
 Vibration    26          0.935              1.078              0.489

 Optimization completed.
    -- Stationary point found.
 Normal termination of Gaussian 16 at Wed Mar  2 05:34:06 2022.

 ------------------------------------------
 #p b3lyp/6-31G(d) geom=allcheck guess=read
 ------------------------------------------

 Structure from the checkpoint file:  "109.n.pdb.xyz.mst.wat.chk"
 -------------
 109.n.pdb.xyz
 -------------
 Charge =  0 Multiplicity = 1

 SCF Done:  E(RB3LYP) =  -713.215113023     A.U. after   11 cycles
 Normal termination of Gaussian 16 at Wed Mar  2 05:35:57 2022.
 Gaussian 16:  ES64L-G16RevA.03 25-Dec-2016

 ----------------------------------------------------------------------
 #p b3lyp/6-31G(d) scrf=(iefpcm,read,solvent=water) geom=allcheck guess
 =read
 ----------------------------------------------------------------------

 Structure from the checkpoint file:  "109.n.pdb.xyz.mst.wat.chk"
 -------------
 109.n.pdb.xyz
 -------------
 Charge =  0 Multiplicity = 1

                         Standard orientation:
 ---------------------------------------------------------------------
 Center     Atomic      Atomic             Coordinates (Angstroms)
 Number     Number       Type             X           Y           Z
 ---------------------------------------------------------------------
      1          6           0        6.100595   -0.850860   -0.261923
      2          6           0        5.001545    0.210935   -0.210253
      3          6           0        5.360867    1.321224    0.781901
      4          7           0        3.732146   -0.433314    0.167085
      5          6           0        2.553383    0.395794   -0.082999
      6          6           0        1.282007   -0.407283    0.158865
      7          8           0        1.272403   -1.481579   -0.780386
      8          6           0        0.033041    0.447645    0.001444
      9          8           0       -1.080701   -0.411323    0.258826
     10          6           0       -2.339836    0.092057    0.082823
     11          6           0       -3.393527   -0.809231    0.294832
     12          6           0       -4.720337   -0.408846    0.147939
     13          6           0       -5.844794   -1.388040    0.377641
     14          6           0       -4.988143    0.921117   -0.219198
     15          6           0       -3.941832    1.814022   -0.427668
     16          6           0       -2.609077    1.414029   -0.279868
     17          1           0        5.867396   -1.628388   -0.997260
     18          1           0        7.058958   -0.402454   -0.539518
     19          1           0        6.216843   -1.330894    0.715071
     20          1           0        4.916941    0.667668   -1.214650
     21          1           0        4.591141    2.098793    0.821820
     22          1           0        5.478169    0.907634    1.789297
     23          1           0        6.301777    1.800764    0.493842
     24          1           0        3.625629   -1.270991   -0.403789
     25          1           0        2.560830    1.254795    0.595023
     26          1           0        2.531835    0.796329   -1.113449
     27          1           0        1.303721   -0.804664    1.183217
     28          1           0        0.480366   -2.014723   -0.594974
     29          1           0       -0.031272    0.846264   -1.017401
     30          1           0        0.036683    1.284841    0.709069
     31          1           0       -3.155118   -1.830100    0.576059
     32          1           0       -5.459870   -2.369357    0.664974
     33          1           0       -6.452850   -1.513217   -0.524884
     34          1           0       -6.516993   -1.041767    1.169897
     35          1           0       -6.015774    1.250107   -0.338728
     36          1           0       -4.155289    2.840296   -0.709640
     37          1           0       -1.805096    2.120093   -0.442313
 ---------------------------------------------------------------------

 SCF Done:  E(RB3LYP) =  -713.226624314     A.U. after   10 cycles

 The electronic state is 1-A.
 Alpha  occ. eigenvalues --  -19.18255 -19.14553 -14.31220 -10.24980 -10.23867
 Alpha  occ. eigenvalues --  -10.23776 -10.20893 -10.20541 -10.19959 -10.19173
 Alpha  occ. eigenvalues --  -10.18616 -10.18352 -10.18078 -10.17938 -10.17021
 Alpha  occ. eigenvalues --  -10.16830  -1.06919  -1.01775  -0.90044  -0.85416
 Alpha  occ. eigenvalues --   -0.78542  -0.76947  -0.75878  -0.72620  -0.68683
 Alpha  occ. eigenvalues --   -0.68396  -0.66641  -0.60589  -0.59286  -0.57723
 Alpha  occ. eigenvalues --   -0.56436  -0.53436  -0.51850  -0.48941  -0.48667
 Alpha  occ. eigenvalues --   -0.47685  -0.46235  -0.45654  -0.44401  -0.43438
 Alpha  occ. eigenvalues --   -0.42201  -0.41596  -0.40944  -0.40072  -0.38636
 Alpha  occ. eigenvalues --   -0.38526  -0.38073  -0.37413  -0.37045  -0.36178
 Alpha  occ. eigenvalues --   -0.35577  -0.35100  -0.34014  -0.33158  -0.32937
 Alpha  occ. eigenvalues --   -0.32035  -0.31653  -0.27372  -0.24647  -0.22669
 Alpha  occ. eigenvalues --   -0.22188
 Alpha virt. eigenvalues --   -0.00061   0.00816   0.08300   0.09551   0.10146
 Alpha virt. eigenvalues --    0.10851   0.12183   0.12753   0.13093   0.13780
 Alpha virt. eigenvalues --    0.14633   0.15024   0.15160   0.15596   0.16188

 Mulliken charges:
               1
     1  C   -0.465079
     2  C    0.070774
     3  C   -0.450246
     4  N   -0.614448
     5  C   -0.126285
     6  C    0.100972
     7  O   -0.676473
     8  C   -0.047531
     9  O   -0.552024
    10  C    0.381990
    11  C   -0.262479
    12  C    0.164695
    13  C   -0.534579
    14  C   -0.201298
    15  C   -0.160710
    16  C   -0.218442
    17  H    0.148423
    18  H    0.150913
    19  H    0.147722
    20  H    0.110841
    21  H    0.150439
    22  H    0.143709
    23  H    0.146722
    24  H    0.326518
    25  H    0.154854
    26  H    0.124374
    27  H    0.137932
    28  H    0.438057
    29  H    0.157515
    30  H    0.159001
    31  H    0.140999
    32  H    0.164946
    33  H    0.170224
    34  H    0.170072
    35  H    0.137630
    36  H    0.150131
    37  H    0.160139
 Sum of Mulliken charges =  -0.00000

 Dipole moment (field-independent basis, Debye):
    X=             -0.9645    Y=              1.1771    Z=             -0.4282  Tot=              1.5809
 Quadrupole moment (field-independent basis, Debye-Ang):
   XX=            -89.8673   YY=            -90.9667   ZZ=           -101.8431
   XY=              4.7327   XZ=             -2.7708   YZ=             -1.3446

 Normal termination of Gaussian 16 at Wed Mar  2 05:38:12 2022.
