 Gaussian 16, Revision A.03,

 ----------------------------------------------------------------------
 #p b3lyp/6-31G(d) opt=(MaxStep=10,MaxCycles=1000) freq scf=(MaxCycle=2
 000,NoVarAcc,NoIncFock) scrf=(iefpcm,read,solvent=water)
 ----------------------------------------------------------------------

 ------------
 11.n.pdb.xyz
 ------------
 Symbolic Z-matrix:
 Charge =  0 Multiplicity = 1

 SCF Done:  E(RB3LYP) =  -790.410100670     A.U. after   12 cycles
 SCF Done:  E(RB3LYP) =  -790.412010856     A.U. after   10 cycles
 SCF Done:  E(RB3LYP) =  -790.409987814     A.U. after   12 cycles
 SCF Done:  E(RB3LYP) =  -790.412667892     A.U. after   10 cycles
 SCF Done:  E(RB3LYP) =  -790.412695293     A.U. after   10 cycles
 SCF Done:  E(RB3LYP) =  -790.412747884     A.U. after    9 cycles
 SCF Done:  E(RB3LYP) =  -790.412797914     A.U. after    9 cycles
 SCF Done:  E(RB3LYP) =  -790.412797624     A.U. after    8 cycles
 SCF Done:  E(RB3LYP) =  -790.412793430     A.U. after    8 cycles
 SCF Done:  E(RB3LYP) =  -790.412796497     A.U. after    8 cycles
 SCF Done:  E(RB3LYP) =  -790.412797814     A.U. after    7 cycles
 SCF Done:  E(RB3LYP) =  -790.412794940     A.U. after    8 cycles
 SCF Done:  E(RB3LYP) =  -790.412794929     A.U. after    6 cycles
 SCF Done:  E(RB3LYP) =  -790.412799120     A.U. after    8 cycles
 SCF Done:  E(RB3LYP) =  -790.412795494     A.U. after    8 cycles
 SCF Done:  E(RB3LYP) =  -790.412795740     A.U. after    6 cycles
 Optimization completed on the basis of negligible forces.
    -- Stationary point found.
 Normal termination of Gaussian 16 at Tue Mar  1 06:35:59 2022.

 --------------------------------------------------------------------
 #P Geom=AllCheck Guess=TCheck SCRF=Check GenChk RB3LYP/6-31G(d) Freq
 --------------------------------------------------------------------

 Structure from the checkpoint file:  "11.n.pdb.xyz.mst.wat.chk"
 ------------
 11.n.pdb.xyz
 ------------
 Charge =  0 Multiplicity = 1

 SCF Done:  E(RB3LYP) =  -790.412795740     A.U. after    1 cycles

  Exact polarizability: 228.345  13.199 266.766  12.158 -31.482 233.947
 Approx polarizability: 240.694  10.410 290.457  14.306 -40.183 274.167

                      1                      2                      3
                      A                      A                      A
 Frequencies --     27.1196                31.0929                35.5661
 Red. masses --      3.7878                 4.2631                 2.5970
 Frc consts  --      0.0016                 0.0024                 0.0019
 IR Inten    --      0.0797                 0.3145                 0.3964

                      4                      5                      6
                      A                      A                      A
 Frequencies --     36.8783                59.3884                64.5295
 Red. masses --      3.7265                 4.8719                 4.0590
 Frc consts  --      0.0030                 0.0101                 0.0100
 IR Inten    --      0.1096                 0.3247                 0.3283

                      7                      8                      9
                      A                      A                      A
 Frequencies --    105.2593               118.1078               171.9706
 Red. masses --      3.1756                 1.8576                 3.7029
 Frc consts  --      0.0207                 0.0153                 0.0645
 IR Inten    --      1.3489                 2.4650                 0.9864

                     10                     11                     12
                      A                      A                      A
 Frequencies --    184.8519               220.4308               224.9991
 Red. masses --      4.7411                 3.5096                 3.6399
 Frc consts  --      0.0954                 0.1005                 0.1086
 IR Inten    --      4.7373                 5.3519                 1.2093

                     13                     14                     15
                      A                      A                      A
 Frequencies --    245.7318               262.6712               273.6678
 Red. masses --      1.1815                 2.5102                 1.5211
 Frc consts  --      0.0420                 0.1020                 0.0671
 IR Inten    --      1.1624                 0.2361                 3.0717

                     16                     17                     18
                      A                      A                      A
 Frequencies --    300.2089               361.1403               376.7433
 Red. masses --      3.8312                 3.4532                 2.3866
 Frc consts  --      0.2034                 0.2654                 0.1996
 IR Inten    --      0.9208                11.4841                 5.5989

                     19                     20                     21
                      A                      A                      A
 Frequencies --    416.8966               419.0876               422.2309
 Red. masses --      2.9658                 3.0007                 2.5972
 Frc consts  --      0.3037                 0.3105                 0.2728
 IR Inten    --      0.2691                 0.4844                 0.8393

                     22                     23                     24
                      A                      A                      A
 Frequencies --    473.7361               483.5218               496.8918
 Red. masses --      3.3597                 3.6684                 3.3585
 Frc consts  --      0.4443                 0.5053                 0.4886
 IR Inten    --      3.3328                 0.6723                 7.5823

                     25                     26                     27
                      A                      A                      A
 Frequencies --    579.4663               623.9412               632.0031
 Red. masses --      4.2954                 5.1893                 6.3116
 Frc consts  --      0.8498                 1.1903                 1.4853
 IR Inten    --     13.7690                23.7145                 2.0455

                     28                     29                     30
                      A                      A                      A
 Frequencies --    635.0947               670.0935               714.2258
 Red. masses --      6.0221                 5.4887                 2.0747
 Frc consts  --      1.4311                 1.4521                 0.6236
 IR Inten    --      6.2248                15.3272                27.5924

                     31                     32                     33
                      A                      A                      A
 Frequencies --    720.1343               759.8792               774.6062
 Red. masses --      1.8061                 1.7804                 2.1201
 Frc consts  --      0.5519                 0.6057                 0.7495
 IR Inten    --     58.5417                56.8326                33.0240

                     34                     35                     36
                      A                      A                      A
 Frequencies --    826.9695               848.8806               865.5630
 Red. masses --      1.2309                 2.9579                 1.2515
 Frc consts  --      0.4960                 1.2558                 0.5524
 IR Inten    --      2.3026                 3.9044                 0.0091

                     37                     38                     39
                      A                      A                      A
 Frequencies --    870.8051               873.5700               881.5662
 Red. masses --      1.2501                 3.6634                 3.0412
 Frc consts  --      0.5585                 1.6471                 1.3925
 IR Inten    --      0.2728                37.1949                 7.3624

                     40                     41                     42
                      A                      A                      A
 Frequencies --    934.6091               946.6812               978.7425
 Red. masses --      1.4072                 1.5810                 1.3555
 Frc consts  --      0.7242                 0.8348                 0.7650
 IR Inten    --      3.1802                 3.8528                 0.0275

                     43                     44                     45
                      A                      A                      A
 Frequencies --    983.6818              1006.6885              1007.6447
 Red. masses --      1.3442                 1.2546                 1.2522
 Frc consts  --      0.7664                 0.7491                 0.7491
 IR Inten    --      0.1776                 0.6406                 0.6842

                     46                     47                     48
                      A                      A                      A
 Frequencies --   1016.4406              1016.9523              1026.0712
 Red. masses --      6.2127                 6.2194                 4.3047
 Frc consts  --      3.7818                 3.7897                 2.6702
 IR Inten    --      2.6049                 1.2524                34.0711

                     49                     50                     51
                      A                      A                      A
 Frequencies --   1054.2983              1057.7267              1060.4398
 Red. masses --      2.2575                 2.1685                 2.3646
 Frc consts  --      1.4785                 1.4294                 1.5667
 IR Inten    --     16.0772                31.5078                39.2664

                     52                     53                     54
                      A                      A                      A
 Frequencies --   1071.8769              1091.3257              1106.1742
 Red. masses --      1.7647                 2.4773                 1.5924
 Frc consts  --      1.1945                 1.7384                 1.1480
 IR Inten    --      8.6528                36.1627                 1.9478

                     55                     56                     57
                      A                      A                      A
 Frequencies --   1109.7756              1122.2121              1130.2078
 Red. masses --      1.9441                 1.7181                 1.3200
 Frc consts  --      1.4107                 1.2748                 0.9935
 IR Inten    --     74.6158                80.5671                12.6016

                     58                     59                     60
                      A                      A                      A
 Frequencies --   1136.5693              1186.2075              1186.3329
 Red. masses --      3.2366                 1.0989                 1.0953
 Frc consts  --      2.4634                 0.9110                 0.9082
 IR Inten    --    207.1554                 0.5271                 0.4340

                     61                     62                     63
                      A                      A                      A
 Frequencies --   1199.4875              1203.3671              1204.7731
 Red. masses --      1.5756                 1.1418                 1.3577
 Frc consts  --      1.3356                 0.9742                 1.1611
 IR Inten    --     13.5619                 2.0490                13.1254

                     64                     65                     66
                      A                      A                      A
 Frequencies --   1212.5948              1225.6718              1228.2478
 Red. masses --      2.1627                 2.2120                 1.6885
 Frc consts  --      1.8736                 1.9579                 1.5008
 IR Inten    --     27.0351                 4.6596                10.0708

                     67                     68                     69
                      A                      A                      A
 Frequencies --   1280.3057              1304.5606              1308.1158
 Red. masses --      1.4862                 2.0072                 2.4950
 Frc consts  --      1.4353                 2.0127                 2.5154
 IR Inten    --     19.3297                26.0160                26.4235

                     70                     71                     72
                      A                      A                      A
 Frequencies --   1327.2554              1336.5535              1362.7543
 Red. masses --      1.2390                 1.6480                 2.9794
 Frc consts  --      1.2860                 1.7345                 3.2600
 IR Inten    --     21.1676                13.4387                 2.3121

                     73                     74                     75
                      A                      A                      A
 Frequencies --   1364.4975              1369.2295              1382.4497
 Red. masses --      2.5298                 1.3140                 1.4826
 Frc consts  --      2.7751                 1.4515                 1.6694
 IR Inten    --      6.4963                26.1227                13.3530

                     76                     77                     78
                      A                      A                      A
 Frequencies --   1404.5544              1453.0138              1463.0082
 Red. masses --      1.3426                 1.4260                 1.1972
 Frc consts  --      1.5606                 1.7738                 1.5098
 IR Inten    --      8.3606                 3.6467                 3.6452

                     79                     80                     81
                      A                      A                      A
 Frequencies --   1487.3994              1494.9168              1501.3888
 Red. masses --      1.1985                 2.1835                 2.0918
 Frc consts  --      1.5623                 2.8749                 2.7782
 IR Inten    --      0.5635                 9.7155                14.0345

                     82                     83                     84
                      A                      A                      A
 Frequencies --   1504.9030              1512.3491              1519.7886
 Red. masses --      1.0536                 1.0578                 1.0546
 Frc consts  --      1.4059                 1.4255                 1.4352
 IR Inten    --     12.5375                11.8727                12.8896

                     85                     86                     87
                      A                      A                      A
 Frequencies --   1521.7586              1532.9711              1540.2625
 Red. masses --      1.0950                 1.0531                 2.1949
 Frc consts  --      1.4940                 1.4581                 3.0680
 IR Inten    --      4.5856                10.3063                13.3609

                     88                     89                     90
                      A                      A                      A
 Frequencies --   1543.4932              1552.6437              1642.2888
 Red. masses --      2.2050                 1.0895                 5.7001
 Frc consts  --      3.0950                 1.5475                 9.0581
 IR Inten    --     16.0019                 4.4255                 1.1190

                     91                     92                     93
                      A                      A                      A
 Frequencies --   1644.2376              1658.6709              1664.0657
 Red. masses --      5.5526                 5.6170                 5.6217
 Frc consts  --      8.8445                 9.1049                 9.1718
 IR Inten    --      0.7517                 6.7816                 3.8846

                     94                     95                     96
                      A                      A                      A
 Frequencies --   2954.6423              2958.1974              2966.5021
 Red. masses --      1.0704                 1.0597                 1.0627
 Frc consts  --      5.5058                 5.4637                 5.5100
 IR Inten    --     61.0555                70.3985               273.2259

                     97                     98                     99
                      A                      A                      A
 Frequencies --   3007.8212              3027.3499              3073.0253
 Red. masses --      1.0829                 1.0604                 1.0980
 Frc consts  --      5.7720                 5.7261                 6.1091
 IR Inten    --     71.5766                89.9262                40.0392

                    100                    101                    102
                      A                      A                      A
 Frequencies --   3094.2442              3099.1179              3101.7143
 Red. masses --      1.0720                 1.0721                 1.0908
 Frc consts  --      6.0472                 6.0669                 6.1828
 IR Inten    --     44.1269                68.7704                89.5343

                    103                    104                    105
                      A                      A                      A
 Frequencies --   3141.0523              3142.8748              3193.1191
 Red. masses --      1.1046                 1.1034                 1.0868
 Frc consts  --      6.4208                 6.4213                 6.5285
 IR Inten    --     51.2353                55.6665                12.2365

                    106                    107                    108
                      A                      A                      A
 Frequencies --   3195.7781              3199.5269              3202.2770
 Red. masses --      1.0855                 1.0865                 1.0879
 Frc consts  --      6.5321                 6.5533                 6.5730
 IR Inten    --      6.2941                 0.2286                 3.9485

                    109                    110                    111
                      A                      A                      A
 Frequencies --   3207.7561              3210.9202              3214.6491
 Red. masses --      1.0904                 1.0926                 1.0940
 Frc consts  --      6.6103                 6.6368                 6.6606
 IR Inten    --     22.0411                56.6025                63.7336

                    112                    113                    114
                      A                      A                      A
 Frequencies --   3222.7684              3224.2644              3241.4620
 Red. masses --      1.0968                 1.0978                 1.0919
 Frc consts  --      6.7115                 6.7241                 6.7597
 IR Inten    --     46.9558                30.8869                12.5355

 - Thermochemistry -
 -------------------
 Temperature   298.150 Kelvin.  Pressure   1.00000 Atm.
 Atom     1 has atomic number  6 and mass  12.00000

 Molecular mass:   255.16231 amu.
 Principal axes and moments of inertia in atomic units:
                           1         2         3
     Eigenvalues --  4141.013287712.18931**********
           X            0.99991  -0.01269   0.00397
           Y            0.01272   0.99989  -0.00704
           Z           -0.00388   0.00709   0.99997
 This molecule is an asymmetric top.
 Rotational symmetry number  1.
 Warning -- assumption of classical behavior for rotation
           may cause significant error
 Rotational temperatures (Kelvin)      0.02092     0.01123     0.00808
 Rotational constants (GHZ):           0.43582     0.23401     0.16842
 Zero-point vibrational energy     908867.7 (Joules/Mol)
                                  217.22460 (Kcal/Mol)
 Warning -- explicit consideration of  25 degrees of freedom as
           vibrations may cause significant error
 Vibrational temperatures:     39.02    44.74    51.17    53.06    85.45
          (Kelvin)             92.84   151.44   169.93   247.43   265.96
                              317.15   323.72   353.55   377.93   393.75
                              431.93   519.60   542.05   599.82   602.97
                              607.50   681.60   695.68   714.92   833.72
                              897.71   909.31   913.76   964.12  1027.61
                             1036.11  1093.30  1114.49  1189.82  1221.35
                             1245.35  1252.89  1256.87  1268.38  1344.69
                             1362.06  1408.19  1415.30  1448.40  1449.78
                             1462.43  1463.17  1476.29  1516.90  1521.83
                             1525.74  1542.19  1570.17  1591.54  1596.72
                             1614.61  1626.12  1635.27  1706.69  1706.87
                             1725.79  1731.38  1733.40  1744.65  1763.47
                             1767.17  1842.07  1876.97  1882.09  1909.62
                             1923.00  1960.70  1963.21  1970.02  1989.04
                             2020.84  2090.56  2104.94  2140.04  2150.85
                             2160.16  2165.22  2175.93  2186.64  2189.47
                             2205.60  2216.09  2220.74  2233.91  2362.89
                             2365.69  2386.46  2394.22  4251.07  4256.19
                             4268.13  4327.58  4355.68  4421.40  4451.93
                             4458.94  4462.68  4519.27  4521.90  4594.19
                             4598.01  4603.41  4607.36  4615.25  4619.80
                             4625.16  4636.84  4639.00  4663.74

 Zero-point correction=                           0.346169 (Hartree/Particle)
 Thermal correction to Energy=                    0.364269
 Thermal correction to Enthalpy=                  0.365213
 Thermal correction to Gibbs Free Energy=         0.297322
 Sum of electronic and zero-point Energies=           -790.066626
 Sum of electronic and thermal Energies=              -790.048527
 Sum of electronic and thermal Enthalpies=            -790.047583
 Sum of electronic and thermal Free Energies=         -790.115474

                     E (Thermal)             CV                S
                      KCal/Mol        Cal/Mol-Kelvin    Cal/Mol-Kelvin
 Total                  228.582             68.769            142.889
 Electronic               0.000              0.000              0.000
 Translational            0.889              2.981             42.510
 Rotational               0.889              2.981             34.192
 Vibrational            226.805             62.807             66.187
 Vibration     1          0.593              1.984              6.030
 Vibration     2          0.594              1.983              5.758
 Vibration     3          0.594              1.982              5.492
 Vibration     4          0.594              1.982              5.420
 Vibration     5          0.597              1.974              4.477
 Vibration     6          0.597              1.971              4.314
 Vibration     7          0.605              1.945              3.355
 Vibration     8          0.608              1.934              3.131
 Vibration     9          0.626              1.877              2.414
 Vibration    10          0.631              1.861              2.279
 Vibration    11          0.647              1.810              1.956
 Vibration    12          0.650              1.803              1.918
 Vibration    13          0.660              1.770              1.761
 Vibration    14          0.670              1.741              1.644
 Vibration    15          0.676              1.722              1.573
 Vibration    16          0.693              1.673              1.416
 Vibration    17          0.735              1.552              1.117
 Vibration    18          0.747              1.520              1.052
 Vibration    19          0.780              1.434              0.903
 Vibration    20          0.782              1.429              0.895
 Vibration    21          0.785              1.422              0.884
 Vibration    22          0.831              1.308              0.727
 Vibration    23          0.840              1.287              0.701
 Vibration    24          0.852              1.257              0.666
 Vibration    25          0.936              1.076              0.486

 Optimization completed.
    -- Stationary point found.
 Normal termination of Gaussian 16 at Tue Mar  1 07:23:32 2022.

 ------------------------------------------
 #p b3lyp/6-31G(d) geom=allcheck guess=read
 ------------------------------------------

 Structure from the checkpoint file:  "11.n.pdb.xyz.mst.wat.chk"
 ------------
 11.n.pdb.xyz
 ------------
 Charge =  0 Multiplicity = 1

 SCF Done:  E(RB3LYP) =  -790.405436117     A.U. after   11 cycles
 Normal termination of Gaussian 16 at Tue Mar  1 07:26:41 2022.
 Gaussian 16:  ES64L-G16RevA.03 25-Dec-2016

 ----------------------------------------------------------------------
 #p b3lyp/6-31G(d) scrf=(iefpcm,read,solvent=water) geom=allcheck guess
 =read
 ----------------------------------------------------------------------

 Structure from the checkpoint file:  "11.n.pdb.xyz.mst.wat.chk"
 ------------
 11.n.pdb.xyz
 ------------
 Charge =  0 Multiplicity = 1

                         Standard orientation:
 ---------------------------------------------------------------------
 Center     Atomic      Atomic             Coordinates (Angstroms)
 Number     Number       Type             X           Y           Z
 ---------------------------------------------------------------------
      1          6           0        4.673247    0.463697    0.166056
      2          7           0        4.231085   -0.830498   -0.345993
      3          6           0        5.195535   -1.868004    0.006513
      4          6           0        2.894030   -1.183482    0.128070
      5          6           0        1.802446   -0.368376   -0.556348
      6          8           0        0.552014   -0.833732   -0.058727
      7          6           0       -0.568959   -0.184646   -0.649929
      8          6           0       -0.681560    1.271159   -0.206901
      9          6           0       -0.673518    1.603084    1.154814
     10          6           0       -0.787765    2.932416    1.558069
     11          6           0       -0.917593    3.947937    0.605071
     12          6           0       -0.924541    3.625637   -0.752247
     13          6           0       -0.801206    2.292572   -1.153656
     14          6           0       -1.818881   -0.982128   -0.302246
     15          6           0       -3.016604   -0.715854   -0.979230
     16          6           0       -4.178018   -1.423257   -0.673318
     17          6           0       -4.159507   -2.408444    0.317884
     18          6           0       -2.970238   -2.678940    0.994957
     19          6           0       -1.805447   -1.971003    0.686325
     20          1           0        5.666905    0.689108   -0.231385
     21          1           0        4.731710    0.485508    1.269707
     22          1           0        3.992869    1.256974   -0.153461
     23          1           0        4.880332   -2.823509   -0.421062
     24          1           0        5.307754   -2.000375    1.098148
     25          1           0        6.175787   -1.608391   -0.403703
     26          1           0        2.799505   -1.068611    1.223581
     27          1           0        2.721828   -2.239925   -0.100043
     28          1           0        1.851410   -0.510569   -1.645039
     29          1           0        1.913562    0.703280   -0.353449
     30          1           0       -0.446168   -0.189773   -1.743444
     31          1           0       -0.574258    0.816897    1.896462
     32          1           0       -0.778342    3.178368    2.615190
     33          1           0       -1.009255    4.982030    0.920932
     34          1           0       -1.017803    4.407999   -1.498631
     35          1           0       -0.794887    2.041415   -2.210529
     36          1           0       -3.040365    0.049427   -1.749449
     37          1           0       -5.096279   -1.207574   -1.210096
     38          1           0       -5.062925   -2.960162    0.556311
     39          1           0       -2.943969   -3.444215    1.764257
     40          1           0       -0.879661   -2.188766    1.204165
 ---------------------------------------------------------------------

 SCF Done:  E(RB3LYP) =  -790.411690598     A.U. after   10 cycles

 The electronic state is 1-A.
 Alpha  occ. eigenvalues --  -19.15567 -14.32838 -10.24783 -10.22810 -10.20551
 Alpha  occ. eigenvalues --  -10.19928 -10.19839 -10.19826 -10.19747 -10.19245
 Alpha  occ. eigenvalues --  -10.19221 -10.19188 -10.19135 -10.19096 -10.19069
 Alpha  occ. eigenvalues --  -10.19019 -10.19012 -10.18909 -10.18723  -1.03946
 Alpha  occ. eigenvalues --   -0.92032  -0.86172  -0.85197  -0.78911  -0.74861
 Alpha  occ. eigenvalues --   -0.74527  -0.74316  -0.73867  -0.70199  -0.67442
 Alpha  occ. eigenvalues --   -0.63751  -0.60843  -0.60123  -0.59876  -0.57887
 Alpha  occ. eigenvalues --   -0.57083  -0.52102  -0.51445  -0.50138  -0.48517
 Alpha  occ. eigenvalues --   -0.47168  -0.46420  -0.45493  -0.45246  -0.44359
 Alpha  occ. eigenvalues --   -0.44066  -0.42918  -0.42595  -0.42002  -0.41770
 Alpha  occ. eigenvalues --   -0.41592  -0.38956  -0.38058  -0.37030  -0.36756
 Alpha  occ. eigenvalues --   -0.36398  -0.36095  -0.35701  -0.34676  -0.34418
 Alpha  occ. eigenvalues --   -0.34057  -0.33407  -0.31540  -0.26949  -0.25513
 Alpha  occ. eigenvalues --   -0.25398  -0.25079  -0.23965  -0.21886
 Alpha virt. eigenvalues --   -0.01477  -0.00969  -0.00140   0.00739   0.08480
 Alpha virt. eigenvalues --    0.09278   0.10519   0.10604   0.12087   0.12676
 Alpha virt. eigenvalues --    0.13485   0.14590   0.14970   0.15430   0.15580

 Mulliken charges:
               1
     1  C   -0.313227
     2  N   -0.408714
     3  C   -0.303012
     4  C   -0.135836
     5  C   -0.021249
     6  O   -0.518248
     7  C    0.021709
     8  C    0.151600
     9  C   -0.187389
    10  C   -0.148569
    11  C   -0.147720
    12  C   -0.149511
    13  C   -0.205447
    14  C    0.110488
    15  C   -0.187071
    16  C   -0.154159
    17  C   -0.147760
    18  C   -0.152974
    19  C   -0.193126
    20  H    0.158194
    21  H    0.127691
    22  H    0.162122
    23  H    0.158074
    24  H    0.126889
    25  H    0.156306
    26  H    0.125807
    27  H    0.152704
    28  H    0.136568
    29  H    0.142238
    30  H    0.146132
    31  H    0.149188
    32  H    0.151007
    33  H    0.150791
    34  H    0.151446
    35  H    0.149471
    36  H    0.145243
    37  H    0.149859
    38  H    0.148260
    39  H    0.148667
    40  H    0.153559
 Sum of Mulliken charges =  -0.00000

 Dipole moment (field-independent basis, Debye):
    X=              0.6199    Y=              1.1899    Z=             -0.0119  Tot=              1.3417
 Quadrupole moment (field-independent basis, Debye-Ang):
   XX=           -105.3919   YY=           -105.7012   ZZ=           -108.2086
   XY=             -0.1185   XZ=              4.5694   YZ=             -3.5310

 Normal termination of Gaussian 16 at Tue Mar  1 07:30:25 2022.
