 Gaussian 16, Revision A.03,

 ----------------------------------------------------------------------
 #p b3lyp/6-31G(d) opt=(MaxStep=10,MaxCycles=1000) freq scf=(MaxCycle=2
 000,NoVarAcc,NoIncFock) scrf=(iefpcm,read,solvent=water)
 ----------------------------------------------------------------------

 -------------
 110.n.pdb.xyz
 -------------
 Symbolic Z-matrix:
 Charge =  0 Multiplicity = 1

 SCF Done:  E(RB3LYP) =  -1918.18435167     A.U. after   11 cycles
 SCF Done:  E(RB3LYP) =  -1918.18526436     A.U. after    9 cycles
 SCF Done:  E(RB3LYP) =  -1918.18538686     A.U. after    9 cycles
 SCF Done:  E(RB3LYP) =  -1918.18538792     A.U. after    8 cycles
 SCF Done:  E(RB3LYP) =  -1918.18538687     A.U. after    8 cycles
 SCF Done:  E(RB3LYP) =  -1918.18538813     A.U. after    8 cycles
 Optimization completed.
    -- Stationary point found.
 Normal termination of Gaussian 16 at Tue Mar  1 04:08:02 2022.

 --------------------------------------------------------------------
 #P Geom=AllCheck Guess=TCheck SCRF=Check GenChk RB3LYP/6-31G(d) Freq
 --------------------------------------------------------------------

 Structure from the checkpoint file:  "110.n.pdb.xyz.mst.wat.chk"
 -------------
 110.n.pdb.xyz
 -------------
 Charge =  0 Multiplicity = 1

 SCF Done:  E(RB3LYP) =  -1918.18538813     A.U. after    1 cycles

  Exact polarizability:  85.044  -0.004  73.746  12.135   0.001  68.635
 Approx polarizability:  97.858  -0.006  88.781  18.020   0.001  81.768

                      1                      2                      3
                      A                      A                      A
 Frequencies --    110.2104               154.6554               242.9548
 Red. masses --      8.8274                30.3563                10.5856
 Frc consts  --      0.0632                 0.4278                 0.3681
 IR Inten    --      2.7290                 1.2587                 1.1671

                      4                      5                      6
                      A                      A                      A
 Frequencies --    243.1247               308.1946               333.4367
 Red. masses --     12.8598                20.5435                 3.7276
 Frc consts  --      0.4479                 1.1497                 0.2442
 IR Inten    --      0.9105                 1.8054                 2.5642

                      7                      8                      9
                      A                      A                      A
 Frequencies --    379.7379               539.3147               679.6018
 Red. masses --     21.1031                 7.9509                 4.6180
 Frc consts  --      1.7929                 1.3625                 1.2566
 IR Inten    --      5.1503                46.9138               210.4291

                     10                     11                     12
                      A                      A                      A
 Frequencies --    718.4994               790.5710               971.3188
 Red. masses --     11.5334                 7.1105                 1.7018
 Frc consts  --      3.5080                 2.6184                 0.9460
 IR Inten    --    274.1814                56.5842                85.7630

                     13                     14                     15
                      A                      A                      A
 Frequencies --   1062.8922              1235.3895              1327.6479
 Red. masses --      7.0168                 1.0786                 1.1992
 Frc consts  --      4.6705                 0.9699                 1.2454
 IR Inten    --     24.4797                19.3960                17.4204

                     16                     17                     18
                      A                      A                      A
 Frequencies --   1475.6933              3153.2998              3225.2422
 Red. masses --      1.0811                 1.0568                 1.1123
 Frc consts  --      1.3872                 6.1909                 6.8168
 IR Inten    --     10.5389                 6.0237                 1.3734

 - Thermochemistry -
 -------------------
 Temperature   298.150 Kelvin.  Pressure   1.00000 Atm.
 Atom     1 has atomic number 17 and mass  34.96885

 Molecular mass:   165.89106 amu.
 Principal axes and moments of inertia in atomic units:
                           1         2         3
     Eigenvalues --   991.698671681.958581773.45160
           X            0.99993   0.00000  -0.01198
           Y           -0.00000   1.00000  -0.00003
           Z            0.01198   0.00003   0.99993
 This molecule is an asymmetric top.
 Rotational symmetry number  1.
 Warning -- assumption of classical behavior for rotation
           may cause significant error
 Rotational temperatures (Kelvin)      0.08734     0.05150     0.04884
 Rotational constants (GHZ):           1.81985     1.07300     1.01764
 Zero-point vibrational energy     101394.2 (Joules/Mol)
                                   24.23379 (Kcal/Mol)
 Warning -- explicit consideration of   8 degrees of freedom as
           vibrations may cause significant error
 Vibrational temperatures:    158.57   222.51   349.56   349.80   443.42
          (Kelvin)            479.74   546.36   775.95   977.80  1033.76
                             1137.46  1397.51  1529.26  1777.45  1910.19
                             2123.19  4536.90  4640.40

 Zero-point correction=                           0.038619 (Hartree/Particle)
 Thermal correction to Energy=                    0.045519
 Thermal correction to Enthalpy=                  0.046463
 Thermal correction to Gibbs Free Energy=         0.005866
 Sum of electronic and zero-point Energies=          -1918.146769
 Sum of electronic and thermal Energies=             -1918.139869
 Sum of electronic and thermal Enthalpies=           -1918.138925
 Sum of electronic and thermal Free Energies=        -1918.179522

                     E (Thermal)             CV                S
                      KCal/Mol        Cal/Mol-Kelvin    Cal/Mol-Kelvin
 Total                   28.563             22.744             85.443
 Electronic               0.000              0.000              0.000
 Translational            0.889              2.981             41.227
 Rotational               0.889              2.981             29.471
 Vibrational             26.786             16.782             14.745
 Vibration     1          0.606              1.941              3.265
 Vibration     2          0.620              1.897              2.614
 Vibration     3          0.659              1.774              1.781
 Vibration     4          0.659              1.774              1.780
 Vibration     5          0.698              1.658              1.372
 Vibration     6          0.715              1.609              1.243
 Vibration     7          0.750              1.513              1.040
 Vibration     8          0.894              1.163              0.567

 Optimization completed.
    -- Stationary point found.
 Normal termination of Gaussian 16 at Tue Mar  1 04:09:19 2022.

 ------------------------------------------
 #p b3lyp/6-31G(d) geom=allcheck guess=read
 ------------------------------------------

 Structure from the checkpoint file:  "110.n.pdb.xyz.mst.wat.chk"
 -------------
 110.n.pdb.xyz
 -------------
 Charge =  0 Multiplicity = 1

 SCF Done:  E(RB3LYP) =  -1918.18325405     A.U. after   10 cycles

 1\1\GINC-PIRINEUS5\SP\RB3LYP\6-31G(d)\C2H2Cl4\UBATOR01\01-Mar-2022\0\\
 #p b3lyp/6-31G(d) geom=allcheck guess=read\\110.n.pdb.xyz\\0,1\Cl,0,-1
 .071179555,-1.9224469562,-0.1002561426\C,0,-0.8037972427,-0.146138486,
 -0.0338072513\C,0,0.6757477644,0.240908965,0.0323873485\Cl,0,1.5668692
 381,-0.322518875,-1.4196607469\Cl,0,1.4603393572,-0.4160865418,1.50644
 1858\Cl,0,0.7195253078,2.0436255424,0.0917061159\H,0,-1.3055932158,0.2
 32970386,0.8541717453\H,0,-1.240911654,0.2896859656,-0.9299829269\\Ver
 sion=ES64L-G16RevA.03\State=1-A\HF=-1918.183254\RMSD=4.196e-09\Dipole=

 Normal termination of Gaussian 16 at Tue Mar  1 04:09:29 2022.
 Gaussian 16:  ES64L-G16RevA.03 25-Dec-2016

 ----------------------------------------------------------------------
 #p b3lyp/6-31G(d) scrf=(iefpcm,read,solvent=water) geom=allcheck guess
 =read
 ----------------------------------------------------------------------

 Structure from the checkpoint file:  "110.n.pdb.xyz.mst.wat.chk"
 -------------
 110.n.pdb.xyz
 -------------
 Charge =  0 Multiplicity = 1

                         Standard orientation:
 ---------------------------------------------------------------------
 Center     Atomic      Atomic             Coordinates (Angstroms)
 Number     Number       Type             X           Y           Z
 ---------------------------------------------------------------------
      1         17           0       -2.379553   -0.000092    0.364216
      2          6           0       -0.736961   -0.000200    1.094332
      3          6           0        0.387022    0.000031    0.055147
      4         17           0        0.323897    1.465001   -0.979198
      5         17           0        0.323819   -1.464534   -0.979800
      6         17           0        1.931376   -0.000281    0.987987
      7          1           0       -0.646072   -0.893406    1.709110
      8          1           0       -0.646455    0.892822    1.709527
 ---------------------------------------------------------------------

 SCF Done:  E(RB3LYP) =  -1918.18514152     A.U. after   10 cycles

 The electronic state is 1-A.
 Alpha  occ. eigenvalues -- -101.57802-101.57628-101.57628-101.55868 -10.39097
 Alpha  occ. eigenvalues --  -10.28185  -9.49488  -9.49312  -9.49310  -9.47519
 Alpha  occ. eigenvalues --   -7.25953  -7.25781  -7.25779  -7.24854  -7.24846
 Alpha  occ. eigenvalues --   -7.24675  -7.24675  -7.24668  -7.24667  -7.23945
 Alpha  occ. eigenvalues --   -7.22927  -7.22891  -0.96399  -0.87137  -0.85023
 Alpha  occ. eigenvalues --   -0.84990  -0.73464  -0.61146  -0.51813  -0.50368
 Alpha  occ. eigenvalues --   -0.49009  -0.44644  -0.42914  -0.36431  -0.36333
 Alpha  occ. eigenvalues --   -0.34601  -0.33454  -0.33064  -0.32027  -0.31955
 Alpha  occ. eigenvalues --   -0.31440
 Alpha virt. eigenvalues --   -0.05090  -0.02744  -0.00465   0.03084   0.11356
 Alpha virt. eigenvalues --    0.14140   0.14466   0.27995   0.32229   0.34391
 Alpha virt. eigenvalues --    0.37840   0.38444   0.39123   0.40928   0.41027

 Mulliken charges:
               1
     1  Cl  -0.047857
     2  C   -0.351696
     3  C   -0.274125
     4  Cl   0.051873
     5  Cl   0.051860
     6  Cl   0.047099
     7  H    0.261424
     8  H    0.261422
 Sum of Mulliken charges =  -0.00000

 Dipole moment (field-independent basis, Debye):
    X=              0.3750    Y=             -0.0003    Z=              2.1170  Tot=              2.1499
 Quadrupole moment (field-independent basis, Debye-Ang):
   XX=            -66.4001   YY=            -61.7187   ZZ=            -59.2258
   XY=             -0.0004   XZ=             -0.2868   YZ=             -0.0005

 1\1\GINC-PIRINEUS5\SP\RB3LYP\6-31G(d)\C2H2Cl4\UBATOR01\01-Mar-2022\0\\
 #p b3lyp/6-31G(d) scrf=(iefpcm,read,solvent=water) geom=allcheck guess
 =read\\110.n.pdb.xyz\\0,1\Cl,0,-1.071179555,-1.9224469562,-0.100256142
 6\C,0,-0.8037972427,-0.146138486,-0.0338072513\C,0,0.6757477644,0.2409
 08965,0.0323873485\Cl,0,1.5668692381,-0.322518875,-1.4196607469\Cl,0,1
 .4603393572,-0.4160865418,1.506441858\Cl,0,0.7195253078,2.0436255424,0
 .0917061159\H,0,-1.3055932158,0.232970386,0.8541717453\H,0,-1.24091165
 4,0.2896859656,-0.9299829269\\Version=ES64L-G16RevA.03\State=1-A\HF=-1

 Normal termination of Gaussian 16 at Tue Mar  1 04:09:43 2022.
