 Gaussian 16, Revision A.03,

 ----------------------------------------------------------------------
 #p b3lyp/6-31G(d) opt=(MaxStep=10,MaxCycles=1000) freq scf=(MaxCycle=2
 000,NoVarAcc,NoIncFock) scrf=(iefpcm,read,solvent=water)
 ----------------------------------------------------------------------

 -------------
 111.n.pdb.xyz
 -------------
 Symbolic Z-matrix:
 Charge =  0 Multiplicity = 1

 SCF Done:  E(RB3LYP) =  -940.799688616     A.U. after   13 cycles
 SCF Done:  E(RB3LYP) =  -940.804244994     A.U. after   10 cycles
 SCF Done:  E(RB3LYP) =  -940.805386529     A.U. after   10 cycles
 SCF Done:  E(RB3LYP) =  -940.806763951     A.U. after   10 cycles
 SCF Done:  E(RB3LYP) =  -940.806840594     A.U. after    9 cycles
 SCF Done:  E(RB3LYP) =  -940.806906415     A.U. after    9 cycles
 SCF Done:  E(RB3LYP) =  -940.806920620     A.U. after    8 cycles
 SCF Done:  E(RB3LYP) =  -940.806962034     A.U. after    8 cycles
 SCF Done:  E(RB3LYP) =  -940.806959754     A.U. after    7 cycles
 SCF Done:  E(RB3LYP) =  -940.806958781     A.U. after    6 cycles
 SCF Done:  E(RB3LYP) =  -940.806957727     A.U. after    6 cycles
 Optimization completed.
    -- Stationary point found.
 Normal termination of Gaussian 16 at Tue Mar  1 06:28:25 2022.

 --------------------------------------------------------------------
 #P Geom=AllCheck Guess=TCheck SCRF=Check GenChk RB3LYP/6-31G(d) Freq
 --------------------------------------------------------------------

 Structure from the checkpoint file:  "111.n.pdb.xyz.mst.wat.chk"
 -------------
 111.n.pdb.xyz
 -------------
 Charge =  0 Multiplicity = 1

 SCF Done:  E(RB3LYP) =  -940.806957727     A.U. after    1 cycles

  Exact polarizability: 313.690   9.162 282.748  -1.628  22.102 178.662
 Approx polarizability: 321.931  11.228 308.952  -2.266  31.150 200.778

                      1                      2                      3
                      A                      A                      A
 Frequencies --     46.4626                56.8252                82.5307
 Red. masses --      5.0366                 3.4277                 3.3606
 Frc consts  --      0.0064                 0.0065                 0.0135
 IR Inten    --      1.2767                 3.5962                 0.3262

                      4                      5                      6
                      A                      A                      A
 Frequencies --    109.7607               115.0286               155.9674
 Red. masses --      4.6643                 3.8432                 3.6269
 Frc consts  --      0.0331                 0.0300                 0.0520
 IR Inten    --      0.6510                 4.2151                 3.2869

                      7                      8                      9
                      A                      A                      A
 Frequencies --    179.0952               195.3894               209.9993
 Red. masses --      2.9424                 3.2313                 3.3840
 Frc consts  --      0.0556                 0.0727                 0.0879
 IR Inten    --      4.5613                 1.5976                 0.5187

                     10                     11                     12
                      A                      A                      A
 Frequencies --    234.2567               244.7764               257.6293
 Red. masses --      2.1427                 1.6828                 1.3279
 Frc consts  --      0.0693                 0.0594                 0.0519
 IR Inten    --      4.4785                 1.3629                 0.7914

                     13                     14                     15
                      A                      A                      A
 Frequencies --    267.2258               301.7013               307.6999
 Red. masses --      2.5311                 1.7164                 3.7143
 Frc consts  --      0.1065                 0.0920                 0.2072
 IR Inten    --      0.8684               100.7518                 2.7820

                     16                     17                     18
                      A                      A                      A
 Frequencies --    321.4037               331.6737               351.9062
 Red. masses --      2.3635                 2.6295                 3.2421
 Frc consts  --      0.1439                 0.1704                 0.2366
 IR Inten    --     69.4235                27.3938                11.9207

                     19                     20                     21
                      A                      A                      A
 Frequencies --    368.9637               375.8513               390.7944
 Red. masses --      3.4265                 2.2036                 2.5415
 Frc consts  --      0.2748                 0.1834                 0.2287
 IR Inten    --      6.6560                 9.7915                 7.3717

                     22                     23                     24
                      A                      A                      A
 Frequencies --    407.5524               427.0245               458.1706
 Red. masses --      2.7804                 3.1012                 3.4792
 Frc consts  --      0.2721                 0.3332                 0.4303
 IR Inten    --      5.4373                 4.9313                 5.6492

                     25                     26                     27
                      A                      A                      A
 Frequencies --    487.1482               526.4185               542.6677
 Red. masses --      3.6023                 3.6527                 4.2734
 Frc consts  --      0.5037                 0.5964                 0.7415
 IR Inten    --      3.7597                 1.4494                17.5741

                     28                     29                     30
                      A                      A                      A
 Frequencies --    556.9378               583.2487               601.6505
 Red. masses --      3.8887                 3.6731                 4.1601
 Frc consts  --      0.7107                 0.7362                 0.8873
 IR Inten    --      6.4940                10.5649                 7.7213

                     31                     32                     33
                      A                      A                      A
 Frequencies --    619.8225               637.3400               651.7769
 Red. masses --      4.7105                 3.3344                 5.0766
 Frc consts  --      1.0662                 0.7980                 1.2706
 IR Inten    --      2.6292                 9.8131                 4.4340

                     34                     35                     36
                      A                      A                      A
 Frequencies --    682.0326               726.1984               740.3750
 Red. masses --      4.7207                 3.3334                 4.3666
 Frc consts  --      1.2938                 1.0357                 1.4102
 IR Inten    --     19.4885                 5.2446                11.7657

                     37                     38                     39
                      A                      A                      A
 Frequencies --    763.2010               783.4066               798.3953
 Red. masses --      2.1958                 3.5816                 2.3518
 Frc consts  --      0.7536                 1.2951                 0.8832
 IR Inten    --     14.7830                 7.8016                67.2238

                     40                     41                     42
                      A                      A                      A
 Frequencies --    819.8172               837.2170               845.2386
 Red. masses --      1.8769                 2.6367                 3.8991
 Frc consts  --      0.7432                 1.0889                 1.6412
 IR Inten    --     44.7236                 5.5702                19.1065

                     43                     44                     45
                      A                      A                      A
 Frequencies --    912.7725               926.4145               951.0973
 Red. masses --      2.2266                 1.5020                 2.2993
 Frc consts  --      1.0930                 0.7595                 1.2254
 IR Inten    --     19.7267                 7.1007                 3.4734

                     46                     47                     48
                      A                      A                      A
 Frequencies --    964.9984               985.3601               998.6664
 Red. masses --      2.1334                 2.1788                 1.5882
 Frc consts  --      1.1705                 1.2464                 0.9332
 IR Inten    --     12.6617               163.0663                50.6424

                     49                     50                     51
                      A                      A                      A
 Frequencies --   1007.7918              1013.6622              1026.1755
 Red. masses --      2.3753                 2.9269                 2.8245
 Frc consts  --      1.4214                 1.7719                 1.7524
 IR Inten    --     65.7611                53.5200                30.2736

                     52                     53                     54
                      A                      A                      A
 Frequencies --   1047.1500              1069.3074              1079.1118
 Red. masses --      2.8937                 2.9347                 2.9248
 Frc consts  --      1.8695                 1.9770                 2.0067
 IR Inten    --     34.3183               236.1034                62.3055

                     55                     56                     57
                      A                      A                      A
 Frequencies --   1086.0723              1101.3261              1125.6526
 Red. masses --      3.0738                 3.6942                 3.0209
 Frc consts  --      2.1362                 2.6400                 2.2553
 IR Inten    --      6.7788                17.8715               103.4410

                     58                     59                     60
                      A                      A                      A
 Frequencies --   1133.4671              1159.3135              1170.2630
 Red. masses --      1.8946                 2.0882                 1.6352
 Frc consts  --      1.4341                 1.6536                 1.3194
 IR Inten    --     34.9164                65.2143                 8.9599

                     61                     62                     63
                      A                      A                      A
 Frequencies --   1183.9891              1190.0282              1191.2948
 Red. masses --      1.2676                 1.7449                 2.3217
 Frc consts  --      1.0469                 1.4559                 1.9413
 IR Inten    --      2.4897                28.3971                43.4936

                     64                     65                     66
                      A                      A                      A
 Frequencies --   1205.1780              1214.0922              1223.5661
 Red. masses --      1.7826                 1.6436                 1.2352
 Frc consts  --      1.5255                 1.4274                 1.0895
 IR Inten    --     40.1832                19.0545                 6.1964

                     67                     68                     69
                      A                      A                      A
 Frequencies --   1226.1420              1252.4289              1257.8335
 Red. masses --      1.5962                 2.0176                 1.0781
 Frc consts  --      1.4139                 1.8646                 1.0050
 IR Inten    --     53.2913               104.4661                94.9750

                     70                     71                     72
                      A                      A                      A
 Frequencies --   1269.4707              1283.1270              1298.9552
 Red. masses --      1.8218                 2.0699                 1.5177
 Frc consts  --      1.7298                 2.0079                 1.5088
 IR Inten    --    105.9671                11.7529                 1.5462

                     73                     74                     75
                      A                      A                      A
 Frequencies --   1307.3470              1324.8366              1337.9314
 Red. masses --      2.0218                 2.1456                 1.4869
 Frc consts  --      2.0360                 2.2188                 1.5681
 IR Inten    --    295.0831                88.8685                38.5137

                     76                     77                     78
                      A                      A                      A
 Frequencies --   1373.4204              1377.1085              1383.9690
 Red. masses --      3.2818                 1.3874                 1.3050
 Frc consts  --      3.6473                 1.5502                 1.4727
 IR Inten    --     11.7862                 8.5790                13.3736

                     79                     80                     81
                      A                      A                      A
 Frequencies --   1397.6213              1406.5294              1416.8736
 Red. masses --      1.4182                 1.4849                 1.4829
 Frc consts  --      1.6322                 1.7308                 1.7540
 IR Inten    --     13.3480                 0.9734                34.3864

                     82                     83                     84
                      A                      A                      A
 Frequencies --   1430.3793              1449.1725              1459.6755
 Red. masses --      1.3641                 1.6224                 3.2659
 Frc consts  --      1.6443                 2.0075                 4.0998
 IR Inten    --     45.5185                14.7636               112.9771

                     85                     86                     87
                      A                      A                      A
 Frequencies --   1480.9678              1489.5173              1496.3813
 Red. masses --      1.1974                 1.3653                 1.0963
 Frc consts  --      1.5474                 1.7848                 1.4463
 IR Inten    --      2.7545                 0.2400                16.8426

                     88                     89                     90
                      A                      A                      A
 Frequencies --   1499.7604              1507.0693              1509.5396
 Red. masses --      1.1983                 1.0665                 1.0681
 Frc consts  --      1.5880                 1.4272                 1.4341
 IR Inten    --     13.8884                10.3291                 8.6989

                     91                     92                     93
                      A                      A                      A
 Frequencies --   1513.1631              1517.5904              1525.3388
 Red. masses --      1.0533                 1.1013                 1.1172
 Frc consts  --      1.4210                 1.4944                 1.5315
 IR Inten    --     11.0333                 5.9788                 8.8109

                     94                     95                     96
                      A                      A                      A
 Frequencies --   1528.2106              1529.9208              1556.0058
 Red. masses --      1.0505                 1.0766                 2.8986
 Frc consts  --      1.4454                 1.4847                 4.1348
 IR Inten    --      7.1396                63.6646               114.8308

                     97                     98                     99
                      A                      A                      A
 Frequencies --   1642.9700              1667.4822              1703.8781
 Red. masses --      8.1769                 7.9704                 7.2075
 Frc consts  --     13.0046                13.0573                12.3286
 IR Inten    --     39.9068                74.1232                 1.5943

                    100                    101                    102
                      A                      A                      A
 Frequencies --   2954.2592              2962.3766              2970.0353
 Red. masses --      1.0715                 1.0625                 1.0701
 Frc consts  --      5.5097                 5.4938                 5.5615
 IR Inten    --     86.8211                98.4480               248.9838

                    103                    104                    105
                      A                      A                      A
 Frequencies --   2998.4775              3022.1247              3057.2052
 Red. masses --      1.0828                 1.0831                 1.0333
 Frc consts  --      5.7360                 5.8283                 5.6900
 IR Inten    --     78.1642                77.7886                80.6540

                    106                    107                    108
                      A                      A                      A
 Frequencies --   3062.5951              3088.3517              3089.1540
 Red. masses --      1.0610                 1.0764                 1.0689
 Frc consts  --      5.8634                 6.0489                 6.0098
 IR Inten    --     24.1287                16.1644                68.9676

                    109                    110                    111
                      A                      A                      A
 Frequencies --   3092.2825              3108.6285              3113.4129
 Red. masses --      1.0734                 1.0893                 1.1026
 Frc consts  --      6.0477                 6.2018                 6.2969
 IR Inten    --     93.8451                61.9528                65.8349

                    112                    113                    114
                      A                      A                      A
 Frequencies --   3121.3647              3135.9699              3137.5720
 Red. masses --      1.1073                 1.1060                 1.1044
 Frc consts  --      6.3561                 6.4086                 6.4058
 IR Inten    --     56.0549                47.7450                58.8308

                    115                    116                    117
                      A                      A                      A
 Frequencies --   3180.4683              3185.8880              3201.5840
 Red. masses --      1.0870                 1.1019                 1.0892
 Frc consts  --      6.4783                 6.5896                 6.5781
 IR Inten    --     20.2198                34.6212                24.3652

                    118                    119                    120
                      A                      A                      A
 Frequencies --   3212.4037              3237.7647              3720.7951
 Red. masses --      1.0947                 1.0911                 1.0663
 Frc consts  --      6.6556                 6.7393                 8.6977
 IR Inten    --     39.3155                15.9574                81.0090

 - Thermochemistry -
 -------------------
 Temperature   298.150 Kelvin.  Pressure   1.00000 Atm.
 Atom     1 has atomic number  6 and mass  12.00000

 Molecular mass:   287.15214 amu.
 Principal axes and moments of inertia in atomic units:
                           1         2         3
     Eigenvalues --  4461.206336542.633049995.74168
           X            0.99995  -0.01045   0.00044
           Y            0.01045   0.99994  -0.00123
           Z           -0.00043   0.00123   1.00000
 This molecule is an asymmetric top.
 Rotational symmetry number  1.
 Warning -- assumption of classical behavior for rotation
           may cause significant error
 Rotational temperatures (Kelvin)      0.01941     0.01324     0.00867
 Rotational constants (GHZ):           0.40454     0.27584     0.18055
 Zero-point vibrational energy     941704.3 (Joules/Mol)
                                  225.07273 (Kcal/Mol)
 Warning -- explicit consideration of  31 degrees of freedom as
           vibrations may cause significant error
 Vibrational temperatures:     66.85    81.76   118.74   157.92   165.50
          (Kelvin)            224.40   257.68   281.12   302.14   337.04
                              352.18   370.67   384.48   434.08   442.71
                              462.43   477.20   506.31   530.86   540.77
                              562.27   586.38   614.39   659.21   700.90
                              757.40   780.78   801.31   839.16   865.64
                              891.79   916.99   937.76   981.29  1044.84
                             1065.23  1098.08  1127.15  1148.71  1179.53
                             1204.57  1216.11  1313.28  1332.90  1368.42
                             1388.42  1417.71  1436.86  1449.99  1458.43
                             1476.44  1506.62  1538.49  1552.60  1562.62
                             1584.56  1619.56  1630.81  1667.99  1683.75
                             1703.50  1712.19  1714.01  1733.98  1746.81
                             1760.44  1764.14  1801.97  1809.74  1826.49
                             1846.13  1868.91  1880.98  1906.14  1924.98
                             1976.05  1981.35  1991.22  2010.87  2023.68
                             2038.57  2058.00  2085.04  2100.15  2130.78
                             2143.08  2152.96  2157.82  2168.34  2171.89
                             2177.10  2183.47  2194.62  2198.75  2201.21
                             2238.75  2363.87  2399.13  2451.50  4250.52
                             4262.20  4273.22  4314.14  4348.16  4398.64
                             4406.39  4443.45  4444.60  4449.10  4472.62
                             4479.51  4490.95  4511.96  4514.27  4575.98
                             4583.78  4606.37  4621.93  4658.42  5353.39

 Zero-point correction=                           0.358676 (Hartree/Particle)
 Thermal correction to Energy=                    0.376718
 Thermal correction to Enthalpy=                  0.377662
 Thermal correction to Gibbs Free Energy=         0.314071
 Sum of electronic and zero-point Energies=           -940.448282
 Sum of electronic and thermal Energies=              -940.430240
 Sum of electronic and thermal Enthalpies=            -940.429296
 Sum of electronic and thermal Free Energies=         -940.492887

                     E (Thermal)             CV                S
                      KCal/Mol        Cal/Mol-Kelvin    Cal/Mol-Kelvin
 Total                  236.394             73.753            133.839
 Electronic               0.000              0.000              0.000
 Translational            0.889              2.981             42.862
 Rotational               0.889              2.981             34.033
 Vibrational            234.617             67.792             56.944
 Vibration     1          0.595              1.979              4.963
 Vibration     2          0.596              1.975              4.565
 Vibration     3          0.600              1.961              3.830
 Vibration     4          0.606              1.941              3.273
 Vibration     5          0.608              1.937              3.182
 Vibration     6          0.620              1.896              2.598
 Vibration     7          0.629              1.868              2.338
 Vibration     8          0.636              1.846              2.176
 Vibration     9          0.642              1.826              2.044
 Vibration    10          0.654              1.788              1.846
 Vibration    11          0.660              1.771              1.768
 Vibration    12          0.667              1.750              1.678
 Vibration    13          0.672              1.733              1.614
 Vibration    14          0.694              1.670              1.407
 Vibration    15          0.698              1.659              1.375
 Vibration    16          0.707              1.633              1.303
 Vibration    17          0.714              1.612              1.252
 Vibration    18          0.728              1.571              1.158
 Vibration    19          0.741              1.536              1.084
 Vibration    20          0.747              1.522              1.056
 Vibration    21          0.758              1.490              0.997
 Vibration    22          0.772              1.454              0.935
 Vibration    23          0.789              1.411              0.868
 Vibration    24          0.816              1.343              0.771
 Vibration    25          0.843              1.279              0.691
 Vibration    26          0.881              1.192              0.595
 Vibration    27          0.898              1.156              0.560
 Vibration    28          0.912              1.125              0.530
 Vibration    29          0.940              1.068              0.479
 Vibration    30          0.960              1.028              0.447
 Vibration    31          0.980              0.990              0.417

                           ! Non-Optimized Parameters !
 Normal termination of Gaussian 16 at Tue Mar  1 07:34:24 2022.

 ------------------------------------------
 #p b3lyp/6-31G(d) geom=allcheck guess=read
 ------------------------------------------

 Structure from the checkpoint file:  "111.n.pdb.xyz.mst.wat.chk"
 -------------
 111.n.pdb.xyz
 -------------
 Charge =  0 Multiplicity = 1

 SCF Done:  E(RB3LYP) =  -940.789918492     A.U. after   11 cycles
 Normal termination of Gaussian 16 at Tue Mar  1 07:38:42 2022.
 Gaussian 16:  ES64L-G16RevA.03 25-Dec-2016

 ----------------------------------------------------------------------
 #p b3lyp/6-31G(d) scrf=(iefpcm,read,solvent=water) geom=allcheck guess
 =read
 ----------------------------------------------------------------------

 Structure from the checkpoint file:  "111.n.pdb.xyz.mst.wat.chk"
 -------------
 111.n.pdb.xyz
 -------------
 Charge =  0 Multiplicity = 1

                         Standard orientation:
 ---------------------------------------------------------------------
 Center     Atomic      Atomic             Coordinates (Angstroms)
 Number     Number       Type             X           Y           Z
 ---------------------------------------------------------------------
      1          6           0        4.709923   -2.126858   -0.408406
      2          8           0        3.284398   -2.122711   -0.371064
      3          6           0        2.678432   -0.968387    0.031973
      4          6           0        1.277860   -0.945930    0.036044
      5          8           0        0.481091   -1.966073   -0.442378
      6          6           0       -0.825619   -1.641359    0.097859
      7          6           0       -2.042706   -2.235976   -0.564635
      8          6           0       -3.241371   -1.910566    0.373978
      9          8           0       -4.467870   -1.796451   -0.352415
     10          6           0       -3.078133   -0.641655    1.192037
     11          6           0       -2.011222    0.168478    1.176412
     12          6           0       -0.899100   -0.094895    0.182226
     13          6           0       -1.223899    0.681703   -1.128308
     14          6           0       -1.361480    2.203139   -0.919373
     15          7           0       -0.144534    2.962819   -0.570371
     16          6           0       -0.438655    4.393370   -0.666317
     17          6           0        0.410078    2.655445    0.769197
     18          6           0        1.212331    1.377870    0.728951
     19          6           0        2.610190    1.364135    0.739610
     20          6           0        3.334664    0.205100    0.425329
     21          6           0        0.565013    0.172253    0.463239
     22          1           0        4.997060   -3.115147   -0.765516
     23          1           0        5.090033   -1.362974   -1.094247
     24          1           0        5.133297   -1.959439    0.587511
     25          1           0       -0.793245   -1.993210    1.138634
     26          1           0       -1.954921   -3.317459   -0.695957
     27          1           0       -2.222360   -1.786550   -1.544839
     28          1           0       -3.331753   -2.735325    1.097306
     29          1           0       -4.667783   -2.678178   -0.711083
     30          1           0       -3.907899   -0.432239    1.862880
     31          1           0       -1.970186    1.034793    1.828443
     32          1           0       -0.458179    0.473507   -1.884090
     33          1           0       -2.183284    0.337816   -1.526127
     34          1           0       -1.720387    2.626024   -1.862906
     35          1           0       -2.158588    2.383468   -0.175069
     36          1           0        0.470645    4.968936   -0.473062
     37          1           0       -1.213343    4.728237    0.047080
     38          1           0       -0.789135    4.627025   -1.675715
     39          1           0       -0.387908    2.617918    1.531482
     40          1           0        1.071030    3.481654    1.043782
     41          1           0        3.152526    2.277492    0.964350
     42          1           0        4.417330    0.230591    0.447693
 ---------------------------------------------------------------------

 SCF Done:  E(RB3LYP) =  -940.805969067     A.U. after   11 cycles

 The electronic state is 1-A.
 Alpha  occ. eigenvalues --  -19.18179 -19.17764 -19.14360 -14.32721 -10.25027
 Alpha  occ. eigenvalues --  -10.24489 -10.24274 -10.24029 -10.23395 -10.21037
 Alpha  occ. eigenvalues --  -10.20785 -10.20714 -10.19808 -10.19380 -10.19089
 Alpha  occ. eigenvalues --  -10.19032 -10.18957 -10.18945 -10.18703 -10.18661
 Alpha  occ. eigenvalues --  -10.18652  -1.07420  -1.05887  -1.01573  -0.91948
 Alpha  occ. eigenvalues --   -0.85805  -0.84591  -0.78324  -0.77251  -0.75019
 Alpha  occ. eigenvalues --   -0.73776  -0.71939  -0.70639  -0.67371  -0.65191
 Alpha  occ. eigenvalues --   -0.63492  -0.60868  -0.59459  -0.58027  -0.56726
 Alpha  occ. eigenvalues --   -0.53502  -0.52076  -0.51464  -0.50422  -0.49413
 Alpha  occ. eigenvalues --   -0.48073  -0.46754  -0.46456  -0.45901  -0.45323
 Alpha  occ. eigenvalues --   -0.44448  -0.44323  -0.43462  -0.41938  -0.41775
 Alpha  occ. eigenvalues --   -0.41177  -0.40747  -0.39962  -0.39124  -0.38147
 Alpha  occ. eigenvalues --   -0.37344  -0.36856  -0.36535  -0.35158  -0.35127
 Alpha  occ. eigenvalues --   -0.34385  -0.33995  -0.33201  -0.32485  -0.32066
 Alpha  occ. eigenvalues --   -0.30302  -0.29734  -0.27588  -0.25356  -0.23098
 Alpha  occ. eigenvalues --   -0.21732  -0.20824
 Alpha virt. eigenvalues --   -0.00322   0.00593   0.00950   0.08187   0.08705
 Alpha virt. eigenvalues --    0.10006   0.10703   0.11148   0.11571   0.11922
 Alpha virt. eigenvalues --    0.13214   0.13953   0.14693   0.14725   0.15456

 Mulliken charges:
               1
     1  C   -0.227323
     2  O   -0.534789
     3  C    0.312034
     4  C    0.322535
     5  O   -0.581393
     6  C    0.110154
     7  C   -0.333578
     8  C    0.112070
     9  O   -0.680719
    10  C   -0.133294
    11  C   -0.139689
    12  C   -0.039340
    13  C   -0.266183
    14  C   -0.134505
    15  N   -0.412834
    16  C   -0.304023
    17  C   -0.233388
    18  C    0.111306
    19  C   -0.227036
    20  C   -0.225274
    21  C   -0.005371
    22  H    0.180527
    23  H    0.167978
    24  H    0.167799
    25  H    0.150800
    26  H    0.161922
    27  H    0.164257
    28  H    0.150197
    29  H    0.438295
    30  H    0.147928
    31  H    0.157110
    32  H    0.147543
    33  H    0.152299
    34  H    0.151751
    35  H    0.125459
    36  H    0.158325
    37  H    0.127733
    38  H    0.157438
    39  H    0.140947
    40  H    0.159622
    41  H    0.142341
    42  H    0.160370
 Sum of Mulliken charges =  -0.00000

 Dipole moment (field-independent basis, Debye):
    X=              0.1455    Y=             -0.1584    Z=              1.0718  Tot=              1.0931
 Quadrupole moment (field-independent basis, Debye-Ang):
   XX=           -106.1137   YY=           -110.0382   ZZ=           -123.5015
   XY=              6.8335   XZ=              1.0115   YZ=              2.3385

 Normal termination of Gaussian 16 at Tue Mar  1 07:43:40 2022.
