 Gaussian 16, Revision A.03,

 ----------------------------------------------------------------------
 #p b3lyp/6-31G(d) opt=(MaxStep=10,MaxCycles=1000) freq scf=(MaxCycle=2
 000,NoVarAcc,NoIncFock) scrf=(iefpcm,read,solvent=water)
 ----------------------------------------------------------------------

 -------------
 112.n.pdb.xyz
 -------------
 Symbolic Z-matrix:
 Charge =  0 Multiplicity = 1

 SCF Done:  E(RB3LYP) =  -459.677157883     A.U. after   12 cycles
 SCF Done:  E(RB3LYP) =  -459.680429382     A.U. after   10 cycles
 SCF Done:  E(RB3LYP) =  -459.681135658     A.U. after   10 cycles
 SCF Done:  E(RB3LYP) =  -459.681134307     A.U. after    8 cycles
 SCF Done:  E(RB3LYP) =  -459.681147105     A.U. after    8 cycles
 SCF Done:  E(RB3LYP) =  -459.681202362     A.U. after    9 cycles
 SCF Done:  E(RB3LYP) =  -459.681210593     A.U. after   10 cycles
 SCF Done:  E(RB3LYP) =  -459.681249258     A.U. after   10 cycles
 SCF Done:  E(RB3LYP) =  -459.681267900     A.U. after    9 cycles
 SCF Done:  E(RB3LYP) =  -459.681271783     A.U. after    9 cycles
 SCF Done:  E(RB3LYP) =  -459.681272232     A.U. after    8 cycles
 SCF Done:  E(RB3LYP) =  -459.681272037     A.U. after    7 cycles
 Optimization completed.
    -- Stationary point found.
 Normal termination of Gaussian 16 at Tue Mar  1 15:23:23 2022.

 --------------------------------------------------------------------
 #P Geom=AllCheck Guess=TCheck SCRF=Check GenChk RB3LYP/6-31G(d) Freq
 --------------------------------------------------------------------

 Structure from the checkpoint file:  "112.n.pdb.xyz.mst.wat.chk"
 -------------
 112.n.pdb.xyz
 -------------
 Charge =  0 Multiplicity = 1

 SCF Done:  E(RB3LYP) =  -459.681272037     A.U. after    1 cycles

  Exact polarizability: 173.189  -3.273 143.322 -10.029   5.062  85.162
 Approx polarizability: 182.166  -1.327 168.974 -12.929   5.746  95.843

                      1                      2                      3
                      A                      A                      A
 Frequencies --     47.1724                70.2062               122.2269
 Red. masses --      3.3847                 1.9151                 2.8946
 Frc consts  --      0.0044                 0.0056                 0.0255
 IR Inten    --      3.6063                 0.4776                 1.7065

                      4                      5                      6
                      A                      A                      A
 Frequencies --    136.5058               238.1602               311.8838
 Red. masses --      3.7123                 2.7427                 4.6461
 Frc consts  --      0.0408                 0.0917                 0.2663
 IR Inten    --      2.1041                 3.4123                 1.0944

                      7                      8                      9
                      A                      A                      A
 Frequencies --    399.7436               414.9119               444.1612
 Red. masses --      4.1298                 3.1480                 3.3384
 Frc consts  --      0.3888                 0.3193                 0.3880
 IR Inten    --      2.8082                 3.2235                 3.9016

                     10                     11                     12
                      A                      A                      A
 Frequencies --    568.8438               630.7852               662.1673
 Red. masses --      2.4265                 6.8923                 2.5865
 Frc consts  --      0.4626                 1.6158                 0.6682
 IR Inten    --      4.8509                 6.9169                 3.8242

                     13                     14                     15
                      A                      A                      A
 Frequencies --    684.2656               735.7889               790.1480
 Red. masses --      5.6249                 2.2119                 1.3901
 Frc consts  --      1.5517                 0.7056                 0.5114
 IR Inten    --      0.4432                31.6663                15.5562

                     16                     17                     18
                      A                      A                      A
 Frequencies --    815.9291               851.7186               884.4368
 Red. masses --      1.8056                 2.4154                 1.5488
 Frc consts  --      0.7082                 1.0324                 0.7138
 IR Inten    --     10.0623                 6.1161                72.0167

                     19                     20                     21
                      A                      A                      A
 Frequencies --    908.5469               930.9872               958.2070
 Red. masses --      2.8632                 2.9889                 1.3604
 Frc consts  --      1.3925                 1.5263                 0.7359
 IR Inten    --      5.1231                56.5678                 0.8840

                     22                     23                     24
                      A                      A                      A
 Frequencies --    974.1673               980.2168              1012.2316
 Red. masses --      2.0962                 1.5368                 1.9649
 Frc consts  --      1.1721                 0.8700                 1.1862
 IR Inten    --     58.3334                11.5146                14.8141

                     25                     26                     27
                      A                      A                      A
 Frequencies --   1015.8433              1036.9170              1043.1050
 Red. masses --      1.3723                 1.5543                 4.1573
 Frc consts  --      0.8344                 0.9847                 2.6651
 IR Inten    --      0.9789                 8.6324                18.3870

                     28                     29                     30
                      A                      A                      A
 Frequencies --   1071.2754              1093.3787              1104.0307
 Red. masses --      2.4714                 2.0966                 3.7632
 Frc consts  --      1.6711                 1.4767                 2.7026
 IR Inten    --     12.7626                21.7631                33.4646

                     31                     32                     33
                      A                      A                      A
 Frequencies --   1139.9667              1212.2829              1220.8820
 Red. masses --      1.4616                 1.3685                 1.4305
 Frc consts  --      1.1191                 1.1850                 1.2562
 IR Inten    --      5.6400                 6.2705                14.9740

                     34                     35                     36
                      A                      A                      A
 Frequencies --   1230.7236              1253.5644              1280.1160
 Red. masses --      1.4005                 1.8328                 1.1829
 Frc consts  --      1.2498                 1.6969                 1.1421
 IR Inten    --      8.2897                 2.3446                 3.9568

                     37                     38                     39
                      A                      A                      A
 Frequencies --   1283.1682              1310.4101              1329.3179
 Red. masses --      1.5489                 4.1316                 1.3906
 Frc consts  --      1.5026                 4.1801                 1.4478
 IR Inten    --      6.3202                 0.5110                 2.2139

                     40                     41                     42
                      A                      A                      A
 Frequencies --   1350.2390              1360.9934              1371.9276
 Red. masses --      1.2582                 1.3508                 1.3640
 Frc consts  --      1.3515                 1.4742                 1.5126
 IR Inten    --      5.0512                 0.8380                13.3215

                     43                     44                     45
                      A                      A                      A
 Frequencies --   1383.8032              1461.3808              1486.0917
 Red. masses --      1.4837                 2.3353                 1.1647
 Frc consts  --      1.6739                 2.9384                 1.5155
 IR Inten    --      8.6326                55.0288                39.8080

                     46                     47                     48
                      A                      A                      A
 Frequencies --   1509.1114              1515.1803              1523.7804
 Red. masses --      1.0972                 1.0912                 2.1465
 Frc consts  --      1.4722                 1.4760                 2.9364
 IR Inten    --      2.1584                 0.9807                20.0493

                     49                     50                     51
                      A                      A                      A
 Frequencies --   1528.7782              1629.1727              1648.6877
 Red. masses --      1.1258                 5.2542                 5.7793
 Frc consts  --      1.5502                 8.2166                 9.2556
 IR Inten    --      1.1606                25.9888                 9.7969

                     52                     53                     54
                      A                      A                      A
 Frequencies --   3009.4952              3057.2944              3071.6200
 Red. masses --      1.0827                 1.0682                 1.0609
 Frc consts  --      5.7775                 5.8828                 5.8973
 IR Inten    --     53.6178                88.8798                47.5739

                     55                     56                     57
                      A                      A                      A
 Frequencies --   3084.9914              3111.8385              3125.4796
 Red. masses --      1.0632                 1.1029                 1.1016
 Frc consts  --      5.9619                 6.2925                 6.3402
 IR Inten    --     64.1177                18.6146                24.1337

                     58                     59                     60
                      A                      A                      A
 Frequencies --   3134.2871              3188.3624              3192.3216
 Red. masses --      1.1044                 1.0877                 1.0913
 Frc consts  --      6.3925                 6.5149                 6.5526
 IR Inten    --    128.7234                65.5728                21.2082

                     61                     62                     63
                      A                      A                      A
 Frequencies --   3223.9234              3238.4044              3456.7552
 Red. masses --      1.0904                 1.0950                 1.0743
 Frc consts  --      6.6771                 6.7661                 7.5632
 IR Inten    --     22.4165                17.9025                 0.9065

 - Thermochemistry -
 -------------------
 Temperature   298.150 Kelvin.  Pressure   1.00000 Atm.
 Atom     1 has atomic number  6 and mass  12.00000

 Molecular mass:   148.10005 amu.
 Principal axes and moments of inertia in atomic units:
                           1         2         3
     Eigenvalues --   588.852852745.215813233.67637
           X            0.99990  -0.01390   0.00012
           Y            0.01389   0.99988   0.00612
           Z           -0.00020  -0.00611   0.99998
 This molecule is an asymmetric top.
 Rotational symmetry number  1.
 Warning -- assumption of classical behavior for rotation
           may cause significant error
 Rotational temperatures (Kelvin)      0.14709     0.03155     0.02678
 Rotational constants (GHZ):           3.06484     0.65741     0.55811
 Zero-point vibrational energy     525533.3 (Joules/Mol)
                                  125.60548 (Kcal/Mol)
 Warning -- explicit consideration of  10 degrees of freedom as
           vibrations may cause significant error
 Vibrational temperatures:     67.87   101.01   175.86   196.40   342.66
          (Kelvin)            448.73   575.14   596.97   639.05   818.44
                              907.56   952.71   984.51  1058.64  1136.85
                             1173.94  1225.43  1272.51  1307.20  1339.48
                             1378.65  1401.61  1410.31  1456.38  1461.57
                             1491.89  1500.80  1541.33  1573.13  1588.45
                             1640.16  1744.20  1756.58  1770.74  1803.60
                             1841.80  1846.19  1885.39  1912.59  1942.69
                             1958.17  1973.90  1990.98  2102.60  2138.15
                             2171.27  2180.01  2192.38  2199.57  2344.02
                             2372.09  4329.99  4398.76  4419.38  4438.61
                             4477.24  4496.87  4509.54  4587.34  4593.04
                             4638.51  4659.34  4973.50

 Zero-point correction=                           0.200165 (Hartree/Particle)
 Thermal correction to Energy=                    0.209350
 Thermal correction to Enthalpy=                  0.210294
 Thermal correction to Gibbs Free Energy=         0.164710
 Sum of electronic and zero-point Energies=           -459.481107
 Sum of electronic and thermal Energies=              -459.471922
 Sum of electronic and thermal Enthalpies=            -459.470978
 Sum of electronic and thermal Free Energies=         -459.516562

                     E (Thermal)             CV                S
                      KCal/Mol        Cal/Mol-Kelvin    Cal/Mol-Kelvin
 Total                  131.369             35.485             95.938
 Electronic               0.000              0.000              0.000
 Translational            0.889              2.981             40.889
 Rotational               0.889              2.981             30.037
 Vibrational            129.591             29.523             25.013
 Vibration     1          0.595              1.979              4.933
 Vibration     2          0.598              1.968              4.148
 Vibration     3          0.610              1.931              3.065
 Vibration     4          0.614              1.917              2.852
 Vibration     5          0.656              1.782              1.817
 Vibration     6          0.700              1.651              1.352
 Vibration     7          0.766              1.471              0.964
 Vibration     8          0.778              1.438              0.909
 Vibration     9          0.804              1.374              0.814
 Vibration    10          0.925              1.099              0.506

 Optimization completed.
    -- Stationary point found.
 Normal termination of Gaussian 16 at Tue Mar  1 15:37:48 2022.

 ------------------------------------------
 #p b3lyp/6-31G(d) geom=allcheck guess=read
 ------------------------------------------

 Structure from the checkpoint file:  "112.n.pdb.xyz.mst.wat.chk"
 -------------
 112.n.pdb.xyz
 -------------
 Charge =  0 Multiplicity = 1

 SCF Done:  E(RB3LYP) =  -459.670925157     A.U. after   11 cycles
 Normal termination of Gaussian 16 at Tue Mar  1 15:39:12 2022.
 Gaussian 16:  ES64L-G16RevA.03 25-Dec-2016

 ----------------------------------------------------------------------
 #p b3lyp/6-31G(d) scrf=(iefpcm,read,solvent=water) geom=allcheck guess
 =read
 ----------------------------------------------------------------------

 Structure from the checkpoint file:  "112.n.pdb.xyz.mst.wat.chk"
 -------------
 112.n.pdb.xyz
 -------------
 Charge =  0 Multiplicity = 1

                         Standard orientation:
 ---------------------------------------------------------------------
 Center     Atomic      Atomic             Coordinates (Angstroms)
 Number     Number       Type             X           Y           Z
 ---------------------------------------------------------------------
      1          6           0       -3.122732    0.692427   -0.280321
      2          6           0       -3.014768   -0.828219    0.028029
      3          7           0       -1.585591   -1.190905   -0.029238
      4          6           0       -0.902230    0.018271    0.472428
      5          6           0       -1.673254    1.218765   -0.134173
      6          6           0        0.587493   -0.006652    0.220437
      7          6           0        1.291485   -1.206357    0.069801
      8          6           0        2.669189   -1.170992   -0.137108
      9          6           0        3.305649    0.067774   -0.181493
     10          7           0        2.656516    1.232709   -0.037988
     11          6           0        1.331235    1.178227    0.155235
     12          1           0       -3.498723    0.865673   -1.292056
     13          1           0       -3.811035    1.187772    0.410784
     14          1           0       -3.585184   -1.453142   -0.662645
     15          1           0       -3.382547   -1.032003    1.040014
     16          1           0       -1.333223   -1.288128   -1.014976
     17          1           0       -1.063862    0.033354    1.560696
     18          1           0       -1.608871    2.115483    0.487500
     19          1           0       -1.249989    1.464715   -1.113182
     20          1           0        0.756412   -2.147979    0.112484
     21          1           0        3.240501   -2.084234   -0.260998
     22          1           0        4.379287    0.130793   -0.339628
     23          1           0        0.828361    2.135610    0.265574
 ---------------------------------------------------------------------

 SCF Done:  E(RB3LYP) =  -459.680641202     A.U. after   11 cycles

 The electronic state is 1-A.
 Alpha  occ. eigenvalues --  -14.33576 -14.31809 -10.22223 -10.22216 -10.21682
 Alpha  occ. eigenvalues --  -10.20433 -10.20340 -10.20121 -10.19746 -10.17876
 Alpha  occ. eigenvalues --  -10.17649  -0.94257  -0.91777  -0.80742  -0.77277
 Alpha  occ. eigenvalues --   -0.75144  -0.70863  -0.63207  -0.62997  -0.58915
 Alpha  occ. eigenvalues --   -0.57153  -0.52672  -0.49068  -0.48110  -0.46561
 Alpha  occ. eigenvalues --   -0.44424  -0.43304  -0.42733  -0.40080  -0.39558
 Alpha  occ. eigenvalues --   -0.38741  -0.36761  -0.35150  -0.33799  -0.33415
 Alpha  occ. eigenvalues --   -0.32121  -0.28423  -0.26293  -0.25665  -0.23532
 Alpha virt. eigenvalues --   -0.02560  -0.01135   0.08675   0.10132   0.11314
 Alpha virt. eigenvalues --    0.13581   0.13626   0.14511   0.15760   0.16771
 Alpha virt. eigenvalues --    0.17028   0.17679   0.18011   0.18707   0.20170

 Mulliken charges:
               1
     1  C   -0.294658
     2  C   -0.146230
     3  N   -0.597966
     4  C   -0.046582
     5  C   -0.288834
     6  C    0.110330
     7  C   -0.146616
     8  C   -0.153136
     9  C    0.028111
    10  N   -0.479663
    11  C   -0.009951
    12  H    0.148333
    13  H    0.146326
    14  H    0.152113
    15  H    0.148099
    16  H    0.331094
    17  H    0.164333
    18  H    0.151063
    19  H    0.146511
    20  H    0.164245
    21  H    0.160597
    22  H    0.157318
    23  H    0.155163
 Sum of Mulliken charges =  -0.00000

 Dipole moment (field-independent basis, Debye):
    X=             -2.4155    Y=             -1.3072    Z=             -0.9105  Tot=              2.8935
 Quadrupole moment (field-independent basis, Debye-Ang):
   XX=            -63.7503   YY=            -67.9736   ZZ=            -64.7305
   XY=             -9.6880   XZ=              0.5825   YZ=              2.8689

 Normal termination of Gaussian 16 at Tue Mar  1 15:40:37 2022.
