 Gaussian 16, Revision A.03,

 ----------------------------------------------------------------------
 #p b3lyp/6-31G(d) opt=(MaxStep=10,MaxCycles=1000) freq scf=(MaxCycle=2
 000,NoVarAcc,NoIncFock) scrf=(iefpcm,read,solvent=water)
 ----------------------------------------------------------------------

 -------------
 113.n.pdb.xyz
 -------------
 Symbolic Z-matrix:
 Charge =  0 Multiplicity = 1

 SCF Done:  E(RB3LYP) =  -868.034748314     A.U. after   12 cycles
 SCF Done:  E(RB3LYP) =  -868.038467161     A.U. after   10 cycles
 SCF Done:  E(RB3LYP) =  -868.038492044     A.U. after   10 cycles
 SCF Done:  E(RB3LYP) =  -868.040311968     A.U. after    9 cycles
 SCF Done:  E(RB3LYP) =  -868.040267584     A.U. after    9 cycles
 SCF Done:  E(RB3LYP) =  -868.040353752     A.U. after    9 cycles
 SCF Done:  E(RB3LYP) =  -868.040391566     A.U. after    8 cycles
 SCF Done:  E(RB3LYP) =  -868.040419465     A.U. after    8 cycles
 SCF Done:  E(RB3LYP) =  -868.040464538     A.U. after    9 cycles
 SCF Done:  E(RB3LYP) =  -868.040476652     A.U. after    8 cycles
 SCF Done:  E(RB3LYP) =  -868.040482365     A.U. after    8 cycles
 SCF Done:  E(RB3LYP) =  -868.040482860     A.U. after    7 cycles
 SCF Done:  E(RB3LYP) =  -868.040483682     A.U. after    6 cycles
 SCF Done:  E(RB3LYP) =  -868.040484588     A.U. after    6 cycles
 SCF Done:  E(RB3LYP) =  -868.040484087     A.U. after    5 cycles
 Optimization completed.
    -- Stationary point found.
 Normal termination of Gaussian 16 at Tue Mar  1 18:29:55 2022.

 --------------------------------------------------------------------
 #P Geom=AllCheck Guess=TCheck SCRF=Check GenChk RB3LYP/6-31G(d) Freq
 --------------------------------------------------------------------

 Structure from the checkpoint file:  "113.n.pdb.xyz.mst.wat.chk"
 -------------
 113.n.pdb.xyz
 -------------
 Charge =  0 Multiplicity = 1

 SCF Done:  E(RB3LYP) =  -868.040484088     A.U. after    1 cycles

  Exact polarizability: 314.929   1.700 274.613 -17.304   1.759 176.730
 Approx polarizability: 319.214   3.976 297.557 -21.125   1.977 195.440

                      1                      2                      3
                      A                      A                      A
 Frequencies --     21.3237                33.4845                54.7774
 Red. masses --      3.9223                 3.8919                 2.6190
 Frc consts  --      0.0011                 0.0026                 0.0046
 IR Inten    --      0.0511                 0.1457                 0.2282

                      4                      5                      6
                      A                      A                      A
 Frequencies --     69.1575                73.6453                88.6231
 Red. masses --      3.2408                 1.9625                 3.2100
 Frc consts  --      0.0091                 0.0063                 0.0149
 IR Inten    --      4.6489                 1.7433                 7.8675

                      7                      8                      9
                      A                      A                      A
 Frequencies --    101.6075               130.6390               145.6349
 Red. masses --      2.6504                 3.8253                 2.6444
 Frc consts  --      0.0161                 0.0385                 0.0330
 IR Inten    --      0.7547                 0.0185                 0.1065

                     10                     11                     12
                      A                      A                      A
 Frequencies --    158.9359               171.5998               187.7573
 Red. masses --      2.2933                 2.9568                 2.6073
 Frc consts  --      0.0341                 0.0513                 0.0542
 IR Inten    --      0.4464                 0.5124                 0.6852

                     13                     14                     15
                      A                      A                      A
 Frequencies --    200.3150               227.1895               249.4672
 Red. masses --      2.9156                 1.5927                 1.3851
 Frc consts  --      0.0689                 0.0484                 0.0508
 IR Inten    --      4.8037                 0.2289                 0.4059

                     16                     17                     18
                      A                      A                      A
 Frequencies --    252.9917               272.6272               283.7916
 Red. masses --      1.1540                 2.2196                 2.1012
 Frc consts  --      0.0435                 0.0972                 0.0997
 IR Inten    --      0.0037                 0.4636                 0.3694

                     19                     20                     21
                      A                      A                      A
 Frequencies --    339.2178               353.0503               366.7826
 Red. masses --      2.9262                 3.1401                 3.8822
 Frc consts  --      0.1984                 0.2306                 0.3077
 IR Inten    --      1.5598                 1.3105                 2.9988

                     22                     23                     24
                      A                      A                      A
 Frequencies --    386.1389               422.5050               437.8200
 Red. masses --      3.3484                 3.0390                 2.7130
 Frc consts  --      0.2942                 0.3196                 0.3064
 IR Inten    --      6.2204                 4.6449                13.3648

                     25                     26                     27
                      A                      A                      A
 Frequencies --    466.2804               479.2204               491.6474
 Red. masses --      3.4604                 3.7292                 2.6181
 Frc consts  --      0.4433                 0.5046                 0.3729
 IR Inten    --      2.3328                 9.6225                 1.0306

                     28                     29                     30
                      A                      A                      A
 Frequencies --    495.4814               598.6873               633.4160
 Red. masses --      5.5456                 4.1915                 4.3474
 Frc consts  --      0.8021                 0.8852                 1.0277
 IR Inten    --      1.2763                 0.8792                 6.3270

                     31                     32                     33
                      A                      A                      A
 Frequencies --    654.1284               663.5507               700.3104
 Red. masses --      4.7450                 5.2477                 4.1484
 Frc consts  --      1.1962                 1.3613                 1.1987
 IR Inten    --      4.8720                10.2104                 1.1639

                     34                     35                     36
                      A                      A                      A
 Frequencies --    720.4048               748.8283               762.6079
 Red. masses --      3.5660                 1.0823                 4.8491
 Frc consts  --      1.0904                 0.3576                 1.6616
 IR Inten    --      2.2556                 8.5296                12.3331

                     37                     38                     39
                      A                      A                      A
 Frequencies --    774.2042               807.7314               821.1459
 Red. masses --      4.6138                 1.7929                 1.7815
 Frc consts  --      1.6294                 0.6892                 0.7077
 IR Inten    --     21.6841                15.2130                13.3476

                     40                     41                     42
                      A                      A                      A
 Frequencies --    856.3361               865.0796               872.2861
 Red. masses --      1.7735                 1.6982                 1.8004
 Frc consts  --      0.7663                 0.7488                 0.8071
 IR Inten    --     33.2040                15.0768                22.0890

                     43                     44                     45
                      A                      A                      A
 Frequencies --    881.9593               913.5021               920.4593
 Red. masses --      2.6204                 1.8907                 1.8093
 Frc consts  --      1.2009                 0.9296                 0.9032
 IR Inten    --     47.4161                11.1088                11.3323

                     46                     47                     48
                      A                      A                      A
 Frequencies --    950.3991               958.3115               977.7155
 Red. masses --      2.4971                 1.3563                 1.7609
 Frc consts  --      1.3289                 0.7339                 0.9918
 IR Inten    --     17.2380                 6.2809                21.5505

                     49                     50                     51
                      A                      A                      A
 Frequencies --   1023.9428              1027.0671              1037.6977
 Red. masses --      4.8940                 2.2121                 2.8819
 Frc consts  --      3.0232                 1.3748                 1.8284
 IR Inten    --     47.0482                 9.7710                 4.3655

                     52                     53                     54
                      A                      A                      A
 Frequencies --   1045.5239              1066.1318              1070.3133
 Red. masses --      2.6685                 2.3198                 5.8275
 Frc consts  --      1.7186                 1.5535                 3.9333
 IR Inten    --      5.9767                28.4844                 6.4808

                     55                     56                     57
                      A                      A                      A
 Frequencies --   1077.0450              1092.8702              1099.6508
 Red. masses --      2.3746                 2.4130                 2.0932
 Frc consts  --      1.6230                 1.6980                 1.4913
 IR Inten    --      4.0754                28.4051                30.8397

                     58                     59                     60
                      A                      A                      A
 Frequencies --   1123.1970              1147.9789              1175.3504
 Red. masses --      5.1832                 2.3533                 1.2851
 Frc consts  --      3.8526                 1.8272                 1.0460
 IR Inten    --    186.6707                 6.3667                 9.3948

                     61                     62                     63
                      A                      A                      A
 Frequencies --   1181.1259              1181.7505              1204.9741
 Red. masses --      1.2710                 1.2706                 1.7214
 Frc consts  --      1.0447                 1.0455                 1.4726
 IR Inten    --      1.5111                 2.4472                25.2413

                     64                     65                     66
                      A                      A                      A
 Frequencies --   1212.4242              1214.1040              1217.4527
 Red. masses --      1.3509                 1.6942                 1.4946
 Frc consts  --      1.1700                 1.4714                 1.3052
 IR Inten    --      5.2720                56.7400                16.4190

                     67                     68                     69
                      A                      A                      A
 Frequencies --   1226.8027              1243.0856              1250.8486
 Red. masses --      1.6202                 1.5747                 2.4291
 Frc consts  --      1.4367                 1.4337                 2.2393
 IR Inten    --    102.8059                51.6786               306.8120

                     70                     71                     72
                      A                      A                      A
 Frequencies --   1270.1000              1288.3891              1300.7677
 Red. masses --      1.3537                 1.6010                 2.0134
 Frc consts  --      1.2866                 1.5658                 2.0072
 IR Inten    --      9.4048                21.8110               169.2749

                     73                     74                     75
                      A                      A                      A
 Frequencies --   1306.0494              1306.9681              1313.7892
 Red. masses --      1.3373                 1.3496                 1.3067
 Frc consts  --      1.3440                 1.3583                 1.3289
 IR Inten    --      6.1390                 3.2027                 5.8653

                     76                     77                     78
                      A                      A                      A
 Frequencies --   1321.0046              1330.8393              1339.2860
 Red. masses --      1.4587                 1.2362                 1.4958
 Frc consts  --      1.4997                 1.2900                 1.5807
 IR Inten    --      4.1436                15.0340               109.2983

                     79                     80                     81
                      A                      A                      A
 Frequencies --   1343.9817              1362.3407              1366.5670
 Red. masses --      1.3762                 1.6629                 1.4075
 Frc consts  --      1.4646                 1.8184                 1.5487
 IR Inten    --    144.5648                48.6290                13.2380

                     82                     83                     84
                      A                      A                      A
 Frequencies --   1372.3671              1385.0970              1396.6305
 Red. masses --      1.6581                 3.3915                 1.4744
 Frc consts  --      1.8399                 3.8336                 1.6944
 IR Inten    --      5.0367                27.3865                 4.8186

                     85                     86                     87
                      A                      A                      A
 Frequencies --   1432.2149              1433.7834              1448.3502
 Red. masses --      1.4542                 1.2871                 3.3827
 Frc consts  --      1.7575                 1.5589                 4.1808
 IR Inten    --     16.6994                 4.9064                37.4889

                     88                     89                     90
                      A                      A                      A
 Frequencies --   1494.0359              1497.9456              1502.0194
 Red. masses --      1.2242                 1.0974                 1.0490
 Frc consts  --      1.6100                 1.4508                 1.3944
 IR Inten    --     16.6682                 0.9590                 8.4963

                     91                     92                     93
                      A                      A                      A
 Frequencies --   1503.0413              1503.1660              1504.7478
 Red. masses --      1.1686                 1.2832                 1.0509
 Frc consts  --      1.5554                 1.7083                 1.4020
 IR Inten    --      1.6004                 3.3915                 8.7055

                     94                     95                     96
                      A                      A                      A
 Frequencies --   1511.4206              1517.5792              1519.1614
 Red. masses --      1.0768                 1.0834                 1.0493
 Frc consts  --      1.4493                 1.4701                 1.4268
 IR Inten    --      1.0892                 7.1882                15.2189

                     97                     98                     99
                      A                      A                      A
 Frequencies --   1519.2280              1523.7583              1525.6516
 Red. masses --      1.0784                 1.0692                 1.0772
 Frc consts  --      1.4664                 1.4626                 1.4772
 IR Inten    --     89.2578                61.0199                 1.0243

                    100                    101                    102
                      A                      A                      A
 Frequencies --   1531.4669              1537.8045              1557.3083
 Red. masses --      1.0943                 1.0955                 2.5749
 Frc consts  --      1.5121                 1.5263                 3.6793
 IR Inten    --      4.3867                 4.9208               251.2720

                    103                    104                    105
                      A                      A                      A
 Frequencies --   1639.9744              1657.9179              2965.2984
 Red. masses --      9.1493                 6.0417                 1.0712
 Frc consts  --     14.4982                 9.7844                 5.5494
 IR Inten    --      2.3855                49.2205               110.7927

                    106                    107                    108
                      A                      A                      A
 Frequencies --   3037.4576              3040.9862              3044.2366
 Red. masses --      1.0588                 1.0674                 1.0594
 Frc consts  --      5.7556                 5.8155                 5.7847
 IR Inten    --     27.3833                 9.1169                45.0678

                    109                    110                    111
                      A                      A                      A
 Frequencies --   3045.5130              3048.1918              3051.1990
 Red. masses --      1.0632                 1.0336                 1.0341
 Frc consts  --      5.8099                 5.6581                 5.6721
 IR Inten    --    216.0612                74.4400                62.6892

                    112                    113                    114
                      A                      A                      A
 Frequencies --   3052.4851              3053.1491              3062.2483
 Red. masses --      1.0501                 1.0541                 1.0999
 Frc consts  --      5.7651                 5.7891                 6.0768
 IR Inten    --     69.8728                64.8377                 7.6300

                    115                    116                    117
                      A                      A                      A
 Frequencies --   3067.5830              3073.1975              3075.3518
 Red. masses --      1.0856                 1.1011                 1.0936
 Frc consts  --      6.0188                 6.1269                 6.0937
 IR Inten    --     50.9524                21.0663                11.3842

                    118                    119                    120
                      A                      A                      A
 Frequencies --   3091.4415              3102.7579              3110.1794
 Red. masses --      1.1016                 1.0867                 1.1069
 Frc consts  --      6.2030                 6.1638                 6.3086
 IR Inten    --    133.8369                83.9703                60.2009

                    121                    122                    123
                      A                      A                      A
 Frequencies --   3113.2827              3115.9803              3121.2465
 Red. masses --      1.1067                 1.1031                 1.1022
 Frc consts  --      6.3201                 6.3105                 6.3265
 IR Inten    --     60.5095               115.8547                71.7294

                    124                    125                    126
                      A                      A                      A
 Frequencies --   3128.1524              3136.7198              3175.7679
 Red. masses --      1.0985                 1.0946                 1.1019
 Frc consts  --      6.3335                 6.3452                 6.5478
 IR Inten    --     85.1505                80.4504                35.8298

                    127                    128                    129
                      A                      A                      A
 Frequencies --   3178.5824              3230.9974              3233.3785
 Red. masses --      1.1020                 1.0895                 1.0896
 Frc consts  --      6.5600                 6.7013                 6.7119
 IR Inten    --     37.4107                23.5618                 8.1414

 - Thermochemistry -
 -------------------
 Temperature   298.150 Kelvin.  Pressure   1.00000 Atm.
 Atom     1 has atomic number  6 and mass  12.00000

 Molecular mass:   275.18853 amu.
 Principal axes and moments of inertia in atomic units:
                           1         2         3
     Eigenvalues --  2050.40219********************
           X            1.00000  -0.00159  -0.00115
           Y            0.00160   0.99998   0.00639
           Z            0.00114  -0.00639   0.99998
 This molecule is an asymmetric top.
 Rotational symmetry number  1.
 Warning -- assumption of classical behavior for rotation
           may cause significant error
 Rotational temperatures (Kelvin)      0.04224     0.00611     0.00550
 Rotational constants (GHZ):           0.88019     0.12728     0.11454
 Zero-point vibrational energy    1044831.9 (Joules/Mol)
                                  249.72081 (Kcal/Mol)
 Warning -- explicit consideration of  29 degrees of freedom as
           vibrations may cause significant error
 Vibrational temperatures:     30.68    48.18    78.81    99.50   105.96
          (Kelvin)            127.51   146.19   187.96   209.54   228.67
                              246.89   270.14   288.21   326.88   358.93
                              364.00   392.25   408.31   488.06   507.96
                              527.72   555.57   607.89   629.93   670.87
                              689.49   707.37   712.89   861.38   911.34
                              941.14   954.70  1007.59  1036.50  1077.40
                             1097.22  1113.91  1162.15  1181.45  1232.08
                             1244.66  1255.03  1268.94  1314.33  1324.34
                             1367.41  1378.80  1406.71  1473.23  1477.72
                             1493.02  1504.28  1533.93  1539.94  1549.63
                             1572.40  1582.15  1616.03  1651.69  1691.07
                             1699.38  1700.28  1733.69  1744.41  1746.82
                             1751.64  1765.10  1788.52  1799.69  1827.39
                             1853.70  1871.51  1879.11  1880.44  1890.25
                             1900.63  1914.78  1926.93  1933.69  1960.10
                             1966.19  1974.53  1992.85  2009.44  2060.64
                             2062.89  2083.85  2149.58  2155.21  2161.07
                             2162.54  2162.72  2165.00  2174.60  2183.46
                             2185.73  2185.83  2192.35  2195.07  2203.44
                             2212.56  2240.62  2359.56  2385.37  4266.40
                             4370.22  4375.30  4379.98  4381.81  4385.67
                             4389.99  4391.85  4392.80  4405.89  4413.57
                             4421.65  4424.75  4447.89  4464.18  4474.85
                             4479.32  4483.20  4490.78  4500.71  4513.04
                             4569.22  4573.27  4648.68  4652.11

 Zero-point correction=                           0.397955 (Hartree/Particle)
 Thermal correction to Energy=                    0.417828
 Thermal correction to Enthalpy=                  0.418772
 Thermal correction to Gibbs Free Energy=         0.348443
 Sum of electronic and zero-point Energies=           -867.642529
 Sum of electronic and thermal Energies=              -867.622656
 Sum of electronic and thermal Enthalpies=            -867.621712
 Sum of electronic and thermal Free Energies=         -867.692041

                     E (Thermal)             CV                S
                      KCal/Mol        Cal/Mol-Kelvin    Cal/Mol-Kelvin
 Total                  262.191             75.955            148.021
 Electronic               0.000              0.000              0.000
 Translational            0.889              2.981             42.735
 Rotational               0.889              2.981             34.481
 Vibrational            260.414             69.994             70.804
 Vibration     1          0.593              1.985              6.507
 Vibration     2          0.594              1.983              5.611
 Vibration     3          0.596              1.976              4.637
 Vibration     4          0.598              1.969              4.177
 Vibration     5          0.599              1.966              4.053
 Vibration     6          0.601              1.957              3.690
 Vibration     7          0.604              1.948              3.423
 Vibration     8          0.612              1.923              2.937
 Vibration     9          0.617              1.907              2.728
 Vibration    10          0.621              1.893              2.562
 Vibration    11          0.626              1.877              2.418
 Vibration    12          0.632              1.857              2.250
 Vibration    13          0.638              1.839              2.130
 Vibration    14          0.651              1.800              1.901
 Vibration    15          0.662              1.764              1.734
 Vibration    16          0.664              1.758              1.710
 Vibration    17          0.676              1.724              1.579
 Vibration    18          0.682              1.704              1.511
 Vibration    19          0.719              1.597              1.216
 Vibration    20          0.729              1.569              1.153
 Vibration    21          0.740              1.541              1.093
 Vibration    22          0.755              1.500              1.015
 Vibration    23          0.785              1.421              0.884
 Vibration    24          0.798              1.388              0.833
 Vibration    25          0.824              1.325              0.748
 Vibration    26          0.836              1.296              0.712
 Vibration    27          0.847              1.269              0.679
 Vibration    28          0.851              1.260              0.670
 Vibration    29          0.957              1.035              0.452

 Optimization completed.
    -- Stationary point found.
 Normal termination of Gaussian 16 at Tue Mar  1 19:38:37 2022.

 ------------------------------------------
 #p b3lyp/6-31G(d) geom=allcheck guess=read
 ------------------------------------------

 Structure from the checkpoint file:  "113.n.pdb.xyz.mst.wat.chk"
 -------------
 113.n.pdb.xyz
 -------------
 Charge =  0 Multiplicity = 1

 SCF Done:  E(RB3LYP) =  -868.032465908     A.U. after   11 cycles
 Normal termination of Gaussian 16 at Tue Mar  1 19:42:44 2022.
 Gaussian 16:  ES64L-G16RevA.03 25-Dec-2016

 ----------------------------------------------------------------------
 #p b3lyp/6-31G(d) scrf=(iefpcm,read,solvent=water) geom=allcheck guess
 =read
 ----------------------------------------------------------------------

 Structure from the checkpoint file:  "113.n.pdb.xyz.mst.wat.chk"
 -------------
 113.n.pdb.xyz
 -------------
 Charge =  0 Multiplicity = 1

                         Standard orientation:
 ---------------------------------------------------------------------
 Center     Atomic      Atomic             Coordinates (Angstroms)
 Number     Number       Type             X           Y           Z
 ---------------------------------------------------------------------
      1          6           0       -7.490630   -0.176070   -0.129122
      2          6           0       -6.178135    0.399451    0.407618
      3          6           0       -4.969572    0.053206   -0.467706
      4          6           0       -3.661190    0.632692    0.072444
      5          7           0       -2.509878    0.321466   -0.793896
      6          6           0       -2.027671   -1.058876   -0.615600
      7          6           0       -1.113739   -1.065235    0.634971
      8          6           0        0.094140   -2.033183    0.546786
      9          6           0        1.286177   -1.126740    0.334226
     10          6           0        2.614148   -1.496421    0.085146
     11          6           0        3.588960   -0.511001   -0.054519
     12          8           0        4.911307   -0.758029   -0.297777
     13          6           0        5.306236   -2.121480   -0.407687
     14          6           0        3.233858    0.858574    0.057201
     15          8           0        4.263283    1.746614   -0.089912
     16          6           0        3.945509    3.130886    0.011880
     17          6           0        1.909279    1.215579    0.300453
     18          6           0        0.935077    0.216518    0.435848
     19          6           0       -0.546093    0.391882    0.668233
     20          6           0       -1.321280    1.128997   -0.471958
     21          1           0       -7.446607   -1.269232   -0.190473
     22          1           0       -7.706383    0.203237   -1.134000
     23          1           0       -8.335066    0.088069    0.515421
     24          1           0       -6.006410    0.028662    1.426300
     25          1           0       -6.264761    1.490659    0.490662
     26          1           0       -5.126822    0.428918   -1.486415
     27          1           0       -4.885644   -1.038122   -0.549081
     28          1           0       -3.746954    1.724030    0.114721
     29          1           0       -3.510025    0.288889    1.110800
     30          1           0       -1.436189   -1.340560   -1.496427
     31          1           0       -2.864986   -1.756453   -0.544912
     32          1           0       -1.711846   -1.269450    1.525519
     33          1           0       -0.027698   -2.756278   -0.269570
     34          1           0        0.205663   -2.621857    1.464420
     35          1           0        2.889334   -2.540838    0.002987
     36          1           0        6.377477   -2.108819   -0.606381
     37          1           0        4.785125   -2.620844   -1.230999
     38          1           0        5.110643   -2.668108    0.521227
     39          1           0        3.228208    3.432310   -0.759181
     40          1           0        4.883767    3.665462   -0.133091
     41          1           0        3.533425    3.373441    0.997402
     42          1           0        1.640259    2.261724    0.383289
     43          1           0       -0.744165    0.882746    1.626352
     44          1           0       -1.615433    2.147085   -0.207394
     45          1           0       -0.682925    1.183716   -1.361679
 ---------------------------------------------------------------------

 SCF Done:  E(RB3LYP) =  -868.039753419     A.U. after   10 cycles

 The electronic state is 1-A.
 Alpha  occ. eigenvalues --  -19.17776 -19.17772 -14.31954 -10.24510 -10.24465
 Alpha  occ. eigenvalues --  -10.23238 -10.23228 -10.19980 -10.19941 -10.19839
 Alpha  occ. eigenvalues --  -10.18502 -10.18462 -10.18346 -10.18335 -10.18166
 Alpha  occ. eigenvalues --  -10.18158 -10.18139 -10.17670 -10.17329 -10.16954
 Alpha  occ. eigenvalues --   -1.07181  -1.05186  -0.92539  -0.86115  -0.80718
 Alpha  occ. eigenvalues --   -0.78546  -0.75691  -0.74585  -0.72427  -0.71289
 Alpha  occ. eigenvalues --   -0.70141  -0.67932  -0.65900  -0.63357  -0.60011
 Alpha  occ. eigenvalues --   -0.58040  -0.56896  -0.56182  -0.55266  -0.52236
 Alpha  occ. eigenvalues --   -0.50672  -0.49391  -0.48476  -0.47441  -0.47078
 Alpha  occ. eigenvalues --   -0.45698  -0.45260  -0.44835  -0.44706  -0.43961
 Alpha  occ. eigenvalues --   -0.43006  -0.42369  -0.40557  -0.39859  -0.39549
 Alpha  occ. eigenvalues --   -0.38412  -0.38033  -0.37731  -0.36955  -0.35942
 Alpha  occ. eigenvalues --   -0.35362  -0.34230  -0.33830  -0.33484  -0.32878
 Alpha  occ. eigenvalues --   -0.32584  -0.32407  -0.32125  -0.31926  -0.31412
 Alpha  occ. eigenvalues --   -0.31051  -0.29376  -0.23694  -0.21589  -0.19727
 Alpha virt. eigenvalues --    0.00285   0.01861   0.08089   0.09025   0.10178
 Alpha virt. eigenvalues --    0.11270   0.11413   0.11615   0.12201   0.12718
 Alpha virt. eigenvalues --    0.13646   0.14066   0.14383   0.15040   0.15293

 Mulliken charges:
               1
     1  C   -0.450176
     2  C   -0.253615
     3  C   -0.257784
     4  C   -0.127748
     5  N   -0.426186
     6  C   -0.169261
     7  C   -0.117744
     8  C   -0.361800
     9  C    0.100089
    10  C   -0.296271
    11  C    0.329808
    12  O   -0.533786
    13  C   -0.224661
    14  C    0.327930
    15  O   -0.533888
    16  C   -0.224476
    17  C   -0.292826
    18  C    0.106708
    19  C   -0.201621
    20  C   -0.148552
    21  H    0.144859
    22  H    0.144962
    23  H    0.144830
    24  H    0.135440
    25  H    0.134820
    26  H    0.132394
    27  H    0.138376
    28  H    0.141837
    29  H    0.124500
    30  H    0.142686
    31  H    0.155862
    32  H    0.142627
    33  H    0.152572
    34  H    0.156467
    35  H    0.153564
    36  H    0.178275
    37  H    0.165233
    38  H    0.164993
    39  H    0.164819
    40  H    0.178341
    41  H    0.165071
    42  H    0.153771
    43  H    0.148190
    44  H    0.149418
    45  H    0.141957
 Sum of Mulliken charges =  -0.00000

 Dipole moment (field-independent basis, Debye):
    X=             -0.8603    Y=             -0.5395    Z=              1.5562  Tot=              1.8582
 Quadrupole moment (field-independent basis, Debye-Ang):
   XX=           -123.1786   YY=           -101.9520   ZZ=           -124.3314
   XY=             -4.1164   XZ=             -5.0329   YZ=              1.8709

 Normal termination of Gaussian 16 at Tue Mar  1 19:47:56 2022.
