 Gaussian 16, Revision A.03,

 ----------------------------------------------------------------------
 #p b3lyp/6-31G(d) opt=(MaxStep=10,MaxCycles=1000) freq scf=(MaxCycle=2
 000,NoVarAcc,NoIncFock) scrf=(iefpcm,read,solvent=water)
 ----------------------------------------------------------------------

 -------------
 114.n.pdb.xyz
 -------------
 Symbolic Z-matrix:
 Charge =  0 Multiplicity = 1

 SCF Done:  E(RB3LYP) =  -78.5885922555     A.U. after    7 cycles
 SCF Done:  E(RB3LYP) =  -78.5887144850     A.U. after    6 cycles
 SCF Done:  E(RB3LYP) =  -78.5887288797     A.U. after    6 cycles
 SCF Done:  E(RB3LYP) =  -78.5887309310     A.U. after    6 cycles
 Optimization completed.
    -- Stationary point found.
 Normal termination of Gaussian 16 at Tue Mar  1 20:45:52 2022.

 --------------------------------------------------------------------
 #P Geom=AllCheck Guess=TCheck SCRF=Check GenChk RB3LYP/6-31G(d) Freq
 --------------------------------------------------------------------

 Structure from the checkpoint file:  "114.n.pdb.xyz.mst.wat.chk"
 -------------
 114.n.pdb.xyz
 -------------
 Charge =  0 Multiplicity = 1

 SCF Done:  E(RB3LYP) =  -78.5887309310     A.U. after    1 cycles

  Exact polarizability:  23.699  -6.483  27.505  13.464  -2.745  23.738
 Approx polarizability:  26.992  -8.077  29.052  15.266  -4.405  26.560

                      1                      2                      3
                     ?A                     AU                     AU
 Frequencies --    835.3529               969.6497               982.4418
 Red. masses --      1.0426                 1.5180                 1.1613
 Frc consts  --      0.4287                 0.8409                 0.6604
 IR Inten    --      1.6768                 0.2456               110.4471

                      4                      5                      6
                     AU                     ?A                     ?B
 Frequencies --   1077.8157              1243.8312              1386.6349
 Red. masses --      1.0081                 1.5243                 1.2174
 Frc consts  --      0.6900                 1.3894                 1.3792
 IR Inten    --      0.0027                 0.0002                 0.0155

                      7                      8                      9
                     ?B                     ?B                     ?C
 Frequencies --   1491.7638              1714.0819              3162.3380
 Red. masses --      1.1124                 3.1689                 1.0482
 Frc consts  --      1.4585                 5.4855                 6.1763
 IR Inten    --      9.1361                 0.0015                30.4191

                     10                     11                     12
                     ?C                     ?C                     ?C
 Frequencies --   3178.4737              3235.3757              3258.3862
 Red. masses --      1.0734                 1.1150                 1.1178
 Frc consts  --      6.3891                 6.8767                 6.9921
 IR Inten    --      0.3087                 0.1916                43.5517

 - Thermochemistry -
 -------------------
 Temperature   298.150 Kelvin.  Pressure   1.00000 Atm.
 Atom     1 has atomic number  6 and mass  12.00000

 Molecular mass:    28.03130 amu.
 Principal axes and moments of inertia in atomic units:
                           1         2         3
     Eigenvalues --    12.26204  60.10173  72.36377
           X            0.65696   0.20685   0.72499
           Y           -0.45442   0.87596   0.16185
           Z            0.60159   0.43578  -0.66947
 This molecule is an asymmetric top.
 Rotational symmetry number  1.
 Rotational temperatures (Kelvin)      7.06358     1.44112     1.19692
 Rotational constants (GHZ):         147.18120    30.02811    24.93985
 Zero-point vibrational energy     134796.1 (Joules/Mol)
                                   32.21704 (Kcal/Mol)
 Vibrational temperatures:   1201.89  1395.11  1413.51  1550.74  1789.60
          (Kelvin)           1995.06  2146.32  2466.18  4549.90  4573.11
                             4654.98  4688.09

 Zero-point correction=                           0.051341 (Hartree/Particle)
 Thermal correction to Energy=                    0.054380
 Thermal correction to Enthalpy=                  0.055324
 Thermal correction to Gibbs Free Energy=         0.029158
 Sum of electronic and zero-point Energies=            -78.537390
 Sum of electronic and thermal Energies=               -78.534351
 Sum of electronic and thermal Enthalpies=             -78.533407
 Sum of electronic and thermal Free Energies=          -78.559573

                     E (Thermal)             CV                S
                      KCal/Mol        Cal/Mol-Kelvin    Cal/Mol-Kelvin
 Total                   34.124              8.065             55.070
 Electronic               0.000              0.000              0.000
 Translational            0.889              2.981             35.927
 Rotational               0.889              2.981             18.618
 Vibrational             32.346              2.103              0.525

 Optimization completed.
    -- Stationary point found.
 Normal termination of Gaussian 16 at Tue Mar  1 20:46:02 2022.

 ------------------------------------------
 #p b3lyp/6-31G(d) geom=allcheck guess=read
 ------------------------------------------

 Structure from the checkpoint file:  "114.n.pdb.xyz.mst.wat.chk"
 -------------
 114.n.pdb.xyz
 -------------
 Charge =  0 Multiplicity = 1

 SCF Done:  E(RB3LYP) =  -78.5874548096     A.U. after    7 cycles
 Normal termination of Gaussian 16 at Tue Mar  1 20:46:03 2022.
 Gaussian 16:  ES64L-G16RevA.03 25-Dec-2016

 ----------------------------------------------------------------------
 #p b3lyp/6-31G(d) scrf=(iefpcm,read,solvent=water) geom=allcheck guess
 =read
 ----------------------------------------------------------------------

 Structure from the checkpoint file:  "114.n.pdb.xyz.mst.wat.chk"
 -------------
 114.n.pdb.xyz
 -------------
 Charge =  0 Multiplicity = 1

                         Standard orientation:
 ---------------------------------------------------------------------
 Center     Atomic      Atomic             Coordinates (Angstroms)
 Number     Number       Type             X           Y           Z
 ---------------------------------------------------------------------
      1          6           0       -0.437459    0.302584   -0.400598
      2          6           0        0.437459   -0.302584    0.400598
      3          1           0       -0.623076    1.371474   -0.343153
      4          1           0       -1.004883   -0.245398   -1.147521
      5          1           0        0.623076   -1.371474    0.343153
      6          1           0        1.004883    0.245398    1.147521
 ---------------------------------------------------------------------

 SCF Done:  E(RB3LYP) =  -78.5887473128     A.U. after    7 cycles

 The electronic state is 1-AG.
 Alpha  occ. eigenvalues --  -10.18515 -10.18426  -0.75677  -0.57791  -0.46526
 Alpha  occ. eigenvalues --   -0.41685  -0.35306  -0.27111
 Alpha virt. eigenvalues --    0.01510   0.12589   0.14376   0.16163   0.24850
 Alpha virt. eigenvalues --    0.33324   0.47940   0.54208   0.56691   0.63367
 Alpha virt. eigenvalues --    0.65169   0.69706   0.84973   0.87391   0.93420

 Mulliken charges:
               1
     1  C   -0.313962
     2  C   -0.313962
     3  H    0.156977
     4  H    0.156985
     5  H    0.156977
     6  H    0.156985
 Sum of Mulliken charges =   0.00000

 Dipole moment (field-independent basis, Debye):
    X=              0.0000    Y=              0.0000    Z=             -0.0000  Tot=              0.0000
 Quadrupole moment (field-independent basis, Debye-Ang):
   XX=            -13.5289   YY=            -12.0342   ZZ=            -13.3040
   XY=             -0.4190   XZ=              1.5712   YZ=              0.2811

 Normal termination of Gaussian 16 at Tue Mar  1 20:46:06 2022.
