 Gaussian 16, Revision A.03,

 ----------------------------------------------------------------------
 #p b3lyp/6-31G(d) opt=(MaxStep=10,MaxCycles=1000) freq scf=(MaxCycle=2
 000,NoVarAcc,NoIncFock) scrf=(iefpcm,read,solvent=water)
 ----------------------------------------------------------------------

 -------------
 116.n.pdb.xyz
 -------------
 Symbolic Z-matrix:
 Charge =  0 Multiplicity = 1

 SCF Done:  E(RB3LYP) =  -1247.37937935     A.U. after   12 cycles
 SCF Done:  E(RB3LYP) =  -1247.38329371     A.U. after   10 cycles
 SCF Done:  E(RB3LYP) =  -1247.38288042     A.U. after   10 cycles
 SCF Done:  E(RB3LYP) =  -1247.38494376     A.U. after   10 cycles
 SCF Done:  E(RB3LYP) =  -1247.38501248     A.U. after   10 cycles
 SCF Done:  E(RB3LYP) =  -1247.38513583     A.U. after   10 cycles
 SCF Done:  E(RB3LYP) =  -1247.38519827     A.U. after    9 cycles
 SCF Done:  E(RB3LYP) =  -1247.38520714     A.U. after    9 cycles
 SCF Done:  E(RB3LYP) =  -1247.38521474     A.U. after    8 cycles
 SCF Done:  E(RB3LYP) =  -1247.38521480     A.U. after    8 cycles
 SCF Done:  E(RB3LYP) =  -1247.38521309     A.U. after    7 cycles
 SCF Done:  E(RB3LYP) =  -1247.38521174     A.U. after    6 cycles
 SCF Done:  E(RB3LYP) =  -1247.38521161     A.U. after    5 cycles
 Optimization completed.
    -- Stationary point found.
 Normal termination of Gaussian 16 at Wed Mar  2 01:21:00 2022.

 --------------------------------------------------------------------
 #P Geom=AllCheck Guess=TCheck SCRF=Check GenChk RB3LYP/6-31G(d) Freq
 --------------------------------------------------------------------

 Structure from the checkpoint file:  "116.n.pdb.xyz.mst.wat.chk"
 -------------
 116.n.pdb.xyz
 -------------
 Charge =  0 Multiplicity = 1

 SCF Done:  E(RB3LYP) =  -1247.38521161     A.U. after    1 cycles

  Exact polarizability: 367.750   7.947 343.301 -11.548 -45.705 213.948
 Approx polarizability: 383.841  14.574 368.575 -14.974 -55.259 240.905

                      1                      2                      3
                      A                      A                      A
 Frequencies --     22.3892                42.6912                50.3005
 Red. masses --      4.3144                 3.6118                 3.9447
 Frc consts  --      0.0013                 0.0039                 0.0059
 IR Inten    --      0.5024                 1.9712                 2.7865

                      4                      5                      6
                      A                      A                      A
 Frequencies --     55.1729                64.4659                78.3037
 Red. masses --      4.8610                 2.5252                 2.0648
 Frc consts  --      0.0087                 0.0062                 0.0075
 IR Inten    --      0.5356                 0.6992                 0.1644

                      7                      8                      9
                      A                      A                      A
 Frequencies --     89.7404               124.4601               140.9744
 Red. masses --      3.0913                 3.3384                 2.0959
 Frc consts  --      0.0147                 0.0305                 0.0245
 IR Inten    --      2.3929                 1.0881                 1.1067

                     10                     11                     12
                      A                      A                      A
 Frequencies --    167.6275               174.1023               195.5349
 Red. masses --      3.3751                 1.3772                 2.6797
 Frc consts  --      0.0559                 0.0246                 0.0604
 IR Inten    --      1.6262                 1.1770                 1.8494

                     13                     14                     15
                      A                      A                      A
 Frequencies --    204.0447               218.2555               228.1235
 Red. masses --      2.5233                 4.0728                 3.5537
 Frc consts  --      0.0619                 0.1143                 0.1090
 IR Inten    --      2.1773                 8.3071                 0.1115

                     16                     17                     18
                      A                      A                      A
 Frequencies --    238.8379               255.1852               272.4555
 Red. masses --      1.2003                 3.5538                 2.6940
 Frc consts  --      0.0403                 0.1363                 0.1178
 IR Inten    --      0.2219                 4.4853                 0.8349

                     19                     20                     21
                      A                      A                      A
 Frequencies --    301.3747               316.7584               360.8331
 Red. masses --      3.8240                 3.4149                 3.3666
 Frc consts  --      0.2046                 0.2019                 0.2583
 IR Inten    --      0.2263                10.5203                 8.0311

                     22                     23                     24
                      A                      A                      A
 Frequencies --    376.5588               383.4568               424.0018
 Red. masses --      4.0783                 2.7144                 2.3213
 Frc consts  --      0.3407                 0.2352                 0.2459
 IR Inten    --      3.6827                 5.6601                22.6089

                     25                     26                     27
                      A                      A                      A
 Frequencies --    444.0618               470.6681               484.3205
 Red. masses --      1.6057                 2.6070                 4.0728
 Frc consts  --      0.1866                 0.3403                 0.5629
 IR Inten    --    131.4435                 4.8570                 4.1197

                     28                     29                     30
                      A                      A                      A
 Frequencies --    528.5259               537.7918               546.9058
 Red. masses --      4.1909                 4.2842                 3.5189
 Frc consts  --      0.6898                 0.7300                 0.6201
 IR Inten    --      1.6232                 5.0278                10.9067

                     31                     32                     33
                      A                      A                      A
 Frequencies --    587.7387               604.5648               620.7328
 Red. masses --      3.7684                 3.8900                 3.4239
 Frc consts  --      0.7670                 0.8377                 0.7773
 IR Inten    --      3.2160                 4.4868                 5.4493

                     34                     35                     36
                      A                      A                      A
 Frequencies --    636.9914               651.5548               715.0291
 Red. masses --      3.3260                 3.0151                 5.6221
 Frc consts  --      0.7951                 0.7542                 1.6935
 IR Inten    --      3.5024                 3.6435                 3.0418

                     37                     38                     39
                      A                      A                      A
 Frequencies --    747.3328               751.6157               755.1227
 Red. masses --      4.9645                 4.3245                 1.8920
 Frc consts  --      1.6336                 1.4394                 0.6356
 IR Inten    --      3.3197                10.7147                 3.3553

                     40                     41                     42
                      A                      A                      A
 Frequencies --    761.9302               769.6993               804.6028
 Red. masses --      1.5217                 1.3986                 1.6852
 Frc consts  --      0.5205                 0.4882                 0.6428
 IR Inten    --     11.1684                67.0845                19.7834

                     43                     44                     45
                      A                      A                      A
 Frequencies --    808.5068               822.8358               838.0728
 Red. masses --      3.0687                 2.8375                 2.5131
 Frc consts  --      1.1819                 1.1319                 1.0400
 IR Inten    --      1.3797                 1.2977                 6.4159

                     46                     47                     48
                      A                      A                      A
 Frequencies --    862.3291               881.9415               890.3021
 Red. masses --      3.4272                 1.5156                 1.5865
 Frc consts  --      1.5015                 0.6946                 0.7409
 IR Inten    --     13.4006                 1.4488                 4.2297

                     49                     50                     51
                      A                      A                      A
 Frequencies --    900.9078               910.7082               944.6376
 Red. masses --      1.2661                 1.9391                 2.3238
 Frc consts  --      0.6055                 0.9476                 1.2217
 IR Inten    --      2.6552                 6.3914                 9.4603

                     52                     53                     54
                      A                      A                      A
 Frequencies --    951.7142               955.0086               961.3635
 Red. masses --      1.5316                 1.6723                 2.4221
 Frc consts  --      0.8174                 0.8986                 1.3189
 IR Inten    --      1.3041                 0.9645                 2.1836

                     55                     56                     57
                      A                      A                      A
 Frequencies --    988.3240               996.2893              1012.0438
 Red. masses --      1.2308                 1.4009                 1.8080
 Frc consts  --      0.7083                 0.8193                 1.0911
 IR Inten    --      7.1891                 6.0440                18.7715

                     58                     59                     60
                      A                      A                      A
 Frequencies --   1043.7293              1057.0616              1065.3747
 Red. masses --      2.7536                 2.6413                 2.3125
 Frc consts  --      1.7674                 1.7389                 1.5464
 IR Inten    --     22.1410                12.0877                 8.3342

                     61                     62                     63
                      A                      A                      A
 Frequencies --   1072.9712              1078.6648              1101.3652
 Red. masses --      2.4648                 1.9493                 2.2328
 Frc consts  --      1.6719                 1.3363                 1.5958
 IR Inten    --     40.2124                 8.2794                36.0459

                     64                     65                     66
                      A                      A                      A
 Frequencies --   1107.2332              1114.0932              1127.9198
 Red. masses --      2.0052                 2.3932                 2.9692
 Frc consts  --      1.4484                 1.7501                 2.2256
 IR Inten    --     49.1238                 8.3603                 2.6838

                     67                     68                     69
                      A                      A                      A
 Frequencies --   1129.1687              1141.2965              1168.7833
 Red. masses --      2.3171                 2.2489                 1.8493
 Frc consts  --      1.7407                 1.7259                 1.4884
 IR Inten    --     19.8946                21.5129                46.3008

                     70                     71                     72
                      A                      A                      A
 Frequencies --   1171.4808              1192.5347              1204.7584
 Red. masses --      1.3446                 1.3471                 1.3730
 Frc consts  --      1.0872                 1.1287                 1.1741
 IR Inten    --     15.5202                12.9154                 4.4358

                     73                     74                     75
                      A                      A                      A
 Frequencies --   1224.0680              1247.0315              1249.3593
 Red. masses --      1.9038                 1.6340                 1.5434
 Frc consts  --      1.6807                 1.4971                 1.4194
 IR Inten    --     36.4746                20.4788                 2.4341

                     76                     77                     78
                      A                      A                      A
 Frequencies --   1263.7224              1277.8323              1289.0767
 Red. masses --      1.6116                 1.3583                 1.2453
 Frc consts  --      1.5164                 1.3068                 1.2192
 IR Inten    --      0.5064                 8.1881                67.0251

                     79                     80                     81
                      A                      A                      A
 Frequencies --   1299.4073              1301.0347              1312.7455
 Red. masses --      1.3159                 1.5166                 1.4741
 Frc consts  --      1.3091                 1.5125                 1.4967
 IR Inten    --     12.2021                 6.2454                 6.3522

                     82                     83                     84
                      A                      A                      A
 Frequencies --   1316.3863              1337.1731              1342.6887
 Red. masses --      1.5919                 1.1914                 1.5438
 Frc consts  --      1.6253                 1.2551                 1.6398
 IR Inten    --     12.7716                10.9195                33.0252

                     85                     86                     87
                      A                      A                      A
 Frequencies --   1353.3428              1363.8681              1367.1752
 Red. masses --      1.4005                 1.4382                 1.3678
 Frc consts  --      1.5113                 1.5762                 1.5063
 IR Inten    --      7.1846                20.8023                 4.4363

                     88                     89                     90
                      A                      A                      A
 Frequencies --   1376.6860              1380.0286              1382.0912
 Red. masses --      1.4014                 2.2757                 1.1952
 Frc consts  --      1.5649                 2.5536                 1.3451
 IR Inten    --     14.3790                34.3147                13.0019

                     91                     92                     93
                      A                      A                      A
 Frequencies --   1393.4120              1396.7175              1419.8914
 Red. masses --      1.3982                 1.8224                 3.1178
 Frc consts  --      1.5995                 2.0947                 3.7035
 IR Inten    --     20.3991                11.9465                 8.5322

                     94                     95                     96
                      A                      A                      A
 Frequencies --   1423.3691              1430.5090              1444.7817
 Red. masses --      1.5047                 1.2644                 1.4310
 Frc consts  --      1.7962                 1.5245                 1.7599
 IR Inten    --      4.6018                 0.7674                 9.0825

                     97                     98                     99
                      A                      A                      A
 Frequencies --   1461.8038              1480.3506              1486.3549
 Red. masses --      2.1605                 3.0846                 1.0518
 Frc consts  --      2.7201                 3.9827                 1.3691
 IR Inten    --     26.8941                58.5482                11.2825

                    100                    101                    102
                      A                      A                      A
 Frequencies --   1495.2943              1499.3321              1501.8450
 Red. masses --      1.1591                 1.0878                 1.0584
 Frc consts  --      1.5269                 1.4407                 1.4065
 IR Inten    --     16.0640                21.4248                 4.4441

                    103                    104                    105
                      A                      A                      A
 Frequencies --   1504.9302              1507.7530              1517.1279
 Red. masses --      1.0597                 1.0887                 1.0412
 Frc consts  --      1.4141                 1.4582                 1.4120
 IR Inten    --      1.5270                 3.8037                 7.1002

                    106                    107                    108
                      A                      A                      A
 Frequencies --   1521.0442              1536.2093              1538.5654
 Red. masses --      1.0725                 1.0943                 1.0861
 Frc consts  --      1.4619                 1.5215                 1.5149
 IR Inten    --      0.7233                 6.2198                 2.7511

                    109                    110                    111
                      A                      A                      A
 Frequencies --   1549.5332              1602.2996              1651.3934
 Red. masses --      3.1443                 6.2327                 7.3996
 Frc consts  --      4.4481                 9.4279                11.8894
 IR Inten    --      6.2075                21.2204                17.9391

                    112                    113                    114
                      A                      A                      A
 Frequencies --   1667.9768              2936.9156              2941.7889
 Red. masses --      6.4651                 1.0738                 1.0726
 Frc consts  --     10.5976                 5.4569                 5.4689
 IR Inten    --     16.3691                73.6680               185.4877

                    115                    116                    117
                      A                      A                      A
 Frequencies --   2964.5935              3035.3054              3052.2710
 Red. masses --      1.0828                 1.0668                 1.0785
 Frc consts  --      5.6068                 5.7909                 5.9202
 IR Inten    --    129.1126                84.4377                35.8348

                    118                    119                    120
                      A                      A                      A
 Frequencies --   3054.1037              3055.2907              3058.2170
 Red. masses --      1.0461                 1.0497                 1.0716
 Frc consts  --      5.7488                 5.7734                 5.9052
 IR Inten    --     80.0299                14.6524                22.6825

                    121                    122                    123
                      A                      A                      A
 Frequencies --   3064.9910              3069.3489              3074.8647
 Red. masses --      1.0588                 1.0757                 1.0313
 Frc consts  --      5.8603                 5.9709                 5.7449
 IR Inten    --     71.6533                54.0197                42.4992

                    124                    125                    126
                      A                      A                      A
 Frequencies --   3080.1428              3087.7935              3097.2634
 Red. masses --      1.0942                 1.0967                 1.0944
 Frc consts  --      6.1165                 6.1608                 6.1854
 IR Inten    --     11.7574                51.9092                73.4250

                    127                    128                    129
                      A                      A                      A
 Frequencies --   3102.1853              3117.3973              3119.0132
 Red. masses --      1.1043                 1.1044                 1.1020
 Frc consts  --      6.2617                 6.3237                 6.3166
 IR Inten    --     74.4821                29.9621                82.6607

                    130                    131                    132
                      A                      A                      A
 Frequencies --   3123.0173              3124.7617              3156.8170
 Red. masses --      1.0901                 1.1024                 1.1082
 Frc consts  --      6.2642                 6.3417                 6.5070
 IR Inten    --    126.6804                68.7793                16.6949

                    133                    134                    135
                      A                      A                      A
 Frequencies --   3174.5614              3185.3100              3201.8014
 Red. masses --      1.1046                 1.0872                 1.0902
 Frc consts  --      6.5587                 6.4990                 6.5847
 IR Inten    --     12.5047                19.8697                39.9677

                    136                    137                    138
                      A                      A                      A
 Frequencies --   3219.4722              3278.3378              3642.4877
 Red. masses --      1.0946                 1.0965                 1.0815
 Frc consts  --      6.6845                 6.9433                 8.4544
 IR Inten    --     48.8111                 6.0990               232.0101

 - Thermochemistry -
 -------------------
 Temperature   298.150 Kelvin.  Pressure   1.00000 Atm.
 Atom     1 has atomic number  6 and mass  12.00000

 Molecular mass:   314.18167 amu.
 Principal axes and moments of inertia in atomic units:
                           1         2         3
     Eigenvalues --  5210.21945********************
           X            0.99998  -0.00480  -0.00300
           Y            0.00481   0.99998   0.00289
           Z            0.00298  -0.00290   0.99999
 This molecule is an asymmetric top.
 Rotational symmetry number  1.
 Warning -- assumption of classical behavior for rotation
           may cause significant error
 Rotational temperatures (Kelvin)      0.01662     0.00757     0.00545
 Rotational constants (GHZ):           0.34638     0.15765     0.11359
 Zero-point vibrational energy    1103187.4 (Joules/Mol)
                                  263.66811 (Kcal/Mol)
 Warning -- explicit consideration of  33 degrees of freedom as
           vibrations may cause significant error
 Vibrational temperatures:     32.21    61.42    72.37    79.38    92.75
          (Kelvin)            112.66   129.12   179.07   202.83   241.18
                              250.49   281.33   293.57   314.02   328.22
                              343.63   367.15   392.00   433.61   455.74
                              519.16   541.78   551.71   610.04   638.91
                              677.19   696.83   760.43   773.76   786.88
                              845.62   869.83   893.10   916.49   937.44
                             1028.77  1075.25  1081.41  1086.45  1096.25
                             1107.43  1157.64  1163.26  1183.88  1205.80
                             1240.70  1268.92  1280.95  1296.21  1310.31
                             1359.12  1369.30  1374.04  1383.19  1421.98
                             1433.44  1456.11  1501.69  1520.88  1532.84
                             1543.77  1551.96  1584.62  1593.06  1602.93
                             1622.83  1624.62  1642.07  1681.62  1685.50
                             1715.79  1733.38  1761.16  1794.20  1797.55
                             1818.21  1838.52  1854.69  1869.56  1871.90
                             1888.75  1893.99  1923.89  1931.83  1947.16
                             1962.30  1967.06  1980.74  1985.55  1988.52
                             2004.81  2009.56  2042.91  2047.91  2058.18
                             2078.72  2103.21  2129.89  2138.53  2151.40
                             2157.20  2160.82  2165.26  2169.32  2182.81
                             2188.44  2210.26  2213.65  2229.43  2305.35
                             2375.99  2399.85  4225.57  4232.58  4265.39
                             4367.13  4391.54  4394.17  4395.88  4400.09
                             4409.84  4416.11  4424.04  4431.64  4442.65
                             4456.27  4463.35  4485.24  4487.56  4493.33
                             4495.84  4541.96  4567.49  4582.95  4606.68
                             4632.10  4716.80  5240.73

 Zero-point correction=                           0.420182 (Hartree/Particle)
 Thermal correction to Energy=                    0.441219
 Thermal correction to Enthalpy=                  0.442163
 Thermal correction to Gibbs Free Energy=         0.369303
 Sum of electronic and zero-point Energies=          -1246.965030
 Sum of electronic and thermal Energies=             -1246.943993
 Sum of electronic and thermal Enthalpies=           -1246.943048
 Sum of electronic and thermal Free Energies=        -1247.015909

                     E (Thermal)             CV                S
                      KCal/Mol        Cal/Mol-Kelvin    Cal/Mol-Kelvin
 Total                  276.869             82.248            153.347
 Electronic               0.000              0.000              0.000
 Translational            0.889              2.981             43.130
 Rotational               0.889              2.981             35.204
 Vibrational            275.092             76.286             75.013
 Vibration     1          0.593              1.985              6.410
 Vibration     2          0.595              1.980              5.130
 Vibration     3          0.595              1.977              4.806
 Vibration     4          0.596              1.976              4.623
 Vibration     5          0.597              1.971              4.316
 Vibration     6          0.600              1.964              3.933
 Vibration     7          0.602              1.956              3.666
 Vibration     8          0.610              1.929              3.030
 Vibration     9          0.615              1.912              2.791
 Vibration    10          0.624              1.882              2.462
 Vibration    11          0.627              1.874              2.391
 Vibration    12          0.636              1.846              2.175
 Vibration    13          0.640              1.834              2.096
 Vibration    14          0.646              1.813              1.974
 Vibration    15          0.651              1.798              1.894
 Vibration    16          0.657              1.781              1.812
 Vibration    17          0.666              1.754              1.694
 Vibration    18          0.675              1.724              1.581
 Vibration    19          0.693              1.671              1.409
 Vibration    20          0.704              1.642              1.327
 Vibration    21          0.735              1.553              1.119
 Vibration    22          0.747              1.520              1.053
 Vibration    23          0.753              1.505              1.025
 Vibration    24          0.786              1.418              0.878
 Vibration    25          0.804              1.374              0.814
 Vibration    26          0.828              1.315              0.736
 Vibration    27          0.840              1.285              0.699
 Vibration    28          0.883              1.187              0.591
 Vibration    29          0.893              1.166              0.570
 Vibration    30          0.902              1.146              0.551
 Vibration    31          0.945              1.058              0.471
 Vibration    32          0.963              1.022              0.442
 Vibration    33          0.981              0.988              0.415

 Optimization completed.
    -- Stationary point found.
 Normal termination of Gaussian 16 at Wed Mar  2 02:44:47 2022.

 ------------------------------------------
 #p b3lyp/6-31G(d) geom=allcheck guess=read
 ------------------------------------------

 Structure from the checkpoint file:  "116.n.pdb.xyz.mst.wat.chk"
 -------------
 116.n.pdb.xyz
 -------------
 Charge =  0 Multiplicity = 1

 SCF Done:  E(RB3LYP) =  -1247.37185583     A.U. after   11 cycles
 Normal termination of Gaussian 16 at Wed Mar  2 02:49:33 2022.
 Gaussian 16:  ES64L-G16RevA.03 25-Dec-2016

 ----------------------------------------------------------------------
 #p b3lyp/6-31G(d) scrf=(iefpcm,read,solvent=water) geom=allcheck guess
 =read
 ----------------------------------------------------------------------

 Structure from the checkpoint file:  "116.n.pdb.xyz.mst.wat.chk"
 -------------
 116.n.pdb.xyz
 -------------
 Charge =  0 Multiplicity = 1

                         Standard orientation:
 ---------------------------------------------------------------------
 Center     Atomic      Atomic             Coordinates (Angstroms)
 Number     Number       Type             X           Y           Z
 ---------------------------------------------------------------------
      1          6           0       -2.662216    4.837235    0.697337
      2          6           0       -2.376558    3.516983   -0.021155
      3          6           0       -1.286138    2.701234    0.677278
      4          7           0       -0.979348    1.432835    0.006700
      5          6           0       -2.003422    0.415847    0.241493
      6          6           0       -1.835115   -0.759884   -0.736416
      7          6           0       -2.678410   -1.968619   -0.320468
      8         16           0       -4.472816   -1.566317   -0.265161
      9          6           0       -5.147502   -3.222815    0.100479
     10          6           0       -0.336864   -1.161176   -0.847416
     11          6           0        0.470724   -0.583304    0.329406
     12          6           0        0.399164    0.976140    0.307064
     13          6           0        1.366508    1.647304   -0.710436
     14          6           0        2.755943    1.109953   -0.550759
     15          6           0        4.028514    1.559747   -0.806430
     16          7           0        4.947536    0.563259   -0.490012
     17          6           0        4.279118   -0.545788   -0.018180
     18          6           0        4.688964   -1.803024    0.447366
     19          6           0        3.686980   -2.677197    0.872063
     20          6           0        2.314287   -2.332304    0.853094
     21          6           0        1.901098   -1.086492    0.386145
     22          6           0        2.904691   -0.216150   -0.049784
     23          1           0       -3.002892    4.664363    1.723481
     24          1           0       -3.439693    5.408214    0.180309
     25          1           0       -1.764979    5.464168    0.747255
     26          1           0       -3.301014    2.931475   -0.082921
     27          1           0       -2.061347    3.710411   -1.053139
     28          1           0       -1.566887    2.532504    1.734297
     29          1           0       -0.367198    3.296289    0.693411
     30          1           0       -1.994798    0.046508    1.284367
     31          1           0       -2.981957    0.876771    0.090469
     32          1           0       -2.178587   -0.425778   -1.721406
     33          1           0       -2.371093   -2.328807    0.667406
     34          1           0       -2.536933   -2.783016   -1.036846
     35          1           0       -4.776600   -3.592221    1.059246
     36          1           0       -4.891267   -3.930911   -0.690802
     37          1           0       -6.232875   -3.123453    0.153139
     38          1           0        0.083104   -0.794502   -1.789758
     39          1           0       -0.236744   -2.251444   -0.865375
     40          1           0       -0.026110   -0.911087    1.249783
     41          1           0        0.693474    1.315035    1.314477
     42          1           0        1.320325    2.733857   -0.582539
     43          1           0        0.983907    1.440598   -1.718614
     44          1           0        4.378086    2.505885   -1.193531
     45          1           0        5.950242    0.654751   -0.583635
     46          1           0        5.734663   -2.089529    0.484144
     47          1           0        3.972242   -3.657278    1.242226
     48          1           0        1.584078   -3.050537    1.216223
 ---------------------------------------------------------------------

 SCF Done:  E(RB3LYP) =  -1247.38369667     A.U. after   10 cycles

 The electronic state is 1-A.
 Alpha  occ. eigenvalues --  -88.86963 -14.36833 -14.31720 -10.21352 -10.21167
 Alpha  occ. eigenvalues --  -10.21130 -10.20908 -10.20483 -10.20033 -10.19927
 Alpha  occ. eigenvalues --  -10.19156 -10.19140 -10.18767 -10.18610 -10.18358
 Alpha  occ. eigenvalues --  -10.18084 -10.18072 -10.17779 -10.17510 -10.17278
 Alpha  occ. eigenvalues --  -10.17062 -10.16973  -7.93074  -5.89585  -5.89228
 Alpha  occ. eigenvalues --   -5.88547  -0.96828  -0.92053  -0.84632  -0.81964
 Alpha  occ. eigenvalues --   -0.80650  -0.78156  -0.76574  -0.75370  -0.73392
 Alpha  occ. eigenvalues --   -0.72127  -0.69529  -0.68203  -0.65872  -0.63950
 Alpha  occ. eigenvalues --   -0.60901  -0.60715  -0.59002  -0.58315  -0.57525
 Alpha  occ. eigenvalues --   -0.54549  -0.52646  -0.51037  -0.49138  -0.48317
 Alpha  occ. eigenvalues --   -0.47143  -0.46853  -0.45836  -0.44739  -0.44286
 Alpha  occ. eigenvalues --   -0.43383  -0.42561  -0.42045  -0.41372  -0.41263
 Alpha  occ. eigenvalues --   -0.40832  -0.40695  -0.40080  -0.39731  -0.38732
 Alpha  occ. eigenvalues --   -0.38593  -0.37355  -0.36923  -0.35866  -0.35209
 Alpha  occ. eigenvalues --   -0.35114  -0.34564  -0.33701  -0.33319  -0.32810
 Alpha  occ. eigenvalues --   -0.32010  -0.31307  -0.31236  -0.30061  -0.29608
 Alpha  occ. eigenvalues --   -0.26304  -0.22332  -0.22001  -0.20552  -0.19524
 Alpha virt. eigenvalues --   -0.00746   0.02464   0.03758   0.06898   0.07911
 Alpha virt. eigenvalues --    0.09070   0.09589   0.10400   0.10916   0.11306
 Alpha virt. eigenvalues --    0.11506   0.12031   0.13229   0.13544   0.14781

 Mulliken charges:
               1
     1  C   -0.455841
     2  C   -0.258647
     3  C   -0.115173
     4  N   -0.444892
     5  C   -0.134451
     6  C   -0.087256
     7  C   -0.418960
     8  S    0.015583
     9  C   -0.586539
    10  C   -0.281730
    11  C   -0.219301
    12  C    0.046424
    13  C   -0.348106
    14  C    0.086328
    15  C   -0.056264
    16  N   -0.694525
    17  C    0.312127
    18  C   -0.197767
    19  C   -0.178938
    20  C   -0.253215
    21  C    0.133863
    22  C   -0.025659
    23  H    0.147048
    24  H    0.148304
    25  H    0.146053
    26  H    0.143193
    27  H    0.137379
    28  H    0.114495
    29  H    0.145101
    30  H    0.118747
    31  H    0.160717
    32  H    0.143178
    33  H    0.176334
    34  H    0.181130
    35  H    0.188271
    36  H    0.188065
    37  H    0.193925
    38  H    0.150442
    39  H    0.146525
    40  H    0.148890
    41  H    0.120031
    42  H    0.150635
    43  H    0.150166
    44  H    0.168291
    45  H    0.385028
    46  H    0.145107
    47  H    0.136762
    48  H    0.129124
 Sum of Mulliken charges =  -0.00000

 Dipole moment (field-independent basis, Debye):
    X=              3.2515    Y=             -0.2316    Z=              0.1764  Tot=              3.2645
 Quadrupole moment (field-independent basis, Debye-Ang):
   XX=           -116.7841   YY=           -126.3914   ZZ=           -143.4935
   XY=             14.4890   XZ=             -7.4215   YZ=             -2.6767

 Normal termination of Gaussian 16 at Wed Mar  2 02:55:03 2022.
