 Gaussian 16, Revision A.03,

 ----------------------------------------------------------------------
 #p b3lyp/6-31G(d) opt=(MaxStep=10,MaxCycles=1000) freq scf=(MaxCycle=2
 000,NoVarAcc,NoIncFock) scrf=(iefpcm,read,solvent=water)
 ----------------------------------------------------------------------

 -------------
 117.n.pdb.xyz
 -------------
 Symbolic Z-matrix:
 Charge =  0 Multiplicity = 1

 SCF Done:  E(RB3LYP) =  -928.309390540     A.U. after   11 cycles
 SCF Done:  E(RB3LYP) =  -928.314788280     A.U. after    9 cycles
 SCF Done:  E(RB3LYP) =  -928.317291753     A.U. after   10 cycles
 SCF Done:  E(RB3LYP) =  -928.318789240     A.U. after    9 cycles
 SCF Done:  E(RB3LYP) =  -928.319285695     A.U. after    9 cycles
 SCF Done:  E(RB3LYP) =  -928.319530292     A.U. after   10 cycles
 SCF Done:  E(RB3LYP) =  -928.319804065     A.U. after    9 cycles
 SCF Done:  E(RB3LYP) =  -928.321561101     A.U. after   12 cycles
 SCF Done:  E(RB3LYP) =  -928.228826466     A.U. after   12 cycles
 SCF Done:  E(RB3LYP) =  -928.321202721     A.U. after   11 cycles
 SCF Done:  E(RB3LYP) =  -928.324965146     A.U. after    7 cycles
 SCF Done:  E(RB3LYP) =  -928.324966155     A.U. after    7 cycles
 SCF Done:  E(RB3LYP) =  -928.324966388     A.U. after    7 cycles
 SCF Done:  E(RB3LYP) =  -928.324966539     A.U. after    6 cycles
 SCF Done:  E(RB3LYP) =  -928.324966792     A.U. after    7 cycles
 SCF Done:  E(RB3LYP) =  -928.324966707     A.U. after    6 cycles
 SCF Done:  E(RB3LYP) =  -928.324966560     A.U. after    7 cycles
 Optimization completed.
    -- Stationary point found.
 Normal termination of Gaussian 16 at Wed Mar  2 03:18:23 2022.

 --------------------------------------------------------------------
 #P Geom=AllCheck Guess=TCheck SCRF=Check GenChk RB3LYP/6-31G(d) Freq
 --------------------------------------------------------------------

 Structure from the checkpoint file:  "117.n.pdb.xyz.mst.wat.chk"
 -------------
 117.n.pdb.xyz
 -------------
 Charge =  0 Multiplicity = 1

 SCF Done:  E(RB3LYP) =  -928.324966560     A.U. after    1 cycles

  Exact polarizability:  60.993  -4.096  57.482  -1.477   1.075  54.450
 Approx polarizability:  67.055  -3.484  62.523  -0.720   1.603  66.191

                      1                      2                      3
                      A                      A                      A
 Frequencies --     12.3920                38.5751                61.0840
 Red. masses --      9.6397                17.9630                13.7417
 Frc consts  --      0.0009                 0.0157                 0.0302
 IR Inten    --      2.1076                 0.1508                 1.9827

                      4                      5                      6
                      A                      A                      A
 Frequencies --     88.0563               150.7284               184.0004
 Red. masses --      6.1771                11.4392                 7.5357
 Frc consts  --      0.0282                 0.1531                 0.1503
 IR Inten    --      6.0795                 4.6810                 0.5460

                      7                      8                      9
                      A                      A                      A
 Frequencies --    213.3787               289.7643               294.6375
 Red. masses --     11.0941                16.1259                 7.2719
 Frc consts  --      0.2976                 0.7977                 0.3719
 IR Inten    --      3.0419                 0.5264                 4.4730

                     10                     11                     12
                      A                      A                      A
 Frequencies --    323.7976               355.7739               436.2065
 Red. masses --     17.6206                 6.1614                 8.7571
 Frc consts  --      1.0885                 0.4595                 0.9817
 IR Inten    --      1.7249                 6.3376                 4.3024

                     13                     14                     15
                      A                      A                      A
 Frequencies --    509.7778               526.2453               537.9132
 Red. masses --     13.4706                17.3957                13.5409
 Frc consts  --      2.0625                 2.8384                 2.3085
 IR Inten    --     18.9412                 6.0255                 3.6756

                     16                     17                     18
                      A                      A                      A
 Frequencies --    562.5458               595.9130               675.2227
 Red. masses --      9.2816                11.8076                10.2482
 Frc consts  --      1.7306                 2.4705                 2.7529
 IR Inten    --      7.8990                10.9949                77.5495

                     19                     20                     21
                      A                      A                      A
 Frequencies --    736.4111               892.6435               909.4315
 Red. masses --     14.0153                 5.7368                 4.6371
 Frc consts  --      4.4781                 2.6933                 2.2596
 IR Inten    --     11.2604                38.9768                60.6799

                     22                     23                     24
                      A                      A                      A
 Frequencies --   1029.0338              1036.0386              1118.7791
 Red. masses --      8.1380                 5.2858                 4.2875
 Frc consts  --      5.0773                 3.3428                 3.1619
 IR Inten    --    243.5882               118.3708               249.4141

                     25                     26                     27
                      A                      A                      A
 Frequencies --   1138.4410              1182.9289              1190.7577
 Red. masses --      3.7289                12.0718                 2.2576
 Frc consts  --      2.8475                 9.9526                 1.8860
 IR Inten    --    255.1822                28.6908               240.0227

                     28                     29                     30
                      A                      A                      A
 Frequencies --   1212.0019              1237.5849              1273.0744
 Red. masses --      5.5087                11.9158                 3.9339
 Frc consts  --      4.7676                10.7528                 3.7565
 IR Inten    --    487.1471               433.0732               124.2130

                     31                     32                     33
                      A                      A                      A
 Frequencies --   1302.5286              1305.6420              1398.9566
 Red. masses --      3.4892                 1.1929                 2.1715
 Frc consts  --      3.4878                 1.1982                 2.5039
 IR Inten    --    260.8128                 3.3135               126.4296

                     34                     35                     36
                      A                      A                      A
 Frequencies --   1421.2769              1468.4017              1545.2141
 Red. masses --      1.6876                 1.1752                 1.0934
 Frc consts  --      2.0085                 1.4929                 1.5382
 IR Inten    --     36.9906                23.9524                 1.3638

                     37                     38                     39
                      A                      A                      A
 Frequencies --   3106.1157              3133.1642              3193.8873
 Red. masses --      1.0574                 1.0863                 1.1127
 Frc consts  --      6.0107                 6.2832                 6.6876
 IR Inten    --     52.4684                 3.4913                37.8666

 - Thermochemistry -
 -------------------
 Temperature   298.150 Kelvin.  Pressure   1.00000 Atm.
 Atom     1 has atomic number  9 and mass  18.99840

 Molecular mass:   200.00721 amu.
 Principal axes and moments of inertia in atomic units:
                           1         2         3
     Eigenvalues --  1688.339722077.866853018.20029
           X            0.99425  -0.10693  -0.00512
           Y            0.10695   0.99426   0.00310
           Z            0.00476  -0.00363   0.99998
 This molecule is an asymmetric top.
 Rotational symmetry number  1.
 Warning -- assumption of classical behavior for rotation
           may cause significant error
 Rotational temperatures (Kelvin)      0.05130     0.04168     0.02870
 Rotational constants (GHZ):           1.06894     0.86855     0.59795
 Zero-point vibrational energy     219444.9 (Joules/Mol)
                                   52.44860 (Kcal/Mol)
 Warning -- explicit consideration of  17 degrees of freedom as
           vibrations may cause significant error
 Vibrational temperatures:     17.83    55.50    87.89   126.69   216.86
          (Kelvin)            264.74   307.00   416.91   423.92   465.87
                              511.88   627.60   733.46   757.15   773.94
                              809.38   857.39   971.49  1059.53  1284.31
                             1308.47  1480.55  1490.63  1609.67  1637.96
                             1701.97  1713.23  1743.80  1780.61  1831.67
                             1874.05  1878.53  2012.79  2044.90  2112.70
                             2223.22  4469.01  4507.92  4595.29

 Zero-point correction=                           0.083582 (Hartree/Particle)
 Thermal correction to Energy=                    0.094937
 Thermal correction to Enthalpy=                  0.095881
 Thermal correction to Gibbs Free Energy=         0.043163
 Sum of electronic and zero-point Energies=           -928.241384
 Sum of electronic and thermal Energies=              -928.230030
 Sum of electronic and thermal Enthalpies=            -928.229085
 Sum of electronic and thermal Free Energies=         -928.281804

                     E (Thermal)             CV                S
                      KCal/Mol        Cal/Mol-Kelvin    Cal/Mol-Kelvin
 Total                   59.574             38.590            110.956
 Electronic               0.000              0.000              0.000
 Translational            0.889              2.981             41.784
 Rotational               0.889              2.981             30.738
 Vibrational             57.796             32.628             38.433
 Vibration     1          0.593              1.987              7.585
 Vibration     2          0.594              1.981              5.331
 Vibration     3          0.597              1.973              4.422
 Vibration     4          0.601              1.958              3.703
 Vibration     5          0.618              1.902              2.663
 Vibration     6          0.631              1.862              2.287
 Vibration     7          0.644              1.821              2.015
 Vibration     8          0.686              1.693              1.475
 Vibration     9          0.689              1.684              1.447
 Vibration    10          0.708              1.628              1.291
 Vibration    11          0.731              1.563              1.141
 Vibration    12          0.797              1.391              0.839
 Vibration    13          0.865              1.228              0.634
 Vibration    14          0.881              1.192              0.596
 Vibration    15          0.893              1.166              0.570
 Vibration    16          0.918              1.112              0.519
 Vibration    17          0.954              1.040              0.457

 Optimization completed.
    -- Stationary point found.
 Normal termination of Gaussian 16 at Wed Mar  2 03:25:19 2022.

 ------------------------------------------
 #p b3lyp/6-31G(d) geom=allcheck guess=read
 ------------------------------------------

 Structure from the checkpoint file:  "117.n.pdb.xyz.mst.wat.chk"
 -------------
 117.n.pdb.xyz
 -------------
 Charge =  0 Multiplicity = 1

 SCF Done:  E(RB3LYP) =  -928.328269330     A.U. after   10 cycles
 Normal termination of Gaussian 16 at Wed Mar  2 03:25:59 2022.
 Gaussian 16:  ES64L-G16RevA.03 25-Dec-2016

 ----------------------------------------------------------------------
 #p b3lyp/6-31G(d) scrf=(iefpcm,read,solvent=water) geom=allcheck guess
 =read
 ----------------------------------------------------------------------

 Structure from the checkpoint file:  "117.n.pdb.xyz.mst.wat.chk"
 -------------
 117.n.pdb.xyz
 -------------
 Charge =  0 Multiplicity = 1

                         Standard orientation:
 ---------------------------------------------------------------------
 Center     Atomic      Atomic             Coordinates (Angstroms)
 Number     Number       Type             X           Y           Z
 ---------------------------------------------------------------------
      1          9           0       -2.927828    0.623077   -0.474504
      2          6           0       -2.020277    1.464483    0.146044
      3          8           0       -0.972902    0.718280    0.691749
      4          6           0       -0.092645    0.143086   -0.252347
      5          6           0        1.279013    0.803605   -0.087759
      6          9           0        1.767089    0.633903    1.152223
      7          9           0        2.170904    0.304682   -0.960491
      8          9           0        1.169056    2.126110   -0.309805
      9          6           0       -0.068246   -1.366256   -0.004846
     10          9           0       -1.292392   -1.881489   -0.200290
     11          9           0        0.304736   -1.654118    1.253675
     12          9           0        0.784836   -1.980121   -0.843307
     13          1           0       -2.508112    1.959164    0.984202
     14          1           0       -1.659713    2.175047   -0.601099
     15          1           0       -0.423647    0.301642   -1.281154
 ---------------------------------------------------------------------

 SCF Done:  E(RB3LYP) =  -928.324203826     A.U. after   10 cycles

 The electronic state is 1-A.
 Alpha  occ. eigenvalues --  -24.74320 -24.74245 -24.74242 -24.74156 -24.74046
 Alpha  occ. eigenvalues --  -24.74035 -24.69385 -19.20275 -10.45143 -10.45090
 Alpha  occ. eigenvalues --  -10.32060 -10.29435  -1.32497  -1.31916  -1.23701
 Alpha  occ. eigenvalues --   -1.23475  -1.23251  -1.23126  -1.20823  -1.08586
 Alpha  occ. eigenvalues --   -0.82793  -0.72057  -0.70453  -0.66425  -0.61329
 Alpha  occ. eigenvalues --   -0.61173  -0.60488  -0.59594  -0.58358  -0.56424
 Alpha  occ. eigenvalues --   -0.54097  -0.51817  -0.49842  -0.47994  -0.47585
 Alpha  occ. eigenvalues --   -0.47100  -0.46769  -0.44478  -0.44002  -0.43016
 Alpha  occ. eigenvalues --   -0.42814  -0.41786  -0.41611  -0.41162  -0.40595
 Alpha  occ. eigenvalues --   -0.40401  -0.37563  -0.34590  -0.31966
 Alpha virt. eigenvalues --    0.06204   0.08578   0.12154   0.13194   0.14795
 Alpha virt. eigenvalues --    0.15954   0.16531   0.17875   0.19715   0.20376
 Alpha virt. eigenvalues --    0.20678   0.25130   0.27693   0.30149   0.44783

 Mulliken charges:
               1
     1  F   -0.314564
     2  C    0.222060
     3  O   -0.472685
     4  C   -0.128354
     5  C    0.833206
     6  F   -0.258702
     7  F   -0.257480
     8  F   -0.263428
     9  C    0.833737
    10  F   -0.260038
    11  F   -0.260048
    12  F   -0.259585
    13  H    0.183299
    14  H    0.169905
    15  H    0.232678
 Sum of Mulliken charges =  -0.00000

 Dipole moment (field-independent basis, Debye):
    X=             -0.8947    Y=              2.4747    Z=             -1.2960  Tot=              2.9333
 Quadrupole moment (field-independent basis, Debye-Ang):
   XX=            -66.5624   YY=            -60.5492   ZZ=            -62.4147
   XY=             -4.9016   XZ=             -1.2298   YZ=             -0.0778

 Normal termination of Gaussian 16 at Wed Mar  2 03:26:46 2022.
