 Gaussian 16, Revision A.03,

 ----------------------------------------------------------------------
 #p b3lyp/6-31G(d) opt=(MaxStep=10,MaxCycles=1000) freq scf=(MaxCycle=2
 000,NoVarAcc,NoIncFock) scrf=(iefpcm,read,solvent=water)
 ----------------------------------------------------------------------

 -------------
 118.n.pdb.xyz
 -------------
 Symbolic Z-matrix:
 Charge =  0 Multiplicity = 1

 SCF Done:  E(RB3LYP) =  -1541.32046307     A.U. after   14 cycles
 SCF Done:  E(RB3LYP) =  -1541.32567104     A.U. after   11 cycles
 SCF Done:  E(RB3LYP) =  -1541.32917482     A.U. after   12 cycles
 SCF Done:  E(RB3LYP) =  -1541.32972044     A.U. after   10 cycles
 SCF Done:  E(RB3LYP) =  -1541.32996288     A.U. after   11 cycles
 SCF Done:  E(RB3LYP) =  -1541.33008566     A.U. after   10 cycles
 SCF Done:  E(RB3LYP) =  -1541.33014095     A.U. after   10 cycles
 SCF Done:  E(RB3LYP) =  -1541.33020467     A.U. after   10 cycles
 SCF Done:  E(RB3LYP) =  -1541.33028202     A.U. after   10 cycles
 SCF Done:  E(RB3LYP) =  -1541.33031268     A.U. after    9 cycles
 SCF Done:  E(RB3LYP) =  -1541.33074456     A.U. after   10 cycles
 SCF Done:  E(RB3LYP) =  -1541.33015158     A.U. after   11 cycles
 SCF Done:  E(RB3LYP) =  -1541.33076828     A.U. after   10 cycles
 SCF Done:  E(RB3LYP) =  -1541.33084339     A.U. after   10 cycles
 SCF Done:  E(RB3LYP) =  -1541.33084642     A.U. after    9 cycles
 SCF Done:  E(RB3LYP) =  -1541.33084653     A.U. after    7 cycles
 SCF Done:  E(RB3LYP) =  -1541.33084666     A.U. after    7 cycles
 Optimization completed.
    -- Stationary point found.
 Normal termination of Gaussian 16 at Wed Mar  2 04:31:37 2022.

 --------------------------------------------------------------------
 #P Geom=AllCheck Guess=TCheck SCRF=Check GenChk RB3LYP/6-31G(d) Freq
 --------------------------------------------------------------------

 Structure from the checkpoint file:  "118.n.pdb.xyz.mst.wat.chk"
 -------------
 118.n.pdb.xyz
 -------------
 Charge =  0 Multiplicity = 1

 SCF Done:  E(RB3LYP) =  -1541.33084666     A.U. after    1 cycles

  Exact polarizability: 292.804  -8.279 190.923 -27.167  -7.265 131.560
 Approx polarizability: 315.525  -4.903 229.842 -34.908 -12.311 164.091

                      1                      2                      3
                      A                      A                      A
 Frequencies --     38.6202                52.4577                57.2337
 Red. masses --      6.7129                 8.2985                 9.6638
 Frc consts  --      0.0059                 0.0135                 0.0187
 IR Inten    --      6.9345                 5.3355                 2.0849

                      4                      5                      6
                      A                      A                      A
 Frequencies --    132.1875               133.2474               206.4175
 Red. masses --      8.4886                 6.8123                 7.9590
 Frc consts  --      0.0874                 0.0713                 0.1998
 IR Inten    --      6.0078                 0.3075                15.4685

                      7                      8                      9
                      A                      A                      A
 Frequencies --    211.5620               219.3384               234.3514
 Red. masses --     24.0636                 4.6114                 2.5656
 Frc consts  --      0.6346                 0.1307                 0.0830
 IR Inten    --      1.4010                 5.3477               136.3341

                     10                     11                     12
                      A                      A                      A
 Frequencies --    254.3336               303.9078               332.0103
 Red. masses --      1.8285                 4.9286                 8.1020
 Frc consts  --      0.0697                 0.2682                 0.5262
 IR Inten    --    244.0087                18.5527                14.2771

                     13                     14                     15
                      A                      A                      A
 Frequencies --    350.5715               410.0880               413.3501
 Red. masses --      2.8041                 3.9361                 1.5325
 Frc consts  --      0.2031                 0.3900                 0.1543
 IR Inten    --     14.3039               102.7758               555.0499

                     16                     17                     18
                      A                      A                      A
 Frequencies --    460.4083               472.9576               482.9045
 Red. masses --      2.8531                 5.1689                 2.3766
 Frc consts  --      0.3563                 0.6812                 0.3265
 IR Inten    --     13.4807                14.9314                49.9432

                     19                     20                     21
                      A                      A                      A
 Frequencies --    499.4953               516.7038               526.4409
 Red. masses --      2.0786                 3.1356                 2.7083
 Frc consts  --      0.3056                 0.4932                 0.4422
 IR Inten    --     18.8610                 5.8366                10.5622

                     22                     23                     24
                      A                      A                      A
 Frequencies --    569.9832               580.9991               611.3766
 Red. masses --      3.2040                 2.5111                 5.8096
 Frc consts  --      0.6133                 0.4994                 1.2794
 IR Inten    --      2.7766                13.0661                 4.6194

                     25                     26                     27
                      A                      A                      A
 Frequencies --    630.4489               732.1854               742.1787
 Red. masses --      6.9285                 4.0444                 8.4694
 Frc consts  --      1.6225                 1.2774                 2.7486
 IR Inten    --     20.4271                15.5749                 9.4984

                     28                     29                     30
                      A                      A                      A
 Frequencies --    745.7928               776.0444               800.9327
 Red. masses --      5.8915                 6.3122                 3.4204
 Frc consts  --      1.9307                 2.2398                 1.2928
 IR Inten    --     33.2319                32.8118                31.2318

                     31                     32                     33
                      A                      A                      A
 Frequencies --    807.9693               812.6768               928.6941
 Red. masses --      2.8236                 4.8201                 1.3609
 Frc consts  --      1.0860                 1.8756                 0.6915
 IR Inten    --     60.5498                45.4560                 0.0380

                     34                     35                     36
                      A                      A                      A
 Frequencies --    995.0538              1005.9996              1034.7232
 Red. masses --      1.2990                 3.5709                 7.3374
 Frc consts  --      0.7578                 2.1293                 4.6285
 IR Inten    --      0.7898                13.9289                 7.5028

                     37                     38                     39
                      A                      A                      A
 Frequencies --   1058.8225              1077.5054              1137.2711
 Red. masses --      1.6680                 4.6038                 1.8865
 Frc consts  --      1.1018                 3.1492                 1.4376
 IR Inten    --     16.6897                68.2627                45.0400

                     40                     41                     42
                      A                      A                      A
 Frequencies --   1179.4937              1184.5415              1206.0543
 Red. masses --      2.0845                 1.8057                 5.1409
 Frc consts  --      1.7086                 1.4928                 4.4058
 IR Inten    --     60.9292                 7.2602               282.0913

                     43                     44                     45
                      A                      A                      A
 Frequencies --   1222.2437              1315.2258              1323.3584
 Red. masses --      1.5275                 5.3643                 4.7645
 Frc consts  --      1.3445                 5.4672                 4.9161
 IR Inten    --     14.6807                 7.5071                11.5408

                     46                     47                     48
                      A                      A                      A
 Frequencies --   1356.3399              1443.9627              1460.1962
 Red. masses --      5.6700                 3.3535                 4.1601
 Frc consts  --      6.1457                 4.1197                 5.2261
 IR Inten    --     69.6235               151.2703               614.1507

                     49                     50                     51
                      A                      A                      A
 Frequencies --   1499.5536              1525.1212              1557.1705
 Red. masses --      2.8859                 2.7870                 6.4003
 Frc consts  --      3.8234                 3.8194                 9.1437
 IR Inten    --     35.6812               134.4540               317.4297

                     52                     53                     54
                      A                      A                      A
 Frequencies --   1579.8509              1610.6992              1630.9660
 Red. masses --      7.0054                 5.7585                 1.3366
 Frc consts  --     10.3019                 8.8022                 2.0948
 IR Inten    --    582.9534                26.2036               637.2508

                     55                     56                     57
                      A                      A                      A
 Frequencies --   1637.8830              1654.8910              3229.0067
 Red. masses --      5.2414                 1.6641                 1.0873
 Frc consts  --      8.2845                 2.6851                 6.6793
 IR Inten    --     30.4923               335.5026                 2.3184

                     58                     59                     60
                      A                      A                      A
 Frequencies --   3237.6698              3248.3073              3577.3424
 Red. masses --      1.0917                 1.0971                 1.0468
 Frc consts  --      6.7422                 6.8204                 7.8932
 IR Inten    --      7.1420                15.2147               227.5658

                     61                     62                     63
                      A                      A                      A
 Frequencies --   3582.1693              3689.4952              3697.9247
 Red. masses --      1.0469                 1.1038                 1.1054
 Frc consts  --      7.9148                 8.8524                 8.9061
 IR Inten    --    192.6435               107.1886               142.2714

 - Thermochemistry -
 -------------------
 Temperature   298.150 Kelvin.  Pressure   1.00000 Atm.
 Atom     1 has atomic number  7 and mass  14.00307

 Molecular mass:   255.00785 amu.
 Principal axes and moments of inertia in atomic units:
                           1         2         3
     Eigenvalues --  1891.248167142.771477936.26740
           X            0.99985  -0.01702  -0.00127
           Y            0.01700   0.99980  -0.01061
           Z            0.00145   0.01058   0.99994
 This molecule is an asymmetric top.
 Rotational symmetry number  1.
 Warning -- assumption of classical behavior for rotation
           may cause significant error
 Rotational temperatures (Kelvin)      0.04580     0.01213     0.01091
 Rotational constants (GHZ):           0.95426     0.25267     0.22740
 Zero-point vibrational energy     418733.1 (Joules/Mol)
                                  100.07962 (Kcal/Mol)
 Warning -- explicit consideration of  24 degrees of freedom as
           vibrations may cause significant error
 Vibrational temperatures:     55.57    75.47    82.35   190.19   191.71
          (Kelvin)            296.99   304.39   315.58   337.18   365.93
                              437.26   477.69   504.39   590.03   594.72
                              662.42   680.48   694.79   718.66   743.42
                              757.43   820.08   835.93   879.63   907.08
                             1053.45  1067.83  1073.03  1116.55  1152.36
                             1162.49  1169.26  1336.18  1431.66  1447.41
                             1488.74  1523.41  1550.29  1636.28  1697.03
                             1704.29  1735.24  1758.54  1892.32  1904.02
                             1951.47  2077.54  2100.90  2157.52  2194.31
                             2240.42  2273.05  2317.44  2346.60  2356.55
                             2381.02  4645.82  4658.28  4673.59  5147.00
                             5153.94  5308.36  5320.49

 Zero-point correction=                           0.159487 (Hartree/Particle)
 Thermal correction to Energy=                    0.173545
 Thermal correction to Enthalpy=                  0.174489
 Thermal correction to Gibbs Free Energy=         0.117637
 Sum of electronic and zero-point Energies=          -1541.171360
 Sum of electronic and thermal Energies=             -1541.157302
 Sum of electronic and thermal Enthalpies=           -1541.156357
 Sum of electronic and thermal Free Energies=        -1541.213210

                     E (Thermal)             CV                S
                      KCal/Mol        Cal/Mol-Kelvin    Cal/Mol-Kelvin
 Total                  108.901             53.368            119.655
 Electronic               0.000              0.000              0.000
 Translational            0.889              2.981             42.508
 Rotational               0.889              2.981             33.038
 Vibrational            107.124             47.406             44.109
 Vibration     1          0.594              1.981              5.329
 Vibration     2          0.596              1.977              4.723
 Vibration     3          0.596              1.975              4.550
 Vibration     4          0.612              1.921              2.914
 Vibration     5          0.613              1.920              2.899
 Vibration     6          0.641              1.831              2.075
 Vibration     7          0.643              1.823              2.030
 Vibration     8          0.647              1.812              1.965
 Vibration     9          0.654              1.788              1.845
 Vibration    10          0.665              1.755              1.700
 Vibration    11          0.695              1.666              1.395
 Vibration    12          0.714              1.612              1.250
 Vibration    13          0.727              1.574              1.164
 Vibration    14          0.774              1.448              0.926
 Vibration    15          0.777              1.441              0.915
 Vibration    16          0.818              1.338              0.765
 Vibration    17          0.830              1.310              0.729
 Vibration    18          0.839              1.288              0.702
 Vibration    19          0.855              1.251              0.659
 Vibration    20          0.872              1.213              0.618
 Vibration    21          0.881              1.191              0.595
 Vibration    22          0.926              1.096              0.504
 Vibration    23          0.938              1.072              0.484
 Vibration    24          0.971              1.008              0.430

 Optimization completed.
    -- Stationary point found.
 Normal termination of Gaussian 16 at Wed Mar  2 04:50:16 2022.

 ------------------------------------------
 #p b3lyp/6-31G(d) geom=allcheck guess=read
 ------------------------------------------

 Structure from the checkpoint file:  "118.n.pdb.xyz.mst.wat.chk"
 -------------
 118.n.pdb.xyz
 -------------
 Charge =  0 Multiplicity = 1

 SCF Done:  E(RB3LYP) =  -1541.30225960     A.U. after   13 cycles
 Normal termination of Gaussian 16 at Wed Mar  2 04:52:10 2022.
 Gaussian 16:  ES64L-G16RevA.03 25-Dec-2016

 ----------------------------------------------------------------------
 #p b3lyp/6-31G(d) scrf=(iefpcm,read,solvent=water) geom=allcheck guess
 =read
 ----------------------------------------------------------------------

 Structure from the checkpoint file:  "118.n.pdb.xyz.mst.wat.chk"
 -------------
 118.n.pdb.xyz
 -------------
 Charge =  0 Multiplicity = 1

                         Standard orientation:
 ---------------------------------------------------------------------
 Center     Atomic      Atomic             Coordinates (Angstroms)
 Number     Number       Type             X           Y           Z
 ---------------------------------------------------------------------
      1          7           0        4.986491   -0.356780   -0.503626
      2          6           0        3.679125   -0.051732   -0.292847
      3          7           0        3.106019   -0.523165    0.829359
      4          6           0        1.802667   -0.272886    0.975721
      5          7           0        1.193418   -0.704728    2.092573
      6          6           0        1.098178    0.443239   -0.054131
      7          7           0        1.761039    0.908997   -1.098678
      8          7           0        3.068488    0.681142   -1.254228
      9          6           0       -0.349245    0.782983    0.025911
     10          6           0       -1.357505   -0.182756   -0.136859
     11         17           0       -0.915485   -1.843454   -0.469833
     12          6           0       -2.706269    0.186594   -0.067530
     13         17           0       -3.980383   -0.998257   -0.267600
     14          6           0       -3.064335    1.516100    0.151555
     15          6           0       -2.070761    2.480343    0.297087
     16          6           0       -0.729040    2.114454    0.235498
     17          1           0        5.527509   -0.652503    0.298416
     18          1           0        5.478622    0.190442   -1.198648
     19          1           0        0.253477   -0.414732    2.325866
     20          1           0        1.758711   -1.107970    2.828644
     21          1           0       -4.113549    1.782060    0.201695
     22          1           0       -2.347285    3.514779    0.462292
     23          1           0        0.047210    2.860697    0.353870
 ---------------------------------------------------------------------

 SCF Done:  E(RB3LYP) =  -1541.32935276     A.U. after   12 cycles

 The electronic state is 1-A.
 Alpha  occ. eigenvalues -- -101.56374-101.56279 -14.37755 -14.35895 -14.34718
 Alpha  occ. eigenvalues --  -14.34474 -14.33400 -10.29125 -10.28673 -10.27306
 Alpha  occ. eigenvalues --  -10.27071 -10.23436 -10.22742 -10.21520 -10.20964
 Alpha  occ. eigenvalues --  -10.20847  -9.47976  -9.47894  -7.24386  -7.24303
 Alpha  occ. eigenvalues --   -7.23411  -7.23355  -7.23326  -7.23274  -1.03543
 Alpha  occ. eigenvalues --   -0.95978  -0.93904  -0.92168  -0.87331  -0.86717
 Alpha  occ. eigenvalues --   -0.84978  -0.81328  -0.75460  -0.73975  -0.68319
 Alpha  occ. eigenvalues --   -0.66257  -0.61705  -0.61260  -0.58090  -0.55213
 Alpha  occ. eigenvalues --   -0.53059  -0.50055  -0.49905  -0.48559  -0.48397
 Alpha  occ. eigenvalues --   -0.46161  -0.45299  -0.45215  -0.44456  -0.42293
 Alpha  occ. eigenvalues --   -0.39204  -0.38450  -0.37443  -0.35659  -0.35048
 Alpha  occ. eigenvalues --   -0.34304  -0.33943  -0.32739  -0.31711  -0.31426
 Alpha  occ. eigenvalues --   -0.26853  -0.25786  -0.25525  -0.23526  -0.22686
 Alpha virt. eigenvalues --   -0.04741  -0.02963  -0.02399  -0.00314   0.00600
 Alpha virt. eigenvalues --    0.05763   0.10696   0.11129   0.11780   0.12606
 Alpha virt. eigenvalues --    0.13834   0.15134   0.16061   0.16456   0.18458

 Mulliken charges:
               1
     1  N   -0.780562
     2  C    0.654147
     3  N   -0.590840
     4  C    0.548089
     5  N   -0.797905
     6  C    0.161212
     7  N   -0.349752
     8  N   -0.419635
     9  C    0.085716
    10  C   -0.113014
    11  Cl   0.013016
    12  C   -0.081906
    13  Cl  -0.004219
    14  C   -0.123081
    15  C   -0.139199
    16  C   -0.141258
    17  H    0.382036
    18  H    0.381190
    19  H    0.392675
    20  H    0.393468
    21  H    0.184392
    22  H    0.174921
    23  H    0.170511
 Sum of Mulliken charges =  -0.00000

 Dipole moment (field-independent basis, Debye):
    X=              0.8104    Y=              1.7410    Z=              6.6863  Tot=              6.9566
 Quadrupole moment (field-independent basis, Debye-Ang):
   XX=            -83.7620   YY=           -100.3849   ZZ=           -101.0736
   XY=             -9.6216   XZ=              6.0591   YZ=              1.7711

 Normal termination of Gaussian 16 at Wed Mar  2 04:54:18 2022.
