 Gaussian 16, Revision A.03,

 ----------------------------------------------------------------------
 #p b3lyp/6-31G(d) opt=(MaxStep=10,MaxCycles=1000) freq scf=(MaxCycle=2
 000,NoVarAcc,NoIncFock) scrf=(iefpcm,read,solvent=water)
 ----------------------------------------------------------------------

 -------------
 119.n.pdb.xyz
 -------------
 Symbolic Z-matrix:
 Charge =  0 Multiplicity = 1

 SCF Done:  E(RB3LYP) =  -1419.28043898     A.U. after   10 cycles
 SCF Done:  E(RB3LYP) =  -1419.28099586     A.U. after    9 cycles
 SCF Done:  E(RB3LYP) =  -1419.28102449     A.U. after    8 cycles
 SCF Done:  E(RB3LYP) =  -1419.28102891     A.U. after    7 cycles
 SCF Done:  E(RB3LYP) =  -1419.28099684     A.U. after    7 cycles
 Optimization completed.
    -- Stationary point found.
 Normal termination of Gaussian 16 at Wed Mar  2 04:14:59 2022.

 --------------------------------------------------------------------
 #P Geom=AllCheck Guess=TCheck SCRF=Check GenChk RB3LYP/6-31G(d) Freq
 --------------------------------------------------------------------

 Structure from the checkpoint file:  "119.n.pdb.xyz.mst.wat.chk"
 -------------
 119.n.pdb.xyz
 -------------
 Charge =  0 Multiplicity = 1

 SCF Done:  E(RB3LYP) =  -1419.28099684     A.U. after    1 cycles

  Exact polarizability:  56.593   0.003  56.528   0.002  -0.001  31.139
 Approx polarizability:  67.060   0.000  66.977   0.005  -0.000  37.559

                      1                      2                      3
                      A                      A                      A
 Frequencies --    259.7039               260.4043               365.6209
 Red. masses --     25.7931                25.8681                21.0078
 Frc consts  --      1.0250                 1.0335                 1.6546
 IR Inten    --      0.1488                 0.1606                 1.1438

                      4                      5                      6
                      A                      A                      A
 Frequencies --    662.6295               714.4415               715.9179
 Red. masses --      8.0332                 9.7998                 9.7866
 Frc consts  --      2.0782                 2.9471                 2.9553
 IR Inten    --     13.6552               291.3976               290.3151

                      7                      8                      9
                      A                      A                      A
 Frequencies --   1258.2067              1260.3280              3237.2253
 Red. masses --      1.0720                 1.0705                 1.0890
 Frc consts  --      0.9999                 1.0018                 6.7238
 IR Inten    --     39.2850                38.8005                 1.6668

 - Thermochemistry -
 -------------------
 Temperature   298.150 Kelvin.  Pressure   1.00000 Atm.
 Atom     1 has atomic number 17 and mass  34.96885

 Molecular mass:   117.91438 amu.
 Principal axes and moments of inertia in atomic units:
                           1         2         3
     Eigenvalues --   562.36168 563.162021084.52752
           X            1.00000  -0.00000   0.00001
           Y            0.00000   1.00000  -0.00000
           Z           -0.00001   0.00000   1.00000
 This molecule is an asymmetric top.
 Rotational symmetry number  1.
 Warning -- assumption of classical behavior for rotation
           may cause significant error
 Rotational temperatures (Kelvin)      0.15402     0.15380     0.07986
 Rotational constants (GHZ):           3.20922     3.20466     1.66408
 Zero-point vibrational energy      52243.8 (Joules/Mol)
                                   12.48656 (Kcal/Mol)
 Warning -- explicit consideration of   3 degrees of freedom as
           vibrations may cause significant error
 Vibrational temperatures:    373.66   374.66   526.05   953.38  1027.92
          (Kelvin)           1030.05  1810.28  1813.33  4657.65

 Zero-point correction=                           0.019899 (Hartree/Particle)
 Thermal correction to Energy=                    0.024389
 Thermal correction to Enthalpy=                  0.025333
 Thermal correction to Gibbs Free Energy=        -0.009331
 Sum of electronic and zero-point Energies=          -1419.261098
 Sum of electronic and thermal Energies=             -1419.256608
 Sum of electronic and thermal Enthalpies=           -1419.255664
 Sum of electronic and thermal Free Energies=        -1419.290328

                     E (Thermal)             CV                S
                      KCal/Mol        Cal/Mol-Kelvin    Cal/Mol-Kelvin
 Total                   15.304             13.838             72.957
 Electronic               0.000              0.000              0.000
 Translational            0.889              2.981             40.209
 Rotational               0.889              2.981             27.332
 Vibrational             13.527              7.876              5.416
 Vibration     1          0.668              1.746              1.664
 Vibration     2          0.668              1.745              1.659
 Vibration     3          0.739              1.543              1.098

 Optimization completed.
    -- Stationary point found.
 Normal termination of Gaussian 16 at Wed Mar  2 04:15:24 2022.

 ------------------------------------------
 #p b3lyp/6-31G(d) geom=allcheck guess=read
 ------------------------------------------

 Structure from the checkpoint file:  "119.n.pdb.xyz.mst.wat.chk"
 -------------
 119.n.pdb.xyz
 -------------
 Charge =  0 Multiplicity = 1

 SCF Done:  E(RB3LYP) =  -1419.27907119     A.U. after    9 cycles

 1\1\GINC-PIRINEUS3\SP\RB3LYP\6-31G(d)\C1H1Cl3\UBATOR01\02-Mar-2022\0\\
 #p b3lyp/6-31G(d) geom=allcheck guess=read\\119.n.pdb.xyz\\0,1\Cl,0,-0
 .6511748565,1.5576130263,-0.4875877117\C,0,-0.0036704752,0.0023168989,
 0.1130707651\Cl,0,-1.00885801,-1.3679898447,-0.4422099669\Cl,0,1.70123
 54513,-0.2147326203,-0.3792603723\H,0,-0.0375321097,0.0227925399,1.195
 9872858\\Version=ES64L-G16RevA.03\State=1-A\HF=-1419.2790712\RMSD=5.49
 5e-09\Dipole=-0.0156881,0.0091709,0.5070566\Quadrupole=-0.6320757,-0.6
 323697,1.2644453,-0.0011972,-0.0595855,0.0360577\PG=C01 [X(C1H1Cl3)]\\

 Normal termination of Gaussian 16 at Wed Mar  2 04:15:27 2022.
 Gaussian 16:  ES64L-G16RevA.03 25-Dec-2016

 ----------------------------------------------------------------------
 #p b3lyp/6-31G(d) scrf=(iefpcm,read,solvent=water) geom=allcheck guess
 =read
 ----------------------------------------------------------------------

 Structure from the checkpoint file:  "119.n.pdb.xyz.mst.wat.chk"
 -------------
 119.n.pdb.xyz
 -------------
 Charge =  0 Multiplicity = 1

                         Standard orientation:
 ---------------------------------------------------------------------
 Center     Atomic      Atomic             Coordinates (Angstroms)
 Number     Number       Type             X           Y           Z
 ---------------------------------------------------------------------
      1         17           0       -1.692238   -0.182634   -0.085029
      2          6           0       -0.000079   -0.000089    0.464764
      3         17           0        1.004412   -1.373107   -0.085052
      4         17           0        0.687828    1.555774   -0.085036
      5          1           0        0.000456   -0.000032    1.548403
 ---------------------------------------------------------------------

 SCF Done:  E(RB3LYP) =  -1419.28089667     A.U. after    9 cycles

 The electronic state is 1-A.
 Alpha  occ. eigenvalues -- -101.57328-101.57328-101.57327 -10.37117  -9.49025
 Alpha  occ. eigenvalues --   -9.49024  -9.49022  -7.25483  -7.25481  -7.25479
 Alpha  occ. eigenvalues --   -7.24399  -7.24398  -7.24396  -7.24380  -7.24380
 Alpha  occ. eigenvalues --   -7.24378  -0.94658  -0.84601  -0.84599  -0.65672
 Alpha  occ. eigenvalues --   -0.51065  -0.47846  -0.47844  -0.35886  -0.35881
 Alpha  occ. eigenvalues --   -0.33192  -0.33189  -0.32902  -0.31501
 Alpha virt. eigenvalues --   -0.04668   0.00662   0.00672   0.10219   0.28859
 Alpha virt. eigenvalues --    0.35807   0.35807   0.39827   0.39841   0.40620
 Alpha virt. eigenvalues --    0.42530   0.44917   0.44921   0.48701   0.48712

 Mulliken charges:
               1
     1  Cl   0.025713
     2  C   -0.392474
     3  Cl   0.026008
     4  Cl   0.026022
     5  H    0.314731
 Sum of Mulliken charges =  -0.00000

 Dipole moment (field-independent basis, Debye):
    X=              0.0021    Y=              0.0001    Z=              1.6252  Tot=              1.6252
 Quadrupole moment (field-independent basis, Debye-Ang):
   XX=            -44.5840   YY=            -44.5844   ZZ=            -41.5165
   XY=             -0.0003   XZ=              0.0009   YZ=             -0.0002

 1\1\GINC-PIRINEUS3\SP\RB3LYP\6-31G(d)\C1H1Cl3\UBATOR01\02-Mar-2022\0\\
 #p b3lyp/6-31G(d) scrf=(iefpcm,read,solvent=water) geom=allcheck guess
 =read\\119.n.pdb.xyz\\0,1\Cl,0,-0.6511748565,1.5576130263,-0.487587711
 7\C,0,-0.0036704752,0.0023168989,0.1130707651\Cl,0,-1.00885801,-1.3679
 898447,-0.4422099669\Cl,0,1.7012354513,-0.2147326203,-0.3792603723\H,0
 ,-0.0375321097,0.0227925399,1.1959872858\\Version=ES64L-G16RevA.03\Sta
 te=1-A\HF=-1419.2808967\RMSD=3.069e-09\Dipole=-0.0198344,0.011609,0.63
 89984\Quadrupole=-0.7582435,-0.7591702,1.5174137,-0.0012845,-0.0715862

 Normal termination of Gaussian 16 at Wed Mar  2 04:15:33 2022.
