 Gaussian 16, Revision A.03,

 ----------------------------------------------------------------------
 #p b3lyp/6-31G(d) opt=(MaxStep=10,MaxCycles=1000) freq scf=(MaxCycle=2
 000,NoVarAcc,NoIncFock) scrf=(iefpcm,read,solvent=water)
 ----------------------------------------------------------------------

 ------------
 12.n.pdb.xyz
 ------------
 Symbolic Z-matrix:
 Charge =  0 Multiplicity = 1

 SCF Done:  E(RB3LYP) =  -1167.53068718     A.U. after   13 cycles
 SCF Done:  E(RB3LYP) =  -1167.53402863     A.U. after   10 cycles
 SCF Done:  E(RB3LYP) =  -1167.53609622     A.U. after   11 cycles
 SCF Done:  E(RB3LYP) =  -1167.53668249     A.U. after   10 cycles
 SCF Done:  E(RB3LYP) =  -1167.53630546     A.U. after   11 cycles
 SCF Done:  E(RB3LYP) =  -1167.53735319     A.U. after   10 cycles
 SCF Done:  E(RB3LYP) =  -1167.53743890     A.U. after    9 cycles
 SCF Done:  E(RB3LYP) =  -1167.53744361     A.U. after    9 cycles
 SCF Done:  E(RB3LYP) =  -1167.53743852     A.U. after    8 cycles
 SCF Done:  E(RB3LYP) =  -1167.53744823     A.U. after    7 cycles
 SCF Done:  E(RB3LYP) =  -1167.53745177     A.U. after    7 cycles
 SCF Done:  E(RB3LYP) =  -1167.53745126     A.U. after    6 cycles
 SCF Done:  E(RB3LYP) =  -1167.53745119     A.U. after    6 cycles
 Optimization completed.
    -- Stationary point found.
 Normal termination of Gaussian 16 at Tue Mar  1 16:03:01 2022.

 --------------------------------------------------------------------
 #P Geom=AllCheck Guess=TCheck SCRF=Check GenChk RB3LYP/6-31G(d) Freq
 --------------------------------------------------------------------

 Structure from the checkpoint file:  "12.n.pdb.xyz.mst.wat.chk"
 ------------
 12.n.pdb.xyz
 ------------
 Charge =  0 Multiplicity = 1

 SCF Done:  E(RB3LYP) =  -1167.53745119     A.U. after    1 cycles

  Exact polarizability: 326.218   4.848 400.182 -16.484  -2.545 156.264
 Approx polarizability: 362.785   3.342 426.228 -20.227  -3.442 179.834

                      1                      2                      3
                      A                      A                      A
 Frequencies --     26.8253                36.3510                43.6720
 Red. masses --      3.9238                 5.2039                 2.6475
 Frc consts  --      0.0017                 0.0041                 0.0030
 IR Inten    --      0.0960                 0.2870                 0.7706

                      4                      5                      6
                      A                      A                      A
 Frequencies --     61.8951               105.0769               114.7109
 Red. masses --      5.7861                 3.4494                 2.3533
 Frc consts  --      0.0131                 0.0224                 0.0182
 IR Inten    --      1.2027                 0.7420                 0.5614

                      7                      8                      9
                      A                      A                      A
 Frequencies --    137.8270               169.6204               188.7525
 Red. masses --      3.5618                 4.2424                 6.9034
 Frc consts  --      0.0399                 0.0719                 0.1449
 IR Inten    --      0.2919                 0.3695                 0.5199

                     10                     11                     12
                      A                      A                      A
 Frequencies --    223.7481               244.0061               252.6780
 Red. masses --      2.6106                 4.3667                 1.1544
 Frc consts  --      0.0770                 0.1532                 0.0434
 IR Inten    --      0.3740                 2.6220                 1.6540

                     13                     14                     15
                      A                      A                      A
 Frequencies --    266.2433               281.0411               311.4145
 Red. masses --      1.3003                 3.2011                 3.6782
 Frc consts  --      0.0543                 0.1490                 0.2102
 IR Inten    --      0.2332                 3.1693                 1.5134

                     16                     17                     18
                      A                      A                      A
 Frequencies --    341.4166               357.7681               379.9828
 Red. masses --      4.4170                 2.5802                 3.7649
 Frc consts  --      0.3034                 0.1946                 0.3203
 IR Inten    --      1.0118                16.0305                 3.3873

                     19                     20                     21
                      A                      A                      A
 Frequencies --    380.8395               420.7776               437.2758
 Red. masses --      3.2172                 4.5886                 3.3954
 Frc consts  --      0.2749                 0.4787                 0.3825
 IR Inten    --      2.0016                 2.1862                 1.8931

                     22                     23                     24
                      A                      A                      A
 Frequencies --    456.9378               458.0954               462.4720
 Red. masses --      3.6776                 3.6396                 3.2812
 Frc consts  --      0.4524                 0.4500                 0.4135
 IR Inten    --      2.1505                 1.5659                 2.6067

                     25                     26                     27
                      A                      A                      A
 Frequencies --    500.6484               509.7837               543.6308
 Red. masses --      3.5011                 5.3983                 4.0627
 Frc consts  --      0.5170                 0.8266                 0.7074
 IR Inten    --     19.0974                 3.0359                 0.2125

                     28                     29                     30
                      A                      A                      A
 Frequencies --    561.4466               617.8840               631.1026
 Red. masses --      4.0330                 5.6255                 5.3495
 Frc consts  --      0.7490                 1.2654                 1.2553
 IR Inten    --      0.1934                 2.7355                18.6121

                     31                     32                     33
                      A                      A                      A
 Frequencies --    682.9425               709.2420               731.7012
 Red. masses --      6.0885                 5.8500                 4.3621
 Frc consts  --      1.6731                 1.7338                 1.3760
 IR Inten    --      2.8969                 3.3207                 6.4480

                     34                     35                     36
                      A                      A                      A
 Frequencies --    734.3899               764.5902               764.8495
 Red. masses --      4.3535                 1.3064                 1.2529
 Frc consts  --      1.3834                 0.4500                 0.4318
 IR Inten    --      2.4559               151.7818                12.3105

                     37                     38                     39
                      A                      A                      A
 Frequencies --    768.7414               777.8962               854.0147
 Red. masses --      1.1295                 5.1813                 2.0389
 Frc consts  --      0.3933                 1.8473                 0.8761
 IR Inten    --     19.5213                 5.7697                 6.6657

                     40                     41                     42
                      A                      A                      A
 Frequencies --    865.0726               868.0320               870.1306
 Red. masses --      2.5741                 1.4876                 1.4023
 Frc consts  --      1.1350                 0.6604                 0.6256
 IR Inten    --     53.1295                 5.1803                 9.5716

                     43                     44                     45
                      A                      A                      A
 Frequencies --    925.1019               943.7804               944.4918
 Red. masses --      2.1019                 1.3407                 1.3539
 Frc consts  --      1.0598                 0.7036                 0.7116
 IR Inten    --      3.2935                 8.3526                 2.1530

                     46                     47                     48
                      A                      A                      A
 Frequencies --    982.3750               982.9082              1015.0140
 Red. masses --      1.2499                 1.2476                 3.2884
 Frc consts  --      0.7107                 0.7102                 1.9961
 IR Inten    --      0.1350                 0.1068                10.9959

                     49                     50                     51
                      A                      A                      A
 Frequencies --   1054.4952              1067.0792              1067.7650
 Red. masses --      3.1358                 4.2212                 6.2828
 Frc consts  --      2.0544                 2.8319                 4.2204
 IR Inten    --     30.6003                 2.2429                53.3937

                     52                     53                     54
                      A                      A                      A
 Frequencies --   1069.5673              1077.2738              1080.6776
 Red. masses --      1.7739                 3.4084                 2.5181
 Frc consts  --      1.1956                 2.3305                 1.7327
 IR Inten    --     22.2058                 6.7556                28.1573

                     55                     56                     57
                      A                      A                      A
 Frequencies --   1085.9227              1127.6608              1129.0970
 Red. masses --      2.0650                 2.4238                 1.6221
 Frc consts  --      1.4347                 1.8159                 1.2184
 IR Inten    --     25.6820                59.5915                 4.5427

                     58                     59                     60
                      A                      A                      A
 Frequencies --   1131.1021              1160.5738              1169.3787
 Red. masses --      1.4436                 1.6071                 1.3939
 Frc consts  --      1.0882                 1.2754                 1.1231
 IR Inten    --      8.6850                37.9521                 3.3385

                     61                     62                     63
                      A                      A                      A
 Frequencies --   1191.7321              1198.3654              1203.3089
 Red. masses --      1.5589                 1.1851                 1.1883
 Frc consts  --      1.3044                 1.0027                 1.0138
 IR Inten    --     32.7702                18.1479                 0.5284

                     64                     65                     66
                      A                      A                      A
 Frequencies --   1212.4562              1257.0093              1277.6968
 Red. masses --      1.7578                 1.7921                 2.0364
 Frc consts  --      1.5225                 1.6683                 1.9587
 IR Inten    --     72.0399               149.9281               119.2900

                     67                     68                     69
                      A                      A                      A
 Frequencies --   1284.2037              1304.6843              1316.6346
 Red. masses --      1.9619                 2.2286                 1.5347
 Frc consts  --      1.9063                 2.2350                 1.5675
 IR Inten    --     71.8913                 5.5925                29.7617

                     70                     71                     72
                      A                      A                      A
 Frequencies --   1326.4584              1335.9682              1337.1661
 Red. masses --      1.5748                 1.8927                 3.2081
 Frc consts  --      1.6325                 1.9903                 3.3796
 IR Inten    --      5.0749                86.6902                14.4971

                     73                     74                     75
                      A                      A                      A
 Frequencies --   1349.0703              1354.3478              1407.2671
 Red. masses --      1.1384                 9.2787                 1.7729
 Frc consts  --      1.2207                10.0276                 2.0687
 IR Inten    --     41.8768                 3.9254               249.3391

                     76                     77                     78
                      A                      A                      A
 Frequencies --   1414.6289              1432.6126              1464.1245
 Red. masses --      1.3186                 1.4286                 1.1620
 Frc consts  --      1.5547                 1.7275                 1.4676
 IR Inten    --      3.9770                87.5289                 1.6442

                     79                     80                     81
                      A                      A                      A
 Frequencies --   1483.9875              1488.5343              1491.6963
 Red. masses --      2.3054                 2.1892                 1.2011
 Frc consts  --      2.9913                 2.8579                 1.5747
 IR Inten    --     98.3666                25.2253                 0.7561

                     82                     83                     84
                      A                      A                      A
 Frequencies --   1508.3236              1510.7876              1511.2798
 Red. masses --      1.0588                 2.2759                 1.0906
 Frc consts  --      1.4192                 3.0606                 1.4676
 IR Inten    --     32.8026               407.2325                 7.1361

                     85                     86                     87
                      A                      A                      A
 Frequencies --   1517.8330              1522.6391              1529.4734
 Red. masses --      1.0671                 1.0492                 1.3598
 Frc consts  --      1.4484                 1.4332                 1.8742
 IR Inten    --     18.8481                13.5905                30.3944

                     88                     89                     90
                      A                      A                      A
 Frequencies --   1533.2180              1545.6440              1547.0475
 Red. masses --      1.0641                 1.2072                 1.4554
 Frc consts  --      1.4738                 1.6992                 2.0523
 IR Inten    --     12.3464                 4.4842                16.5120

                     91                     92                     93
                      A                      A                      A
 Frequencies --   1619.2585              1631.0470              1633.6772
 Red. masses --      5.2758                 5.5149                 5.9320
 Frc consts  --      8.1503                 8.6441                 9.3279
 IR Inten    --      6.6856                61.1927                 0.9328

                     94                     95                     96
                      A                      A                      A
 Frequencies --   1654.0327              2929.2226              2955.1880
 Red. masses --      6.0979                 1.0720                 1.0604
 Frc consts  --      9.8293                 5.4194                 5.4564
 IR Inten    --     65.7223               113.7484                77.1069

                     97                     98                     99
                      A                      A                      A
 Frequencies --   2963.8566              3069.8663              3083.5891
 Red. masses --      1.0616                 1.0867                 1.0600
 Frc consts  --      5.4943                 6.0340                 5.9382
 IR Inten    --    241.7715                39.7095                17.6771

                    100                    101                    102
                      A                      A                      A
 Frequencies --   3091.2549              3094.4724              3103.2314
 Red. masses --      1.0711                 1.0606                 1.0707
 Frc consts  --      6.0302                 5.9838                 6.0749
 IR Inten    --     60.8949                56.5253                75.5393

                    103                    104                    105
                      A                      A                      A
 Frequencies --   3120.6180              3136.7894              3138.4655
 Red. masses --      1.1027                 1.1048                 1.1059
 Frc consts  --      6.3268                 6.4048                 6.4179
 IR Inten    --      2.1235                38.8630                98.3638

                    106                    107                    108
                      A                      A                      A
 Frequencies --   3149.0577              3199.3946              3206.2500
 Red. masses --      1.1028                 1.0887                 1.0869
 Frc consts  --      6.4431                 6.5656                 6.5832
 IR Inten    --     61.0627                 8.9101                 2.4437

                    109                    110                    111
                      A                      A                      A
 Frequencies --   3211.8101              3213.8005              3229.5470
 Red. masses --      1.0889                 1.0902                 1.0961
 Frc consts  --      6.6183                 6.6341                 6.7354
 IR Inten    --     16.7285                23.1157                58.7570

                    112                    113                    114
                      A                      A                      A
 Frequencies --   3230.1653              3267.7648              3269.7727
 Red. masses --      1.0964                 1.0900                 1.0898
 Frc consts  --      6.7400                 6.8577                 6.8647
 IR Inten    --     34.5570                11.1329                17.7695

 - Thermochemistry -
 -------------------
 Temperature   298.150 Kelvin.  Pressure   1.00000 Atm.
 Atom     1 has atomic number  6 and mass  12.00000

 Molecular mass:   284.13472 amu.
 Principal axes and moments of inertia in atomic units:
                           1         2         3
     Eigenvalues --  4420.506768562.57845**********
           X            0.99999   0.00382  -0.00366
           Y           -0.00381   0.99999   0.00341
           Z            0.00368  -0.00339   0.99999
 This molecule is an asymmetric top.
 Rotational symmetry number  1.
 Warning -- assumption of classical behavior for rotation
           may cause significant error
 Rotational temperatures (Kelvin)      0.01959     0.01012     0.00699
 Rotational constants (GHZ):           0.40827     0.21077     0.14564
 Zero-point vibrational energy     891158.8 (Joules/Mol)
                                  212.99207 (Kcal/Mol)
 Warning -- explicit consideration of  29 degrees of freedom as
           vibrations may cause significant error
 Vibrational temperatures:     38.60    52.30    62.83    89.05   151.18
          (Kelvin)            165.04   198.30   244.05   271.57   321.92
                              351.07   363.55   383.06   404.36   448.06
                              491.22   514.75   546.71   547.94   605.41
                              629.14   657.43   659.10   665.39   720.32
                              733.47   782.16   807.80   889.00   908.02
                              982.60  1020.44  1052.75  1056.62  1100.07
                             1100.45  1106.05  1119.22  1228.74  1244.65
                             1248.90  1251.92  1331.02  1357.89  1358.91
                             1413.42  1414.19  1460.38  1517.18  1535.29
                             1536.28  1538.87  1549.96  1554.85  1562.40
                             1622.45  1624.52  1627.40  1669.81  1682.48
                             1714.64  1724.18  1731.29  1744.45  1808.56
                             1838.32  1847.68  1877.15  1894.34  1908.48
                             1922.16  1923.88  1941.01  1948.60  2024.74
                             2035.34  2061.21  2106.55  2135.13  2141.67
                             2146.22  2170.14  2173.69  2174.39  2183.82
                             2190.74  2200.57  2205.96  2223.84  2225.86
                             2329.75  2346.71  2350.50  2379.78  4214.50
                             4251.86  4264.33  4416.85  4436.60  4447.63
                             4452.26  4464.86  4489.87  4513.14  4515.55
                             4530.79  4603.22  4613.08  4621.08  4623.94
                             4646.60  4647.49  4701.58  4704.47

 Zero-point correction=                           0.339424 (Hartree/Particle)
 Thermal correction to Energy=                    0.357438
 Thermal correction to Enthalpy=                  0.358382
 Thermal correction to Gibbs Free Energy=         0.292476
 Sum of electronic and zero-point Energies=          -1167.198027
 Sum of electronic and thermal Energies=             -1167.180013
 Sum of electronic and thermal Enthalpies=           -1167.179069
 Sum of electronic and thermal Free Energies=        -1167.244975

                     E (Thermal)             CV                S
                      KCal/Mol        Cal/Mol-Kelvin    Cal/Mol-Kelvin
 Total                  224.296             71.312            138.711
 Electronic               0.000              0.000              0.000
 Translational            0.889              2.981             42.831
 Rotational               0.889              2.981             34.505
 Vibrational            222.518             65.351             61.375
 Vibration     1          0.593              1.984              6.051
 Vibration     2          0.594              1.982              5.449
 Vibration     3          0.595              1.980              5.085
 Vibration     4          0.597              1.972              4.396
 Vibration     5          0.605              1.945              3.358
 Vibration     6          0.608              1.937              3.188
 Vibration     7          0.614              1.916              2.834
 Vibration     8          0.625              1.880              2.440
 Vibration     9          0.633              1.855              2.240
 Vibration    10          0.649              1.805              1.929
 Vibration    11          0.659              1.773              1.773
 Vibration    12          0.664              1.758              1.712
 Vibration    13          0.672              1.735              1.620
 Vibration    14          0.681              1.709              1.527
 Vibration    15          0.700              1.652              1.355
 Vibration    16          0.721              1.593              1.206
 Vibration    17          0.733              1.559              1.132
 Vibration    18          0.750              1.513              1.039
 Vibration    19          0.751              1.511              1.036
 Vibration    20          0.783              1.425              0.889
 Vibration    21          0.798              1.389              0.835
 Vibration    22          0.815              1.346              0.775
 Vibration    23          0.816              1.343              0.772
 Vibration    24          0.820              1.333              0.759
 Vibration    25          0.856              1.249              0.657
 Vibration    26          0.865              1.228              0.634
 Vibration    27          0.899              1.154              0.558
 Vibration    28          0.917              1.115              0.521
 Vibration    29          0.978              0.994              0.420

 Optimization completed.
    -- Stationary point found.
 Normal termination of Gaussian 16 at Tue Mar  1 16:54:25 2022.

 ------------------------------------------
 #p b3lyp/6-31G(d) geom=allcheck guess=read
 ------------------------------------------

 Structure from the checkpoint file:  "12.n.pdb.xyz.mst.wat.chk"
 ------------
 12.n.pdb.xyz
 ------------
 Charge =  0 Multiplicity = 1

 SCF Done:  E(RB3LYP) =  -1167.52992593     A.U. after   11 cycles
 Normal termination of Gaussian 16 at Tue Mar  1 16:57:50 2022.
 Gaussian 16:  ES64L-G16RevA.03 25-Dec-2016

 ----------------------------------------------------------------------
 #p b3lyp/6-31G(d) scrf=(iefpcm,read,solvent=water) geom=allcheck guess
 =read
 ----------------------------------------------------------------------

 Structure from the checkpoint file:  "12.n.pdb.xyz.mst.wat.chk"
 ------------
 12.n.pdb.xyz
 ------------
 Charge =  0 Multiplicity = 1

                         Standard orientation:
 ---------------------------------------------------------------------
 Center     Atomic      Atomic             Coordinates (Angstroms)
 Number     Number       Type             X           Y           Z
 ---------------------------------------------------------------------
      1          6           0        5.825898   -0.673331   -0.351356
      2          7           0        4.576725   -0.368242    0.339441
      3          6           0        4.745401    0.817778    1.174458
      4          6           0        3.484583   -0.212283   -0.624594
      5          6           0        2.099230   -0.188457    0.027492
      6          6           0        0.999683   -0.149163   -1.049071
      7          7           0       -0.385022   -0.052317   -0.571799
      8          6           0       -0.887140    1.222874   -0.232361
      9          6           0       -0.037809    2.335529   -0.097285
     10          6           0       -0.539614    3.597711    0.222593
     11          6           0       -1.900920    3.785522    0.446405
     12          6           0       -2.759609    2.692649    0.321228
     13          6           0       -2.268133    1.438324   -0.039163
     14         16           0       -3.434510    0.143660   -0.397385
     15          6           0       -2.438970   -1.269370    0.023771
     16          6           0       -1.041991   -1.236891   -0.172324
     17          6           0       -0.337139   -2.438308    0.021200
     18          6           0       -0.991573   -3.612315    0.397191
     19          6           0       -2.365908   -3.618432    0.620998
     20          6           0       -3.082247   -2.434672    0.440194
     21          1           0        6.620738   -0.831280    0.383541
     22          1           0        5.709078   -1.588304   -0.939438
     23          1           0        6.150054    0.133433   -1.034032
     24          1           0        4.976052    1.724071    0.584277
     25          1           0        3.839630    1.011335    1.753643
     26          1           0        5.568111    0.651402    1.875208
     27          1           0        3.621389    0.699199   -1.238686
     28          1           0        3.537667   -1.062995   -1.313926
     29          1           0        2.001986    0.677500    0.686917
     30          1           0        1.987846   -1.074584    0.658310
     31          1           0        1.062162   -1.044097   -1.673368
     32          1           0        1.167135    0.701383   -1.714820
     33          1           0        1.027067    2.224680   -0.241933
     34          1           0        0.150730    4.429991    0.308041
     35          1           0       -2.294088    4.761180    0.709028
     36          1           0       -3.826900    2.811865    0.476751
     37          1           0        0.733416   -2.465204   -0.120882
     38          1           0       -0.409787   -4.518779    0.526503
     39          1           0       -2.877615   -4.524008    0.926784
     40          1           0       -4.156897   -2.414414    0.596511
 ---------------------------------------------------------------------

 SCF Done:  E(RB3LYP) =  -1167.53669373     A.U. after   11 cycles

 The electronic state is 1-A.
 Alpha  occ. eigenvalues --  -88.89579 -14.37662 -14.32706 -10.24466 -10.24454
 Alpha  occ. eigenvalues --  -10.22580 -10.22580 -10.22520 -10.20776 -10.19818
 Alpha  occ. eigenvalues --  -10.19816 -10.19771 -10.19749 -10.19405 -10.19383
 Alpha  occ. eigenvalues --  -10.19345 -10.19329 -10.18954 -10.18947 -10.18536
 Alpha  occ. eigenvalues --   -7.95657  -5.92155  -5.91798  -5.91164  -0.97226
 Alpha  occ. eigenvalues --   -0.91943  -0.86466  -0.86140  -0.80689  -0.78232
 Alpha  occ. eigenvalues --   -0.76512  -0.75279  -0.73377  -0.70280  -0.70113
 Alpha  occ. eigenvalues --   -0.67790  -0.63364  -0.63216  -0.60553  -0.59709
 Alpha  occ. eigenvalues --   -0.57748  -0.56299  -0.54893  -0.51179  -0.48690
 Alpha  occ. eigenvalues --   -0.48214  -0.47607  -0.47179  -0.46242  -0.45635
 Alpha  occ. eigenvalues --   -0.44945  -0.44333  -0.43534  -0.42771  -0.42410
 Alpha  occ. eigenvalues --   -0.41774  -0.39532  -0.38876  -0.38745  -0.38087
 Alpha  occ. eigenvalues --   -0.37547  -0.37206  -0.36526  -0.36359  -0.35770
 Alpha  occ. eigenvalues --   -0.34946  -0.34379  -0.33551  -0.32940  -0.31313
 Alpha  occ. eigenvalues --   -0.30283  -0.26011  -0.25928  -0.22966  -0.21860
 Alpha  occ. eigenvalues --   -0.18622
 Alpha virt. eigenvalues --   -0.02228  -0.01149  -0.00663   0.01721   0.03334
 Alpha virt. eigenvalues --    0.06629   0.08531   0.10596   0.11111   0.12144
 Alpha virt. eigenvalues --    0.12579   0.12772   0.14194   0.14434   0.14661

 Mulliken charges:
               1
     1  C   -0.303924
     2  N   -0.406671
     3  C   -0.313660
     4  C   -0.115647
     5  C   -0.296788
     6  C   -0.175209
     7  N   -0.600948
     8  C    0.329252
     9  C   -0.188407
    10  C   -0.166095
    11  C   -0.141719
    12  C   -0.193989
    13  C   -0.136627
    14  S    0.131691
    15  C   -0.136511
    16  C    0.329017
    17  C   -0.189972
    18  C   -0.165351
    19  C   -0.141859
    20  C   -0.194063
    21  H    0.155830
    22  H    0.156706
    23  H    0.125745
    24  H    0.125749
    25  H    0.162458
    26  H    0.157704
    27  H    0.121531
    28  H    0.149573
    29  H    0.161096
    30  H    0.158622
    31  H    0.175332
    32  H    0.176080
    33  H    0.158646
    34  H    0.154215
    35  H    0.151379
    36  H    0.160485
    37  H    0.160419
    38  H    0.154179
    39  H    0.151276
    40  H    0.160456
 Sum of Mulliken charges =  -0.00000

 Dipole moment (field-independent basis, Debye):
    X=              3.5914    Y=              0.4639    Z=             -0.3496  Tot=              3.6381
 Quadrupole moment (field-independent basis, Debye-Ang):
   XX=           -119.9001   YY=           -113.1914   ZZ=           -130.2484
   XY=              2.8652   XZ=             -6.3574   YZ=              1.7032

 Normal termination of Gaussian 16 at Tue Mar  1 17:02:05 2022.
