 Gaussian 16, Revision A.03,

 ----------------------------------------------------------------------
 #p b3lyp/6-31G(d) opt=(MaxStep=10,MaxCycles=1000) freq scf=(MaxCycle=2
 000,NoVarAcc,NoIncFock) scrf=(iefpcm,read,solvent=water)
 ----------------------------------------------------------------------

 -------------
 120.n.pdb.xyz
 -------------
 Symbolic Z-matrix:
 Charge =  0 Multiplicity = 1

 SCF Done:  E(RB3LYP) =  -386.337957964     A.U. after   12 cycles
 SCF Done:  E(RB3LYP) =  -386.339697249     A.U. after   10 cycles
 SCF Done:  E(RB3LYP) =  -386.339818532     A.U. after    9 cycles
 SCF Done:  E(RB3LYP) =  -386.339826545     A.U. after    8 cycles
 SCF Done:  E(RB3LYP) =  -386.339838480     A.U. after    8 cycles
 SCF Done:  E(RB3LYP) =  -386.339838397     A.U. after    7 cycles
 Optimization completed.
    -- Stationary point found.
 Normal termination of Gaussian 16 at Tue Mar  1 04:10:18 2022.

 --------------------------------------------------------------------
 #P Geom=AllCheck Guess=TCheck SCRF=Check GenChk RB3LYP/6-31G(d) Freq
 --------------------------------------------------------------------

 Structure from the checkpoint file:  "120.n.pdb.xyz.mst.wat.chk"
 -------------
 120.n.pdb.xyz
 -------------
 Charge =  0 Multiplicity = 1

 SCF Done:  E(RB3LYP) =  -386.339838397     A.U. after    1 cycles

  Exact polarizability: 100.479   0.164  87.969   0.005  -0.006  74.461
 Approx polarizability:  94.509   3.593 100.500   0.006  -0.002  80.361

                      1                      2                      3
                      A                      A                      A
 Frequencies --     20.9926                39.7695                88.1180
 Red. masses --      1.0641                 4.0398                 1.8198
 Frc consts  --      0.0003                 0.0038                 0.0083
 IR Inten    --      1.4529                 0.7999                 1.2613

                      4                      5                      6
                      A                      A                      A
 Frequencies --    102.7581               126.1991               189.8850
 Red. masses --      3.6793                 2.2553                 2.4662
 Frc consts  --      0.0229                 0.0212                 0.0524
 IR Inten    --      2.4135                 0.0011                 7.8486

                      7                      8                      9
                      A                      A                      A
 Frequencies --    240.9563               259.7798               299.0126
 Red. masses --      3.8944                 1.1424                 3.6042
 Frc consts  --      0.1332                 0.0454                 0.1899
 IR Inten    --      9.3128                 0.2738                 2.7466

                     10                     11                     12
                      A                      A                      A
 Frequencies --    425.0820               472.3830               605.6228
 Red. masses --      2.9883                 3.4172                 2.6675
 Frc consts  --      0.3181                 0.4493                 0.5765
 IR Inten    --     10.3720                 4.6915                10.6826

                     13                     14                     15
                      A                      A                      A
 Frequencies --    646.8730               756.9147               816.7754
 Red. masses --      4.6171                 1.0688                 1.1351
 Frc consts  --      1.1383                 0.3608                 0.4462
 IR Inten    --      9.0713                 7.1403                 0.8250

                     16                     17                     18
                      A                      A                      A
 Frequencies --    893.1129               947.6543               960.1277
 Red. masses --      2.9532                 2.3475                 1.1565
 Frc consts  --      1.3879                 1.2421                 0.6281
 IR Inten    --     17.3901                10.5056                 0.0734

                     19                     20                     21
                      A                      A                      A
 Frequencies --    980.8645              1044.8428              1068.2629
 Red. masses --      2.9714                 2.5294                 1.7833
 Frc consts  --      1.6844                 1.6269                 1.1990
 IR Inten    --      7.1943                14.0964                15.7357

                     22                     23                     24
                      A                      A                      A
 Frequencies --   1069.2743              1081.0437              1154.6164
 Red. masses --      3.1434                 2.1339                 2.5518
 Frc consts  --      2.1175                 1.4693                 2.0043
 IR Inten    --    146.5013                13.6493                 8.0159

                     25                     26                     27
                      A                      A                      A
 Frequencies --   1197.4823              1260.1917              1278.5678
 Red. masses --      1.6358                 1.2746                 3.0467
 Frc consts  --      1.3820                 1.1926                 2.9344
 IR Inten    --      4.4888                 1.1223               578.2807

                     28                     29                     30
                      A                      A                      A
 Frequencies --   1308.9827              1320.6450              1340.5643
 Red. masses --      1.4108                 1.1349                 1.0844
 Frc consts  --      1.4242                 1.1662                 1.1482
 IR Inten    --     31.2168                 0.0296                 0.2241

                     31                     32                     33
                      A                      A                      A
 Frequencies --   1397.2901              1412.3751              1435.8798
 Red. masses --      1.3474                 1.4080                 1.5541
 Frc consts  --      1.5500                 1.6548                 1.8879
 IR Inten    --      2.3159                75.9768                 5.3276

                     34                     35                     36
                      A                      A                      A
 Frequencies --   1438.1528              1482.0823              1487.1649
 Red. masses --      1.3415                 1.0551                 1.0449
 Frc consts  --      1.6348                 1.3655                 1.3616
 IR Inten    --      5.5758                23.9551                11.0676

                     37                     38                     39
                      A                      A                      A
 Frequencies --   1507.3527              1519.1720              1521.8284
 Red. masses --      1.0620                 1.0822                 1.0411
 Frc consts  --      1.4217                 1.4715                 1.4206
 IR Inten    --      0.5322                 0.9366                 7.5100

                     40                     41                     42
                      A                      A                      A
 Frequencies --   1530.7713              1542.8882              1786.6370
 Red. masses --      1.0796                 1.0969                10.8043
 Frc consts  --      1.4905                 1.5385                20.3198
 IR Inten    --      1.4066                 8.3207               439.5538

                     43                     44                     45
                      A                      A                      A
 Frequencies --   3044.4610              3052.8324              3056.4125
 Red. masses --      1.0589                 1.0527                 1.0428
 Frc consts  --      5.7827                 5.7806                 5.7395
 IR Inten    --     24.7395                30.5954                77.2321

                     46                     47                     48
                      A                      A                      A
 Frequencies --   3071.3703              3082.7459              3086.9607
 Red. masses --      1.1017                 1.0566                 1.0370
 Frc consts  --      6.1234                 5.9160                 5.8220
 IR Inten    --      7.7018                47.1459                 3.6201

                     49                     50                     51
                      A                      A                      A
 Frequencies --   3093.8508              3119.1315              3126.3073
 Red. masses --      1.1049                 1.1035                 1.1020
 Frc consts  --      6.2315                 6.3254                 6.3461
 IR Inten    --     35.6108                88.6352                66.4899

                     52                     53                     54
                      A                      A                      A
 Frequencies --   3132.5424              3151.9064              3194.7184
 Red. masses --      1.1098                 1.1011                 1.1040
 Frc consts  --      6.4165                 6.4452                 6.6388
 IR Inten    --    103.0162                 6.9403                14.3241

 - Thermochemistry -
 -------------------
 Temperature   298.150 Kelvin.  Pressure   1.00000 Atm.
 Atom     1 has atomic number  6 and mass  12.00000

 Molecular mass:   116.08373 amu.
 Principal axes and moments of inertia in atomic units:
                           1         2         3
     Eigenvalues --   257.869982547.287052749.16949
           X            0.99992  -0.01269   0.00000
           Y            0.01269   0.99992  -0.00006
           Z            0.00000   0.00006   1.00000
 This molecule is an asymmetric top.
 Rotational symmetry number  1.
 Rotational temperatures (Kelvin)      0.33588     0.03400     0.03151
 Rotational constants (GHZ):           6.99865     0.70850     0.65647
 Zero-point vibrational energy     462190.3 (Joules/Mol)
                                  110.46614 (Kcal/Mol)
 Warning -- explicit consideration of  12 degrees of freedom as
           vibrations may cause significant error
 Vibrational temperatures:     30.20    57.22   126.78   147.85   181.57
          (Kelvin)            273.20   346.68   373.77   430.21   611.60
                              679.65   871.36   930.71  1089.03  1175.16
                             1284.99  1363.46  1381.41  1411.25  1503.30
                             1536.99  1538.45  1555.38  1661.24  1722.91
                             1813.13  1839.57  1883.33  1900.11  1928.77
                             2010.39  2032.09  2065.91  2069.18  2132.39
                             2139.70  2168.74  2185.75  2189.57  2202.44
                             2219.87  2570.57  4380.30  4392.34  4397.50
                             4419.02  4435.38  4441.45  4451.36  4487.73
                             4498.06  4507.03  4534.89  4596.49

 Zero-point correction=                           0.176039 (Hartree/Particle)
 Thermal correction to Energy=                    0.186209
 Thermal correction to Enthalpy=                  0.187154
 Thermal correction to Gibbs Free Energy=         0.138613
 Sum of electronic and zero-point Energies=           -386.163799
 Sum of electronic and thermal Energies=              -386.153629
 Sum of electronic and thermal Enthalpies=            -386.152685
 Sum of electronic and thermal Free Energies=         -386.201225

                     E (Thermal)             CV                S
                      KCal/Mol        Cal/Mol-Kelvin    Cal/Mol-Kelvin
 Total                  116.848             33.961            102.162
 Electronic               0.000              0.000              0.000
 Translational            0.889              2.981             40.163
 Rotational               0.889              2.981             28.981
 Vibrational            115.071             27.999             33.019
 Vibration     1          0.593              1.986              6.538
 Vibration     2          0.594              1.981              5.271
 Vibration     3          0.601              1.958              3.701
 Vibration     4          0.605              1.947              3.401
 Vibration     5          0.611              1.927              3.003
 Vibration     6          0.633              1.854              2.229
 Vibration     7          0.658              1.778              1.796
 Vibration     8          0.668              1.746              1.663
 Vibration     9          0.692              1.676              1.422
 Vibration    10          0.787              1.416              0.875
 Vibration    11          0.829              1.311              0.731
 Vibration    12          0.964              1.020              0.440

                           ! Non-Optimized Parameters !
 Normal termination of Gaussian 16 at Tue Mar  1 04:15:09 2022.

 ------------------------------------------
 #p b3lyp/6-31G(d) geom=allcheck guess=read
 ------------------------------------------

 Structure from the checkpoint file:  "120.n.pdb.xyz.mst.wat.chk"
 -------------
 120.n.pdb.xyz
 -------------
 Charge =  0 Multiplicity = 1

 SCF Done:  E(RB3LYP) =  -386.334531250     A.U. after   10 cycles

 1\1\GINC-PIRINEUS6\SP\RB3LYP\6-31G(d)\C6H12O2\UBATOR01\01-Mar-2022\0\\
 #p b3lyp/6-31G(d) geom=allcheck guess=read\\120.n.pdb.xyz\\0,1\C,0,-3.
 4401045865,0.4813556616,0.0693270515\C,0,-2.224559205,-0.445551534,0.0
 01347668\C,0,-0.8967308359,0.3184588004,0.0480738563\C,0,0.3013315151,
 -0.6116498542,-0.0193367564\O,0,1.4972613682,0.2054310458,0.0323492651
 \C,0,2.6711032,-0.4480813912,-0.0173917898\C,0,3.8333450778,0.50846699
 44,0.0438276885\O,0,2.7584048586,-1.659742777,-0.1013560585\H,0,-4.373
 8673417,-0.0882748175,0.0344576702\H,0,-3.4392111232,1.0663850892,0.99

 Normal termination of Gaussian 16 at Tue Mar  1 04:15:38 2022.
 Gaussian 16:  ES64L-G16RevA.03 25-Dec-2016

 ----------------------------------------------------------------------
 #p b3lyp/6-31G(d) scrf=(iefpcm,read,solvent=water) geom=allcheck guess
 =read
 ----------------------------------------------------------------------

 Structure from the checkpoint file:  "120.n.pdb.xyz.mst.wat.chk"
 -------------
 120.n.pdb.xyz
 -------------
 Charge =  0 Multiplicity = 1

                         Standard orientation:
 ---------------------------------------------------------------------
 Center     Atomic      Atomic             Coordinates (Angstroms)
 Number     Number       Type             X           Y           Z
 ---------------------------------------------------------------------
      1          6           0       -3.962876   -0.363464    0.000079
      2          6           0       -2.681318    0.472561   -0.000140
      3          6           0       -1.414340   -0.389870    0.000560
      4          6           0       -0.149983    0.450606   -0.000380
      5          8           0        0.981482   -0.455113   -0.000498
      6          6           0        2.200996    0.110789   -0.000036
      7          6           0        3.288429   -0.931817    0.000010
      8          8           0        2.378749    1.315446    0.000439
      9          1           0       -4.851428    0.275350   -0.000623
     10          1           0       -4.013620   -1.008555   -0.883973
     11          1           0       -4.014155   -1.007474    0.884996
     12          1           0       -2.674107    1.131181    0.877348
     13          1           0       -2.673701    1.130036   -0.878516
     14          1           0       -1.409475   -1.042894    0.882239
     15          1           0       -1.409640   -1.043071   -0.880131
     16          1           0       -0.086275    1.089546   -0.885419
     17          1           0       -0.085270    1.090441    0.883840
     18          1           0        4.263623   -0.447333   -0.000022
     19          1           0        3.193371   -1.571163    0.881536
     20          1           0        3.193383   -1.571561   -0.881362
 ---------------------------------------------------------------------

 SCF Done:  E(RB3LYP) =  -386.339514998     A.U. after   10 cycles

 The electronic state is 1-A.
 Alpha  occ. eigenvalues --  -19.19127 -19.13890 -10.31988 -10.23781 -10.19016
 Alpha  occ. eigenvalues --  -10.18298 -10.18201 -10.17175  -1.10191  -1.01378
 Alpha  occ. eigenvalues --   -0.80307  -0.75923  -0.71811  -0.64166  -0.58411
 Alpha  occ. eigenvalues --   -0.56278  -0.49826  -0.48966  -0.47227  -0.45924
 Alpha  occ. eigenvalues --   -0.42613  -0.42364  -0.40461  -0.39804  -0.38171
 Alpha  occ. eigenvalues --   -0.35811  -0.35511  -0.33664  -0.33515  -0.32750
 Alpha  occ. eigenvalues --   -0.30261  -0.27610
 Alpha virt. eigenvalues --    0.01067   0.09321   0.11109   0.12486   0.13028
 Alpha virt. eigenvalues --    0.13468   0.14816   0.16497   0.17526   0.17928
 Alpha virt. eigenvalues --    0.18986   0.19724   0.19732   0.20918   0.22673

 Mulliken charges:
               1
     1  C   -0.449635
     2  C   -0.259029
     3  C   -0.277768
     4  C   -0.036943
     5  O   -0.462611
     6  C    0.623273
     7  C   -0.527000
     8  O   -0.531232
     9  H    0.148397
    10  H    0.147619
    11  H    0.147601
    12  H    0.142173
    13  H    0.142206
    14  H    0.148973
    15  H    0.149178
    16  H    0.161028
    17  H    0.161040
    18  H    0.181879
    19  H    0.195456
    20  H    0.195395
 Sum of Mulliken charges =  -0.00000

 Dipole moment (field-independent basis, Debye):
    X=             -1.4384    Y=             -2.1523    Z=             -0.0017  Tot=              2.5888
 Quadrupole moment (field-independent basis, Debye-Ang):
   XX=            -47.7246   YY=            -53.2198   ZZ=            -47.8395
   XY=             -8.5000   XZ=              0.0007   YZ=             -0.0025

 1\1\GINC-PIRINEUS6\SP\RB3LYP\6-31G(d)\C6H12O2\UBATOR01\01-Mar-2022\0\\
 #p b3lyp/6-31G(d) scrf=(iefpcm,read,solvent=water) geom=allcheck guess
 =read\\120.n.pdb.xyz\\0,1\C,0,-3.4401045865,0.4813556616,0.0693270515\
 C,0,-2.224559205,-0.445551534,0.001347668\C,0,-0.8967308359,0.31845880
 04,0.0480738563\C,0,0.3013315151,-0.6116498542,-0.0193367564\O,0,1.497
 2613682,0.2054310458,0.0323492651\C,0,2.6711032,-0.4480813912,-0.01739
 17898\C,0,3.8333450778,0.5084669944,0.0438276885\O,0,2.7584048586,-1.6
 59742777,-0.1013560585\H,0,-4.3738673417,-0.0882748175,0.0344576702\H,

 Normal termination of Gaussian 16 at Tue Mar  1 04:16:16 2022.
