 Gaussian 16, Revision A.03,

 ----------------------------------------------------------------------
 #p b3lyp/6-31G(d) opt=(MaxStep=10,MaxCycles=1000) freq scf=(MaxCycle=2
 000,NoVarAcc,NoIncFock) scrf=(iefpcm,read,solvent=water)
 ----------------------------------------------------------------------

 -------------
 121.n.pdb.xyz
 -------------
 Symbolic Z-matrix:
 Charge =  0 Multiplicity = 1

 SCF Done:  E(RB3LYP) =  -3047.86602651     A.U. after   11 cycles
 SCF Done:  E(RB3LYP) =  -3047.86749473     A.U. after   10 cycles
 SCF Done:  E(RB3LYP) =  -3047.86768562     A.U. after    9 cycles
 SCF Done:  E(RB3LYP) =  -3047.86769561     A.U. after    8 cycles
 SCF Done:  E(RB3LYP) =  -3047.86769614     A.U. after    8 cycles
 SCF Done:  E(RB3LYP) =  -3047.86769622     A.U. after    7 cycles
 Optimization completed.
    -- Stationary point found.
 Normal termination of Gaussian 16 at Tue Mar  1 05:32:45 2022.

 --------------------------------------------------------------------
 #P Geom=AllCheck Guess=TCheck SCRF=Check GenChk RB3LYP/6-31G(d) Freq
 --------------------------------------------------------------------

 Structure from the checkpoint file:  "121.n.pdb.xyz.mst.wat.chk"
 -------------
 121.n.pdb.xyz
 -------------
 Charge =  0 Multiplicity = 1

 SCF Done:  E(RB3LYP) =  -3047.86769622     A.U. after    1 cycles

  Exact polarizability:  57.959  -7.668  43.236   3.838  -1.237  40.368
 Approx polarizability:  69.423 -12.504  55.396   5.758  -0.776  50.013

                      1                      2                      3
                      A                      A                      A
 Frequencies --     65.9527               152.8172               224.1767
 Red. masses --     16.7431                20.9673                15.4718
 Frc consts  --      0.0429                 0.2885                 0.4581
 IR Inten    --      0.2892                 2.1916                 4.1090

                      4                      5                      6
                      A                      A                      A
 Frequencies --    289.4275               299.2593               421.0898
 Red. masses --     19.2118                22.9310                15.2001
 Frc consts  --      0.9482                 1.2100                 1.5880
 IR Inten    --      2.0266                 1.7553                 2.5916

                      7                      8                      9
                      A                      A                      A
 Frequencies --    508.0390               561.5428               675.9991
 Red. masses --     13.5518                14.7094                11.6879
 Frc consts  --      2.0608                 2.7328                 3.1469
 IR Inten    --     15.0951                15.2398                64.5038

                     10                     11                     12
                      A                      A                      A
 Frequencies --    730.6406               870.4195              1113.7127
 Red. masses --      5.2058                 7.3269                 5.1507
 Frc consts  --      1.6374                 3.2706                 3.7641
 IR Inten    --     95.1428                54.6997               240.0479

                     13                     14                     15
                      A                      A                      A
 Frequencies --   1154.1415              1214.9164              1269.3259
 Red. masses --      3.4510                11.2777                 1.8207
 Frc consts  --      2.7084                 9.8076                 1.7284
 IR Inten    --    327.9205               344.8739                80.0970

                     16                     17                     18
                      A                      A                      A
 Frequencies --   1299.1687              1411.4940              3189.8184
 Red. masses --      2.8098                 1.7475                 1.0889
 Frc consts  --      2.7942                 2.0513                 6.5277
 IR Inten    --    158.4116                55.4288                 3.4349

 - Thermochemistry -
 -------------------
 Temperature   298.150 Kelvin.  Pressure   1.00000 Atm.
 Atom     1 has atomic number  9 and mass  18.99840

 Molecular mass:   179.91977 amu.
 Principal axes and moments of inertia in atomic units:
                           1         2         3
     Eigenvalues --   593.985501554.404851810.00229
           X            0.99999   0.00516   0.00085
           Y           -0.00514   0.99977  -0.02061
           Z           -0.00096   0.02060   0.99979
 This molecule is an asymmetric top.
 Rotational symmetry number  1.
 Warning -- assumption of classical behavior for rotation
           may cause significant error
 Rotational temperatures (Kelvin)      0.14582     0.05572     0.04785
 Rotational constants (GHZ):           3.03836     1.16105     0.99709
 Zero-point vibrational energy      92423.1 (Joules/Mol)
                                   22.08966 (Kcal/Mol)
 Warning -- explicit consideration of   8 degrees of freedom as
           vibrations may cause significant error
 Vibrational temperatures:     94.89   219.87   322.54   416.42   430.57
          (Kelvin)            605.85   730.95   807.93   972.61  1051.23
                             1252.34  1602.38  1660.55  1747.99  1826.28
                             1869.21  2030.83  4589.44

 Zero-point correction=                           0.035202 (Hartree/Particle)
 Thermal correction to Energy=                    0.041918
 Thermal correction to Enthalpy=                  0.042862
 Thermal correction to Gibbs Free Energy=         0.002410
 Sum of electronic and zero-point Energies=          -3047.832494
 Sum of electronic and thermal Energies=             -3047.825778
 Sum of electronic and thermal Enthalpies=           -3047.824834
 Sum of electronic and thermal Free Energies=        -3047.865286

                     E (Thermal)             CV                S
                      KCal/Mol        Cal/Mol-Kelvin    Cal/Mol-Kelvin
 Total                   26.304             22.079             85.139
 Electronic               0.000              0.000              0.000
 Translational            0.889              2.981             41.469
 Rotational               0.889              2.981             28.904
 Vibrational             24.526             16.118             14.766
 Vibration     1          0.597              1.971              4.271
 Vibration     2          0.619              1.900              2.637
 Vibration     3          0.649              1.804              1.925
 Vibration     4          0.686              1.693              1.477
 Vibration     5          0.692              1.675              1.421
 Vibration     6          0.784              1.424              0.888
 Vibration     7          0.863              1.232              0.638
 Vibration     8          0.917              1.114              0.521

 Optimization completed.
    -- Stationary point found.
 Normal termination of Gaussian 16 at Tue Mar  1 05:34:16 2022.

 ------------------------------------------
 #p b3lyp/6-31G(d) geom=allcheck guess=read
 ------------------------------------------

 Structure from the checkpoint file:  "121.n.pdb.xyz.mst.wat.chk"
 -------------
 121.n.pdb.xyz
 -------------
 Charge =  0 Multiplicity = 1

 SCF Done:  E(RB3LYP) =  -3047.87078854     A.U. after   10 cycles
 Normal termination of Gaussian 16 at Tue Mar  1 05:34:27 2022.
 Gaussian 16:  ES64L-G16RevA.03 25-Dec-2016

 ----------------------------------------------------------------------
 #p b3lyp/6-31G(d) scrf=(iefpcm,read,solvent=water) geom=allcheck guess
 =read
 ----------------------------------------------------------------------

 Structure from the checkpoint file:  "121.n.pdb.xyz.mst.wat.chk"
 -------------
 121.n.pdb.xyz
 -------------
 Charge =  0 Multiplicity = 1

                         Standard orientation:
 ---------------------------------------------------------------------
 Center     Atomic      Atomic             Coordinates (Angstroms)
 Number     Number       Type             X           Y           Z
 ---------------------------------------------------------------------
      1          9           0       -0.242799    1.855967    0.071211
      2          6           0       -0.126829    0.629941   -0.502814
      3         35           0        1.573457   -0.181523    0.009596
      4          6           0       -1.280388   -0.237298   -0.008285
      5          9           0       -2.445772    0.331059   -0.358961
      6          9           0       -1.261072   -0.365164    1.325728
      7          9           0       -1.216102   -1.457176   -0.558271
      8          1           0       -0.135977    0.715267   -1.586624
 ---------------------------------------------------------------------

 SCF Done:  E(RB3LYP) =  -3047.86743857     A.U. after   10 cycles

 The electronic state is 1-A.
 Alpha  occ. eigenvalues -- -482.92578 -61.88841 -56.40934 -56.40530 -56.40517
 Alpha  occ. eigenvalues --  -24.74642 -24.74526 -24.74479 -24.73288 -10.45513
 Alpha  occ. eigenvalues --  -10.34753  -8.60036  -6.55462  -6.54145  -6.54099
 Alpha  occ. eigenvalues --   -2.67024  -2.66662  -2.66626  -2.65574  -2.65574
 Alpha  occ. eigenvalues --   -1.32708  -1.24857  -1.23774  -1.23729  -0.83741
 Alpha  occ. eigenvalues --   -0.75262  -0.67256  -0.60971  -0.60537  -0.59074
 Alpha  occ. eigenvalues --   -0.54136  -0.50073  -0.47631  -0.47273  -0.45748
 Alpha  occ. eigenvalues --   -0.43888  -0.43777  -0.41852  -0.38397  -0.37162
 Alpha  occ. eigenvalues --   -0.30746  -0.30127
 Alpha virt. eigenvalues --   -0.02419   0.07017   0.11165   0.18336   0.19442
 Alpha virt. eigenvalues --    0.20330   0.21719   0.26020   0.40659   0.43008
 Alpha virt. eigenvalues --    0.43618   0.44611   0.45273   0.46216   0.48246

 Mulliken charges:
               1
     1  F   -0.265119
     2  C    0.082483
     3  Br  -0.101126
     4  C    0.804009
     5  F   -0.256655
     6  F   -0.253293
     7  F   -0.250674
     8  H    0.240375
 Sum of Mulliken charges =  -0.00000

 Dipole moment (field-independent basis, Debye):
    X=              0.0670    Y=              0.2095    Z=             -1.7191  Tot=              1.7331
 Quadrupole moment (field-independent basis, Debye-Ang):
   XX=            -49.8249   YY=            -50.6108   ZZ=            -46.9264
   XY=             -0.6541   XZ=              0.7568   YZ=             -1.4858

 Normal termination of Gaussian 16 at Tue Mar  1 05:34:43 2022.
