 Gaussian 16, Revision A.03,

 ----------------------------------------------------------------------
 #p b3lyp/6-31G(d) opt=(MaxStep=10,MaxCycles=1000) freq scf=(MaxCycle=2
 000,NoVarAcc,NoIncFock) scrf=(iefpcm,read,solvent=water)
 ----------------------------------------------------------------------

 -------------
 122.n.pdb.xyz
 -------------
 Symbolic Z-matrix:
 Charge =  0 Multiplicity = 1

 SCF Done:  E(RB3LYP) =  -554.816954612     A.U. after   12 cycles
 SCF Done:  E(RB3LYP) =  -554.819644232     A.U. after   11 cycles
 SCF Done:  E(RB3LYP) =  -554.820192333     A.U. after   10 cycles
 SCF Done:  E(RB3LYP) =  -554.820296374     A.U. after   10 cycles
 SCF Done:  E(RB3LYP) =  -554.820241700     A.U. after   10 cycles
 SCF Done:  E(RB3LYP) =  -554.820546246     A.U. after   10 cycles
 SCF Done:  E(RB3LYP) =  -554.820730105     A.U. after   11 cycles
 SCF Done:  E(RB3LYP) =  -554.820792082     A.U. after    9 cycles
 SCF Done:  E(RB3LYP) =  -554.820802166     A.U. after    9 cycles
 SCF Done:  E(RB3LYP) =  -554.820802236     A.U. after    9 cycles
 SCF Done:  E(RB3LYP) =  -554.820803202     A.U. after    8 cycles
 SCF Done:  E(RB3LYP) =  -554.820803563     A.U. after    7 cycles
 Optimization completed.
    -- Stationary point found.
 Normal termination of Gaussian 16 at Tue Mar  1 15:18:39 2022.

 --------------------------------------------------------------------
 #P Geom=AllCheck Guess=TCheck SCRF=Check GenChk RB3LYP/6-31G(d) Freq
 --------------------------------------------------------------------

 Structure from the checkpoint file:  "122.n.pdb.xyz.mst.wat.chk"
 -------------
 122.n.pdb.xyz
 -------------
 Charge =  0 Multiplicity = 1

 SCF Done:  E(RB3LYP) =  -554.820803563     A.U. after    1 cycles

  Exact polarizability: 238.734 -16.741 155.873   0.260   0.849  64.627
 Approx polarizability: 252.295 -23.107 185.749  -1.291   1.488  74.230

                      1                      2                      3
                      A                      A                      A
 Frequencies --     27.2161                68.1342                81.1434
 Red. masses --      2.6399                 3.2225                 4.4743
 Frc consts  --      0.0012                 0.0088                 0.0174
 IR Inten    --      0.6805                 6.0982                 0.9936

                      4                      5                      6
                      A                      A                      A
 Frequencies --    103.3797               139.6252               244.8802
 Red. masses --      3.8871                 2.9131                 4.6295
 Frc consts  --      0.0245                 0.0335                 0.1636
 IR Inten    --      3.5348                 1.4907                10.1913

                      7                      8                      9
                      A                      A                      A
 Frequencies --    258.2332               297.3952               310.9145
 Red. masses --      1.3393                 3.6586                 5.3645
 Frc consts  --      0.0526                 0.1906                 0.3055
 IR Inten    --      1.2045                20.4689                10.2797

                     10                     11                     12
                      A                      A                      A
 Frequencies --    379.3846               383.3093               414.5329
 Red. masses --      4.7973                 1.1193                 3.0148
 Frc consts  --      0.4068                 0.0969                 0.3052
 IR Inten    --      8.0530                79.8931                 1.4404

                     13                     14                     15
                      A                      A                      A
 Frequencies --    423.8051               463.0234               509.8675
 Red. masses --      2.9585                 1.3282                 4.4932
 Frc consts  --      0.3131                 0.1678                 0.6882
 IR Inten    --     11.8467               816.2331                 7.2454

                     16                     17                     18
                      A                      A                      A
 Frequencies --    524.1049               633.4169               651.2688
 Red. masses --      2.7110                 5.8868                 6.9191
 Frc consts  --      0.4387                 1.3916                 1.7291
 IR Inten    --    108.5264                 8.4077                 3.1327

                     19                     20                     21
                      A                      A                      A
 Frequencies --    704.7523               767.2648               815.2190
 Red. masses --      3.7926                 5.9936                 1.1037
 Frc consts  --      1.1098                 2.0789                 0.4322
 IR Inten    --     15.8936                56.3228                 0.0367

                     22                     23                     24
                      A                      A                      A
 Frequencies --    830.3094               835.2347               852.1677
 Red. masses --      4.8368                 1.2660                 1.8850
 Frc consts  --      1.9647                 0.5204                 0.8065
 IR Inten    --      1.0639                 0.0933                55.4586

                     25                     26                     27
                      A                      A                      A
 Frequencies --    869.5198               900.7577               974.6243
 Red. masses --      5.4512                 2.7536                 1.3097
 Frc consts  --      2.4283                 1.3164                 0.7330
 IR Inten    --      4.4635                 4.8525                 0.0173

                     28                     29                     30
                      A                      A                      A
 Frequencies --    982.2346              1026.3006              1047.2446
 Red. masses --      1.2802                 2.9236                 2.8777
 Frc consts  --      0.7277                 1.8143                 1.8595
 IR Inten    --      0.1448                 5.3841                67.7636

                     31                     32                     33
                      A                      A                      A
 Frequencies --   1098.0020              1138.3658              1148.6113
 Red. masses --      1.4484                 2.7006                 3.2289
 Frc consts  --      1.0288                 2.0620                 2.5099
 IR Inten    --     11.0110               147.6647               202.0159

                     34                     35                     36
                      A                      A                      A
 Frequencies --   1156.4976              1186.7533              1201.6215
 Red. masses --      1.1809                 1.5204                 1.2358
 Frc consts  --      0.9306                 1.2616                 1.0513
 IR Inten    --     36.0381                 8.1350               516.6641

                     37                     38                     39
                      A                      A                      A
 Frequencies --   1292.6381              1301.0243              1344.3748
 Red. masses --      1.1180                 3.1435                 2.1367
 Frc consts  --      1.1006                 3.1350                 2.2753
 IR Inten    --      6.8746              1006.8388                42.3041

                     40                     41                     42
                      A                      A                      A
 Frequencies --   1349.4524              1393.0760              1406.2315
 Red. masses --      1.9552                 3.8377                 1.4753
 Frc consts  --      2.0978                 4.3880                 1.7188
 IR Inten    --    169.0061                 4.4519                77.1465

                     43                     44                     45
                      A                      A                      A
 Frequencies --   1440.6484              1492.9692              1506.0215
 Red. masses --      1.3762                 2.9261                 1.0404
 Frc consts  --      1.6828                 3.8428                 1.3903
 IR Inten    --      8.7468                19.5440                 8.2893

                     46                     47                     48
                      A                      A                      A
 Frequencies --   1512.9938              1539.1514              1566.1988
 Red. masses --      1.0518                 1.0949                 2.7523
 Frc consts  --      1.4186                 1.5282                 3.9778
 IR Inten    --      1.3487                18.0467                69.0824

                     49                     50                     51
                      A                      A                      A
 Frequencies --   1614.7813              1657.5219              1671.3454
 Red. masses --      6.3408                 5.5094                 1.1484
 Frc consts  --      9.7414                 8.9181                 1.8901
 IR Inten    --     26.1761               696.5601               214.4634

                     52                     53                     54
                      A                      A                      A
 Frequencies --   1738.5431              3075.7442              3089.2112
 Red. masses --     11.9352                 1.0357                 1.0577
 Frc consts  --     21.2545                 5.7728                 5.9469
 IR Inten    --    543.4612                25.0264                40.6717

                     55                     56                     57
                      A                      A                      A
 Frequencies --   3129.4899              3147.1159              3156.3436
 Red. masses --      1.1073                 1.1030                 1.1050
 Frc consts  --      6.3893                 6.4367                 6.4861
 IR Inten    --     10.8660                49.8075                67.1235

                     58                     59                     60
                      A                      A                      A
 Frequencies --   3207.4642              3208.2113              3230.1862
 Red. masses --      1.0884                 1.0891                 1.0928
 Frc consts  --      6.5973                 6.6043                 6.7180
 IR Inten    --     17.9954                29.6898                16.8827

                     61                     62                     63
                      A                      A                      A
 Frequencies --   3238.6243              3556.5274              3657.4350
 Red. masses --      1.0926                 1.0479                 1.1013
 Frc consts  --      6.7517                 7.8097                 8.6801
 IR Inten    --      9.3895               154.4357                66.8446

 - Thermochemistry -
 -------------------
 Temperature   298.150 Kelvin.  Pressure   1.00000 Atm.
 Atom     1 has atomic number  6 and mass  12.00000

 Molecular mass:   165.07898 amu.
 Principal axes and moments of inertia in atomic units:
                           1         2         3
     Eigenvalues --   699.721734093.869844769.57691
           X            0.99992   0.01279   0.00176
           Y           -0.01278   0.99992  -0.00171
           Z           -0.00178   0.00169   1.00000
 This molecule is an asymmetric top.
 Rotational symmetry number  1.
 Warning -- assumption of classical behavior for rotation
           may cause significant error
 Rotational temperatures (Kelvin)      0.12378     0.02116     0.01816
 Rotational constants (GHZ):           2.57923     0.44084     0.37839
 Zero-point vibrational energy     496285.4 (Joules/Mol)
                                  118.61506 (Kcal/Mol)
 Warning -- explicit consideration of  16 degrees of freedom as
           vibrations may cause significant error
 Vibrational temperatures:     39.16    98.03   116.75   148.74   200.89
          (Kelvin)            352.33   371.54   427.89   447.34   545.85
                              551.50   596.42   609.76   666.19   733.59
                              754.07   911.35   937.03  1013.98  1103.92
                             1172.92  1194.63  1201.72  1226.08  1251.04
                             1295.99  1402.27  1413.22  1476.62  1506.75
                             1579.78  1637.85  1652.60  1663.94  1707.47
                             1728.87  1859.82  1871.88  1934.26  1941.56
                             2004.33  2023.25  2072.77  2148.05  2166.83
                             2176.86  2214.50  2253.41  2323.31  2384.80
                             2404.69  2501.38  4425.31  4444.69  4502.64
                             4528.00  4541.27  4614.83  4615.90  4647.52
                             4659.66  5117.05  5262.23

 Zero-point correction=                           0.189025 (Hartree/Particle)
 Thermal correction to Energy=                    0.200641
 Thermal correction to Enthalpy=                  0.201585
 Thermal correction to Gibbs Free Energy=         0.150368
 Sum of electronic and zero-point Energies=           -554.631778
 Sum of electronic and thermal Energies=              -554.620162
 Sum of electronic and thermal Enthalpies=            -554.619218
 Sum of electronic and thermal Free Energies=         -554.670435

                     E (Thermal)             CV                S
                      KCal/Mol        Cal/Mol-Kelvin    Cal/Mol-Kelvin
 Total                  125.904             43.343            107.795
 Electronic               0.000              0.000              0.000
 Translational            0.889              2.981             41.212
 Rotational               0.889              2.981             30.992
 Vibrational            124.127             37.381             35.592
 Vibration     1          0.593              1.984              6.023
 Vibration     2          0.598              1.969              4.207
 Vibration     3          0.600              1.962              3.863
 Vibration     4          0.605              1.946              3.390
 Vibration     5          0.615              1.914              2.809
 Vibration     6          0.660              1.771              1.767
 Vibration     7          0.667              1.749              1.674
 Vibration     8          0.691              1.679              1.432
 Vibration     9          0.700              1.653              1.357
 Vibration    10          0.749              1.514              1.042
 Vibration    11          0.753              1.506              1.026
 Vibration    12          0.778              1.439              0.911
 Vibration    13          0.786              1.418              0.879
 Vibration    14          0.821              1.332              0.757
 Vibration    15          0.865              1.228              0.634
 Vibration    16          0.879              1.197              0.601

                           ! Non-Optimized Parameters !
 Normal termination of Gaussian 16 at Tue Mar  1 15:29:16 2022.

 ------------------------------------------
 #p b3lyp/6-31G(d) geom=allcheck guess=read
 ------------------------------------------

 Structure from the checkpoint file:  "122.n.pdb.xyz.mst.wat.chk"
 -------------
 122.n.pdb.xyz
 -------------
 Charge =  0 Multiplicity = 1

 SCF Done:  E(RB3LYP) =  -554.803741664     A.U. after   12 cycles
 Normal termination of Gaussian 16 at Tue Mar  1 15:30:20 2022.
 Gaussian 16:  ES64L-G16RevA.03 25-Dec-2016

 ----------------------------------------------------------------------
 #p b3lyp/6-31G(d) scrf=(iefpcm,read,solvent=water) geom=allcheck guess
 =read
 ----------------------------------------------------------------------

 Structure from the checkpoint file:  "122.n.pdb.xyz.mst.wat.chk"
 -------------
 122.n.pdb.xyz
 -------------
 Charge =  0 Multiplicity = 1

                         Standard orientation:
 ---------------------------------------------------------------------
 Center     Atomic      Atomic             Coordinates (Angstroms)
 Number     Number       Type             X           Y           Z
 ---------------------------------------------------------------------
      1          6           0       -4.219738   -1.295275    0.033859
      2          6           0       -3.459245    0.013837   -0.013191
      3          8           0       -2.047517   -0.302060   -0.012189
      4          6           0       -1.199826    0.749609   -0.007202
      5          8           0       -1.593236    1.910265   -0.003453
      6          6           0        0.215624    0.344456   -0.006319
      7          6           0        0.621870   -1.001359   -0.017876
      8          6           0        1.965530   -1.338613   -0.015519
      9          6           0        2.962088   -0.335730   -0.001952
     10          7           0        4.296057   -0.665979   -0.058102
     11          6           0        2.550221    1.016995    0.013078
     12          6           0        1.204797    1.342185    0.009509
     13          1           0       -3.985609   -1.917064   -0.835060
     14          1           0       -3.975956   -1.855775    0.939151
     15          1           0       -5.294692   -1.094396    0.033390
     16          1           0       -3.677584    0.644945    0.851507
     17          1           0       -3.689207    0.587299   -0.914841
     18          1           0       -0.128869   -1.782480   -0.025895
     19          1           0        2.263659   -2.382097   -0.024657
     20          1           0        4.546722   -1.602095    0.238076
     21          1           0        4.952736    0.039817    0.254088
     22          1           0        3.300960    1.800889    0.027034
     23          1           0        0.893540    2.380544    0.022749
 ---------------------------------------------------------------------

 SCF Done:  E(RB3LYP) =  -554.820012056     A.U. after   11 cycles

 The electronic state is 1-A.
 Alpha  occ. eigenvalues --  -19.18662 -19.13072 -14.33995 -10.31260 -10.23962
 Alpha  occ. eigenvalues --  -10.23838 -10.19715 -10.19624 -10.19174 -10.18729
 Alpha  occ. eigenvalues --  -10.18725 -10.17850  -1.09575  -1.00583  -0.92140
 Alpha  occ. eigenvalues --   -0.84527  -0.77612  -0.74992  -0.73714  -0.65357
 Alpha  occ. eigenvalues --   -0.61817  -0.60589  -0.56384  -0.53329  -0.51171
 Alpha  occ. eigenvalues --   -0.50131  -0.48779  -0.46547  -0.44361  -0.42561
 Alpha  occ. eigenvalues --   -0.42275  -0.42178  -0.40749  -0.39223  -0.38563
 Alpha  occ. eigenvalues --   -0.37405  -0.35901  -0.35022  -0.33859  -0.31189
 Alpha  occ. eigenvalues --   -0.29851  -0.27361  -0.25775  -0.20913
 Alpha virt. eigenvalues --   -0.03305  -0.00339   0.06830   0.10083   0.10781
 Alpha virt. eigenvalues --    0.11742   0.13340   0.13856   0.15504   0.15713
 Alpha virt. eigenvalues --    0.17861   0.17922   0.18153   0.18396   0.20190

 Mulliken charges:
               1
     1  C   -0.467522
     2  C   -0.030385
     3  O   -0.485509
     4  C    0.598180
     5  O   -0.566178
     6  C    0.039496
     7  C   -0.185749
     8  C   -0.201413
     9  C    0.324803
    10  N   -0.822762
    11  C   -0.202477
    12  C   -0.179271
    13  H    0.162764
    14  H    0.163071
    15  H    0.163852
    16  H    0.161558
    17  H    0.161345
    18  H    0.159668
    19  H    0.149998
    20  H    0.377115
    21  H    0.377023
    22  H    0.150219
    23  H    0.152174
 Sum of Mulliken charges =  -0.00000

 Dipole moment (field-independent basis, Debye):
    X=              3.9736    Y=             -3.5453    Z=              1.2049  Tot=              5.4599
 Quadrupole moment (field-independent basis, Debye-Ang):
   XX=            -37.3967   YY=            -70.3179   ZZ=            -72.2900
   XY=              2.3994   XZ=              5.7997   YZ=             -0.8343

 Normal termination of Gaussian 16 at Tue Mar  1 15:31:32 2022.
