 Gaussian 16, Revision A.03,

 ----------------------------------------------------------------------
 #p b3lyp/6-31G(d) opt=(MaxStep=10,MaxCycles=1000) freq scf=(MaxCycle=2
 000,NoVarAcc,NoIncFock) scrf=(iefpcm,read,solvent=water)
 ----------------------------------------------------------------------

 -------------
 123.n.pdb.xyz
 -------------
 Symbolic Z-matrix:
 Charge =  0 Multiplicity = 1

 SCF Done:  E(RB3LYP) =  -2690.24939129     A.U. after   11 cycles
 SCF Done:  E(RB3LYP) =  -2690.25039525     A.U. after    9 cycles
 SCF Done:  E(RB3LYP) =  -2690.25047201     A.U. after    8 cycles
 SCF Done:  E(RB3LYP) =  -2690.25048091     A.U. after    8 cycles
 Optimization completed.
    -- Stationary point found.
 Normal termination of Gaussian 16 at Tue Mar  1 17:07:48 2022.

 --------------------------------------------------------------------
 #P Geom=AllCheck Guess=TCheck SCRF=Check GenChk RB3LYP/6-31G(d) Freq
 --------------------------------------------------------------------

 Structure from the checkpoint file:  "123.n.pdb.xyz.mst.wat.chk"
 -------------
 123.n.pdb.xyz
 -------------
 Charge =  0 Multiplicity = 1

 SCF Done:  E(RB3LYP) =  -2690.25048091     A.U. after    1 cycles

  Exact polarizability:  80.107  -4.120  54.085  -0.037   0.029  52.219
 Approx polarizability:  86.352  -6.538  60.980  -0.052   0.035  59.098

                      1                      2                      3
                      A                      A                      A
 Frequencies --    110.9876               208.4783               245.8400
 Red. masses --      2.4850                 3.3287                 1.0836
 Frc consts  --      0.0180                 0.0852                 0.0386
 IR Inten    --      1.4553                 2.9575                 0.0838

                      4                      5                      6
                      A                      A                      A
 Frequencies --    302.7819               628.9773               751.5633
 Red. masses --      4.0587                 4.4128                 1.0800
 Frc consts  --      0.2192                 1.0286                 0.3594
 IR Inten    --      4.7554                56.8996                 7.8442

                      7                      8                      9
                      A                      A                      A
 Frequencies --    859.4368               911.3689              1043.9394
 Red. masses --      1.1755                 1.8444                 2.7945
 Frc consts  --      0.5116                 0.9026                 1.7943
 IR Inten    --      0.3465                15.7354                 3.3710

                     10                     11                     12
                      A                      A                      A
 Frequencies --   1062.3309              1123.4671              1252.0691
 Red. masses --      1.1361                 1.9642                 1.4164
 Frc consts  --      0.7554                 1.4607                 1.3083
 IR Inten    --      2.0684                 2.6086                 0.5142

                     13                     14                     15
                      A                      A                      A
 Frequencies --   1260.8750              1320.8522              1365.8396
 Red. masses --      1.2019                 1.1113                 1.4640
 Frc consts  --      1.1258                 1.1423                 1.6092
 IR Inten    --     73.9213                 0.1854                 8.7256

                     16                     17                     18
                      A                      A                      A
 Frequencies --   1435.4265              1502.0462              1512.2284
 Red. masses --      1.2258                 1.0808                 1.0870
 Frc consts  --      1.4881                 1.4367                 1.4646
 IR Inten    --      1.0239                 3.2038                 0.6272

                     19                     20                     21
                      A                      A                      A
 Frequencies --   1520.4002              1531.1108              3064.7763
 Red. masses --      1.0400                 1.0809                 1.0351
 Frc consts  --      1.4165                 1.4929                 5.7282
 IR Inten    --      9.1947                 6.8801                40.0488

                     22                     23                     24
                      A                      A                      A
 Frequencies --   3073.7748              3108.7300              3134.8816
 Red. masses --      1.0598                 1.1043                 1.1038
 Frc consts  --      5.8997                 6.2876                 6.3911
 IR Inten    --     23.8852                 6.3333                72.8671

                     25                     26                     27
                      A                      A                      A
 Frequencies --   3136.5328              3144.3065              3215.8482
 Red. masses --      1.1024                 1.0580                 1.1112
 Frc consts  --      6.3901                 6.1628                 6.7706
 IR Inten    --     47.0864                28.1549                15.7445

 - Thermochemistry -
 -------------------
 Temperature   298.150 Kelvin.  Pressure   1.00000 Atm.
 Atom     1 has atomic number  6 and mass  12.00000

 Molecular mass:   121.97311 amu.
 Principal axes and moments of inertia in atomic units:
                           1         2         3
     Eigenvalues --    71.713191121.518491159.37812
           X            1.00000   0.00244   0.00002
           Y           -0.00244   1.00000   0.00009
           Z           -0.00002  -0.00009   1.00000
 This molecule is an asymmetric top.
 Rotational symmetry number  1.
 Rotational temperatures (Kelvin)      1.20778     0.07723     0.07471
 Rotational constants (GHZ):          25.16610     1.60919     1.55665
 Zero-point vibrational energy     250192.2 (Joules/Mol)
                                   59.79737 (Kcal/Mol)
 Warning -- explicit consideration of   4 degrees of freedom as
           vibrations may cause significant error
 Vibrational temperatures:    159.69   299.95   353.71   435.64   904.96
          (Kelvin)           1081.33  1236.54  1311.26  1502.00  1528.46
                             1616.42  1801.45  1814.12  1900.41  1965.14
                             2065.26  2161.11  2175.76  2187.52  2202.93
                             4409.53  4422.48  4472.77  4510.40  4512.77
                             4523.96  4626.89

 Zero-point correction=                           0.095293 (Hartree/Particle)
 Thermal correction to Energy=                    0.100802
 Thermal correction to Enthalpy=                  0.101746
 Thermal correction to Gibbs Free Energy=         0.065567
 Sum of electronic and zero-point Energies=          -2690.155188
 Sum of electronic and thermal Energies=             -2690.149679
 Sum of electronic and thermal Enthalpies=           -2690.148735
 Sum of electronic and thermal Free Energies=        -2690.184914

                     E (Thermal)             CV                S
                      KCal/Mol        Cal/Mol-Kelvin    Cal/Mol-Kelvin
 Total                   63.254             17.797             76.145
 Electronic               0.000              0.000              0.000
 Translational            0.889              2.981             40.310
 Rotational               0.889              2.981             26.036
 Vibrational             61.477             11.836              9.799
 Vibration     1          0.607              1.940              3.252
 Vibration     2          0.642              1.828              2.057
 Vibration     3          0.660              1.770              1.760
 Vibration     4          0.694              1.668              1.401

 Optimization completed.
    -- Stationary point found.
 Normal termination of Gaussian 16 at Tue Mar  1 17:09:16 2022.

 ------------------------------------------
 #p b3lyp/6-31G(d) geom=allcheck guess=read
 ------------------------------------------

 Structure from the checkpoint file:  "123.n.pdb.xyz.mst.wat.chk"
 -------------
 123.n.pdb.xyz
 -------------
 Charge =  0 Multiplicity = 1

 SCF Done:  E(RB3LYP) =  -2690.24881891     A.U. after   10 cycles
 Normal termination of Gaussian 16 at Tue Mar  1 17:09:29 2022.
 Gaussian 16:  ES64L-G16RevA.03 25-Dec-2016

 ----------------------------------------------------------------------
 #p b3lyp/6-31G(d) scrf=(iefpcm,read,solvent=water) geom=allcheck guess
 =read
 ----------------------------------------------------------------------

 Structure from the checkpoint file:  "123.n.pdb.xyz.mst.wat.chk"
 -------------
 123.n.pdb.xyz
 -------------
 Charge =  0 Multiplicity = 1

                         Standard orientation:
 ---------------------------------------------------------------------
 Center     Atomic      Atomic             Coordinates (Angstroms)
 Number     Number       Type             X           Y           Z
 ---------------------------------------------------------------------
      1          6           0       -3.015697    0.033974   -0.001417
      2          6           0       -1.578960   -0.500585    0.001794
      3          6           0       -0.575679    0.637955    0.001113
      4         35           0        1.293530   -0.051038   -0.000218
      5          1           0       -3.210499    0.645511   -0.888078
      6          1           0       -3.729742   -0.794706   -0.001110
      7          1           0       -3.213205    0.648240    0.882481
      8          1           0       -1.408967   -1.130721   -0.876892
      9          1           0       -1.411976   -1.127889    0.883033
     10          1           0       -0.636426    1.255139   -0.891151
     11          1           0       -0.640740    1.262709    0.890396
 ---------------------------------------------------------------------

 SCF Done:  E(RB3LYP) =  -2690.25027925     A.U. after    9 cycles

 The electronic state is 1-A.
 Alpha  occ. eigenvalues -- -482.89435 -61.85702 -56.37758 -56.37413 -56.37406
 Alpha  occ. eigenvalues --  -10.23663 -10.19121 -10.17786  -8.56867  -6.52191
 Alpha  occ. eigenvalues --   -6.51019  -6.51006  -2.63768  -2.63441  -2.63431
 Alpha  occ. eigenvalues --   -2.62497  -2.62497  -0.81525  -0.75095  -0.66211
 Alpha  occ. eigenvalues --   -0.59335  -0.47880  -0.43276  -0.40934  -0.40513
 Alpha  occ. eigenvalues --   -0.35563  -0.34157  -0.34019  -0.27351  -0.27331
 Alpha virt. eigenvalues --    0.00256   0.10232   0.13673   0.13715   0.15419
 Alpha virt. eigenvalues --    0.18088   0.18325   0.19202   0.21676   0.23974
 Alpha virt. eigenvalues --    0.29322   0.43046   0.43812   0.45658   0.46741

 Mulliken charges:
               1
     1  C   -0.458403
     2  C   -0.250726
     3  C   -0.280854
     4  Br  -0.205237
     5  H    0.155918
     6  H    0.160849
     7  H    0.155970
     8  H    0.159313
     9  H    0.159323
    10  H    0.202182
    11  H    0.201666
 Sum of Mulliken charges =  -0.00000

 Dipole moment (field-independent basis, Debye):
    X=             -2.8010    Y=              0.7170    Z=             -0.0015  Tot=              2.8913
 Quadrupole moment (field-independent basis, Debye-Ang):
   XX=            -37.9930   YY=            -37.7793   ZZ=            -38.1925
   XY=             -0.5370   XZ=             -0.0085   YZ=              0.0043

 Normal termination of Gaussian 16 at Tue Mar  1 17:09:48 2022.
