 Gaussian 16, Revision A.03,

 ----------------------------------------------------------------------
 #p b3lyp/6-31G(d) opt=(MaxStep=10,MaxCycles=1000) freq scf=(MaxCycle=2
 000,NoVarAcc,NoIncFock) scrf=(iefpcm,read,solvent=water)
 ----------------------------------------------------------------------

 -------------
 125.n.pdb.xyz
 -------------
 Symbolic Z-matrix:
 Charge =  0 Multiplicity = 1

 SCF Done:  E(RB3LYP) =  -808.914596337     A.U. after   13 cycles
 SCF Done:  E(RB3LYP) =  -808.917786904     A.U. after   10 cycles
 SCF Done:  E(RB3LYP) =  -808.918428704     A.U. after   11 cycles
 SCF Done:  E(RB3LYP) =  -808.918879307     A.U. after   10 cycles
 SCF Done:  E(RB3LYP) =  -808.918858558     A.U. after   10 cycles
 SCF Done:  E(RB3LYP) =  -808.918780951     A.U. after    9 cycles
 SCF Done:  E(RB3LYP) =  -808.918904830     A.U. after   10 cycles
 SCF Done:  E(RB3LYP) =  -808.918859086     A.U. after    9 cycles
 SCF Done:  E(RB3LYP) =  -808.918831633     A.U. after    8 cycles
 SCF Done:  E(RB3LYP) =  -808.918900780     A.U. after    9 cycles
 SCF Done:  E(RB3LYP) =  -808.918849579     A.U. after    9 cycles
 SCF Done:  E(RB3LYP) =  -808.918829486     A.U. after    8 cycles
 SCF Done:  E(RB3LYP) =  -808.918836827     A.U. after    7 cycles
 SCF Done:  E(RB3LYP) =  -808.918831872     A.U. after    7 cycles
 SCF Done:  E(RB3LYP) =  -808.918823115     A.U. after    8 cycles
 SCF Done:  E(RB3LYP) =  -808.918828850     A.U. after    7 cycles
 SCF Done:  E(RB3LYP) =  -808.918827756     A.U. after    6 cycles
 Optimization completed.
    -- Stationary point found.
 Normal termination of Gaussian 16 at Tue Mar  1 23:24:52 2022.

 --------------------------------------------------------------------
 #P Geom=AllCheck Guess=TCheck SCRF=Check GenChk RB3LYP/6-31G(d) Freq
 --------------------------------------------------------------------

 Structure from the checkpoint file:  "125.n.pdb.xyz.mst.wat.chk"
 -------------
 125.n.pdb.xyz
 -------------
 Charge =  0 Multiplicity = 1

 SCF Done:  E(RB3LYP) =  -808.918827756     A.U. after    1 cycles

  Exact polarizability: 282.901  -6.840 294.508 -17.821 -12.611 162.536
 Approx polarizability: 293.269  -9.160 319.467 -20.609 -15.365 180.777

 ******    1 imaginary frequencies (negative Signs) ******

                      1                      2                      3
                      A                      A                      A
 Frequencies --    -53.7757                16.6697                22.1865
 Red. masses --      1.7265                 4.3836                 4.8135
 Frc consts  --      0.0029                 0.0007                 0.0014
 IR Inten    --      0.0902                 0.5650                 0.5836

                      4                      5                      6
                      A                      A                      A
 Frequencies --     48.1883                68.5096                82.1096
 Red. masses --      3.3542                 3.3104                 3.0081
 Frc consts  --      0.0046                 0.0092                 0.0119
 IR Inten    --      0.2847                 0.1988                 0.3463

                      7                      8                      9
                      A                      A                      A
 Frequencies --     98.6448               103.8726               111.9123
 Red. masses --      2.6077                 2.1066                 6.0178
 Frc consts  --      0.0150                 0.0134                 0.0444
 IR Inten    --      0.6988                 0.2966                 1.7165

                     10                     11                     12
                      A                      A                      A
 Frequencies --    132.5939               180.6960               217.3169
 Red. masses --      2.2275                 3.1166                 3.0111
 Frc consts  --      0.0231                 0.0600                 0.0838
 IR Inten    --      0.1473                 0.1874                 0.8328

                     13                     14                     15
                      A                      A                      A
 Frequencies --    231.8627               237.9373               239.7918
 Red. masses --      1.8789                 1.7142                 1.9426
 Frc consts  --      0.0595                 0.0572                 0.0658
 IR Inten    --      1.0340                 0.3913                 0.3459

                     16                     17                     18
                      A                      A                      A
 Frequencies --    249.0667               275.7344               298.0646
 Red. masses --      1.1370                 4.1238                 3.6989
 Frc consts  --      0.0416                 0.1847                 0.1936
 IR Inten    --      0.0288                 0.5214                 7.0159

                     19                     20                     21
                      A                      A                      A
 Frequencies --    327.9261               342.3361               382.4207
 Red. masses --      2.8140                 2.5444                 3.9761
 Frc consts  --      0.1783                 0.1757                 0.3426
 IR Inten    --      2.8738                 0.9049                 5.2901

                     22                     23                     24
                      A                      A                      A
 Frequencies --    428.3022               469.0926               484.9849
 Red. masses --      2.6774                 1.2479                 5.8046
 Frc consts  --      0.2894                 0.1618                 0.8044
 IR Inten    --     13.9009               107.0591                 2.0543

                     25                     26                     27
                      A                      A                      A
 Frequencies --    497.4483               513.6433               530.3753
 Red. masses --      2.5884                 2.6386                 4.9742
 Frc consts  --      0.3774                 0.4101                 0.8244
 IR Inten    --      2.1993                48.7700                 5.7827

                     28                     29                     30
                      A                      A                      A
 Frequencies --    555.3624               574.2018               595.5701
 Red. masses --      3.8753                 2.5816                 4.4697
 Frc consts  --      0.7042                 0.5015                 0.9341
 IR Inten    --     24.8483                55.6404                12.2099

                     31                     32                     33
                      A                      A                      A
 Frequencies --    625.6287               676.1403               734.5608
 Red. masses --      5.8978                 5.2993                 2.2589
 Frc consts  --      1.3601                 1.4274                 0.7181
 IR Inten    --      4.8552                20.1889                11.2107

                     34                     35                     36
                      A                      A                      A
 Frequencies --    744.4569               770.4685               776.7636
 Red. masses --      1.1356                 1.0920                 1.3826
 Frc consts  --      0.3708                 0.3819                 0.4915
 IR Inten    --      7.0123                 3.9472                13.9256

                     37                     38                     39
                      A                      A                      A
 Frequencies --    788.9059               804.0335               844.5392
 Red. masses --      2.0172                 2.3340                 3.8560
 Frc consts  --      0.7397                 0.8890                 1.6204
 IR Inten    --     32.7452                36.5448                 2.6417

                     40                     41                     42
                      A                      A                      A
 Frequencies --    853.2618               881.2225               885.2313
 Red. masses --      2.7007                 1.2312                 1.4169
 Frc consts  --      1.1585                 0.5633                 0.6542
 IR Inten    --     22.7720                 0.8765                 2.2113

                     43                     44                     45
                      A                      A                      A
 Frequencies --    893.2353               902.4497               909.0905
 Red. masses --      4.0935                 1.2016                 1.7189
 Frc consts  --      1.9243                 0.5766                 0.8370
 IR Inten    --     12.9877                 4.9014                 0.6393

                     46                     47                     48
                      A                      A                      A
 Frequencies --    934.6708               959.4826               975.4816
 Red. masses --      2.2272                 2.1069                 1.4357
 Frc consts  --      1.1464                 1.1428                 0.8049
 IR Inten    --      1.2377                 7.0535                 3.6781

                     49                     50                     51
                      A                      A                      A
 Frequencies --   1002.0817              1005.9905              1044.1497
 Red. masses --      3.5167                 2.6874                 2.8318
 Frc consts  --      2.0806                 1.6024                 1.8190
 IR Inten    --     51.4980                33.1435                 0.9599

                     52                     53                     54
                      A                      A                      A
 Frequencies --   1058.6048              1065.9184              1088.9746
 Red. masses --      2.6061                 2.6589                 2.0857
 Frc consts  --      1.7207                 1.7799                 1.4573
 IR Inten    --      0.3252                 4.4738                 7.8258

                     55                     56                     57
                      A                      A                      A
 Frequencies --   1095.2515              1120.1041              1132.7993
 Red. masses --      2.3494                 1.9541                 2.0469
 Frc consts  --      1.6605                 1.4445                 1.5476
 IR Inten    --    119.3185                27.1732                 0.8854

                     58                     59                     60
                      A                      A                      A
 Frequencies --   1154.8012              1165.3741              1172.8059
 Red. masses --      1.9687                 1.4794                 1.1983
 Frc consts  --      1.5468                 1.1838                 0.9711
 IR Inten    --     27.7060                35.0710                 5.3693

                     61                     62                     63
                      A                      A                      A
 Frequencies --   1187.4245              1197.4965              1237.2012
 Red. masses --      1.3055                 1.9530                 2.0624
 Frc consts  --      1.0846                 1.6500                 1.8600
 IR Inten    --      8.9368                 3.7139                40.2730

                     64                     65                     66
                      A                      A                      A
 Frequencies --   1244.6282              1258.2582              1269.8382
 Red. masses --      1.7916                 2.1688                 1.7999
 Frc consts  --      1.6352                 2.0230                 1.7100
 IR Inten    --     19.8919                86.8105                85.9072

                     67                     68                     69
                      A                      A                      A
 Frequencies --   1284.4896              1304.7690              1310.8703
 Red. masses --      1.4408                 1.6678                 1.6304
 Frc consts  --      1.4006                 1.6728                 1.6507
 IR Inten    --      3.9482                13.2714                52.0265

                     70                     71                     72
                      A                      A                      A
 Frequencies --   1315.7491              1327.3588              1336.4332
 Red. masses --      1.5004                 1.9892                 1.3068
 Frc consts  --      1.5304                 2.0649                 1.3751
 IR Inten    --     21.7980                26.5980                 8.8766

                     73                     74                     75
                      A                      A                      A
 Frequencies --   1340.8539              1348.6569              1350.5677
 Red. masses --      1.1984                 1.3511                 3.0220
 Frc consts  --      1.2695                 1.4479                 3.2477
 IR Inten    --     18.0703                 8.5510                71.6952

                     76                     77                     78
                      A                      A                      A
 Frequencies --   1371.8681              1394.0183              1401.8817
 Red. masses --      1.2691                 1.2746                 1.2824
 Frc consts  --      1.4073                 1.4594                 1.4848
 IR Inten    --     12.9000                15.1847                68.4826

                     79                     80                     81
                      A                      A                      A
 Frequencies --   1424.5606              1431.4343              1433.0817
 Red. masses --      1.3929                 1.2545                 1.2550
 Frc consts  --      1.6654                 1.5144                 1.5186
 IR Inten    --      2.4950                 0.6771                 0.9417

                     82                     83                     84
                      A                      A                      A
 Frequencies --   1435.7235              1449.5417              1450.5117
 Red. masses --      2.5740                 1.3739                 1.1132
 Frc consts  --      3.1261                 1.7008                 1.3799
 IR Inten    --     96.3203                12.5770                 6.1347

                     85                     86                     87
                      A                      A                      A
 Frequencies --   1492.3665              1498.0415              1502.0537
 Red. masses --      1.1129                 2.6480                 1.0919
 Frc consts  --      1.4604                 3.5012                 1.4515
 IR Inten    --     10.4916               120.0374                 1.8295

                     88                     89                     90
                      A                      A                      A
 Frequencies --   1507.1259              1513.7805              1517.5696
 Red. masses --      1.0641                 1.0769                 1.0418
 Frc consts  --      1.4241                 1.4539                 1.4137
 IR Inten    --      0.7357                 3.1244                 6.2612

                     91                     92                     93
                      A                      A                      A
 Frequencies --   1519.2946              1520.0524              1525.2155
 Red. masses --      1.1133                 1.0486                 1.0740
 Frc consts  --      1.5141                 1.4275                 1.4721
 IR Inten    --      2.7307                 9.3431                 2.4367

                     94                     95                     96
                      A                      A                      A
 Frequencies --   1531.4785              1535.7320              1540.9765
 Red. masses --      1.0877                 2.7899                 1.1027
 Frc consts  --      1.5030                 3.8768                 1.5427
 IR Inten    --      4.3174                11.4602                10.7609

                     97                     98                     99
                      A                      A                      A
 Frequencies --   1653.1348              1668.0286              1776.4943
 Red. masses --      7.5525                 6.5166                10.9926
 Frc consts  --     12.1607                10.6826                20.4399
 IR Inten    --    123.5824               136.2830              1018.4935

                    100                    101                    102
                      A                      A                      A
 Frequencies --   2945.3285              3008.8480              3050.0556
 Red. masses --      1.0713                 1.0645                 1.0589
 Frc consts  --      5.4756                 5.6778                 5.8041
 IR Inten    --    134.2058                85.2393                44.6885

                    103                    104                    105
                      A                      A                      A
 Frequencies --   3051.4638              3052.1300              3054.0139
 Red. masses --      1.0533                 1.0438                 1.0532
 Frc consts  --      5.7786                 5.7291                 5.7875
 IR Inten    --     56.9149                13.6732                88.8299

                    106                    107                    108
                      A                      A                      A
 Frequencies --   3054.4488              3062.7252              3066.8862
 Red. masses --      1.0465                 1.0884                 1.0885
 Frc consts  --      5.7523                 6.0154                 6.0324
 IR Inten    --     30.6824                39.8973                55.1287

                    109                    110                    111
                      A                      A                      A
 Frequencies --   3069.2605              3077.8283              3087.9297
 Red. masses --      1.0633                 1.0613                 1.1029
 Frc consts  --      5.9017                 5.9237                 6.1960
 IR Inten    --     47.6471                14.7441                40.0071

                    112                    113                    114
                      A                      A                      A
 Frequencies --   3091.1299              3093.3940              3112.3351
 Red. masses --      1.1038                 1.1015                 1.1025
 Frc consts  --      6.2140                 6.2104                 6.2920
 IR Inten    --     31.5818                28.3510                 6.6527

                    115                    116                    117
                      A                      A                      A
 Frequencies --   3115.3291              3116.4872              3117.7645
 Red. masses --      1.1036                 1.1055                 1.1033
 Frc consts  --      6.3106                 6.3264                 6.3187
 IR Inten    --     83.7081               136.5437               122.1617

                    118                    119                    120
                      A                      A                      A
 Frequencies --   3123.6564              3126.0831              3195.0420
 Red. masses --      1.1016                 1.1018                 1.0873
 Frc consts  --      6.3326                 6.3440                 6.5399
 IR Inten    --     64.5901                67.3706                12.9782

                    121                    122                    123
                      A                      A                      A
 Frequencies --   3212.7071              3236.9042              3604.6550
 Red. masses --      1.0922                 1.0942                 1.0805
 Frc consts  --      6.6420                 6.7547                 8.2715
 IR Inten    --     43.2094                22.7436               152.4282

 - Thermochemistry -
 -------------------
 Temperature   298.150 Kelvin.  Pressure   1.00000 Atm.
 Atom     1 has atomic number  6 and mass  12.00000

 Molecular mass:   260.18886 amu.
 Principal axes and moments of inertia in atomic units:
                           1         2         3
     Eigenvalues --  3300.07711********************
           X            0.99994   0.01017  -0.00340
           Y           -0.01016   0.99995   0.00218
           Z            0.00342  -0.00215   0.99999
 This molecule is an asymmetric top.
 Rotational symmetry number  1.
 Warning -- assumption of classical behavior for rotation
           may cause significant error
 Rotational temperatures (Kelvin)      0.02625     0.00840     0.00654
 Rotational constants (GHZ):           0.54688     0.17507     0.13629
    1 imaginary frequencies ignored.
 Zero-point vibrational energy     996000.4 (Joules/Mol)
                                  238.04982 (Kcal/Mol)
 Warning -- explicit consideration of  29 degrees of freedom as
           vibrations may cause significant error
 Vibrational temperatures:     23.98    31.92    69.33    98.57   118.14
          (Kelvin)            141.93   149.45   161.02   190.77   259.98
                              312.67   333.60   342.34   345.01   358.35
                              396.72   428.85   471.81   492.55   550.22
                              616.23   674.92   697.79   715.72   739.02
                              763.09   799.04   826.15   856.89   900.14
                              972.82  1056.87  1071.11  1108.53  1117.59
                             1135.06  1156.82  1215.10  1227.65  1267.88
                             1273.65  1285.17  1298.42  1307.98  1344.78
                             1380.48  1403.50  1441.77  1447.40  1502.30
                             1523.10  1533.62  1566.79  1575.82  1611.58
                             1629.85  1661.50  1676.71  1687.41  1708.44
                             1722.93  1780.06  1790.74  1810.35  1827.01
                             1848.09  1877.27  1886.05  1893.07  1909.77
                             1922.83  1929.19  1940.42  1943.17  1973.81
                             2005.68  2017.00  2049.63  2059.51  2061.88
                             2065.69  2085.57  2086.96  2147.18  2155.35
                             2161.12  2168.42  2177.99  2183.44  2185.93
                             2187.02  2194.44  2203.46  2209.58  2217.12
                             2378.49  2399.92  2555.98  4237.67  4329.06
                             4388.35  4390.38  4391.33  4394.04  4394.67
                             4406.58  4412.57  4415.98  4428.31  4442.84
                             4447.45  4450.70  4477.96  4482.26  4483.93
                             4485.77  4494.24  4497.74  4596.95  4622.37
                             4657.18  5186.29

 Zero-point correction=                           0.379357 (Hartree/Particle)
 Thermal correction to Energy=                    0.398219
 Thermal correction to Enthalpy=                  0.399164
 Thermal correction to Gibbs Free Energy=         0.330204
 Sum of electronic and zero-point Energies=           -808.539471
 Sum of electronic and thermal Energies=              -808.520608
 Sum of electronic and thermal Enthalpies=            -808.519664
 Sum of electronic and thermal Free Energies=         -808.588624

                     E (Thermal)             CV                S
                      KCal/Mol        Cal/Mol-Kelvin    Cal/Mol-Kelvin
 Total                  249.886             72.154            145.137
 Electronic               0.000              0.000              0.000
 Translational            0.889              2.981             42.568
 Rotational               0.889              2.981             34.465
 Vibrational            248.109             66.192             68.104
 Vibration     1          0.593              1.986              6.996
 Vibration     2          0.593              1.985              6.428
 Vibration     3          0.595              1.978              4.890
 Vibration     4          0.598              1.969              4.196
 Vibration     5          0.600              1.961              3.840
 Vibration     6          0.604              1.950              3.481
 Vibration     7          0.605              1.946              3.380
 Vibration     8          0.607              1.940              3.235
 Vibration     9          0.613              1.921              2.908
 Vibration    10          0.630              1.866              2.321
 Vibration    11          0.646              1.815              1.981
 Vibration    12          0.653              1.792              1.864
 Vibration    13          0.656              1.783              1.818
 Vibration    14          0.657              1.780              1.804
 Vibration    15          0.662              1.764              1.737
 Vibration    16          0.677              1.718              1.560
 Vibration    17          0.691              1.677              1.428
 Vibration    18          0.711              1.620              1.270
 Vibration    19          0.721              1.591              1.201
 Vibration    20          0.752              1.508              1.030
 Vibration    21          0.790              1.409              0.864
 Vibration    22          0.826              1.319              0.740
 Vibration    23          0.841              1.283              0.697
 Vibration    24          0.853              1.256              0.665
 Vibration    25          0.869              1.220              0.625
 Vibration    26          0.885              1.183              0.586
 Vibration    27          0.911              1.128              0.533
 Vibration    28          0.931              1.087              0.496
 Vibration    29          0.953              1.041              0.457

 Optimization completed.
    -- Stationary point found.
 Normal termination of Gaussian 16 at Wed Mar  2 00:14:50 2022.

 ------------------------------------------
 #p b3lyp/6-31G(d) geom=allcheck guess=read
 ------------------------------------------

 Structure from the checkpoint file:  "125.n.pdb.xyz.mst.wat.chk"
 -------------
 125.n.pdb.xyz
 -------------
 Charge =  0 Multiplicity = 1

 SCF Done:  E(RB3LYP) =  -808.904203759     A.U. after   11 cycles
 Normal termination of Gaussian 16 at Wed Mar  2 00:18:07 2022.
 Gaussian 16:  ES64L-G16RevA.03 25-Dec-2016

 ----------------------------------------------------------------------
 #p b3lyp/6-31G(d) scrf=(iefpcm,read,solvent=water) geom=allcheck guess
 =read
 ----------------------------------------------------------------------

 Structure from the checkpoint file:  "125.n.pdb.xyz.mst.wat.chk"
 -------------
 125.n.pdb.xyz
 -------------
 Charge =  0 Multiplicity = 1

                         Standard orientation:
 ---------------------------------------------------------------------
 Center     Atomic      Atomic             Coordinates (Angstroms)
 Number     Number       Type             X           Y           Z
 ---------------------------------------------------------------------
      1          6           0        3.436186    3.568459   -0.003854
      2          6           0        3.292416    2.206470    0.676928
      3          6           0        2.496758    1.206921   -0.169170
      4          7           0        2.329081   -0.102485    0.483338
      5          6           0        3.140430   -1.167313   -0.109357
      6          6           0        4.640326   -0.987473    0.134722
      7          6           0        5.470287   -2.112276   -0.487497
      8          6           0        0.932594   -0.485282    0.680543
      9          6           0        0.118488   -0.787931   -0.605606
     10          6           0       -1.315422   -1.137819   -0.297163
     11          6           0       -2.307678   -0.163758   -0.205787
     12          6           0       -2.267489    1.328150   -0.419184
     13          6           0       -3.715155    1.767634   -0.169863
     14          8           0       -4.168723    2.904975   -0.227177
     15          7           0       -4.425521    0.634235    0.135888
     16          6           0       -3.627968   -0.518090    0.122118
     17          6           0       -4.005325   -1.830866    0.374366
     18          6           0       -3.006297   -2.808283    0.284085
     19          6           0       -1.693126   -2.471510   -0.044271
     20          1           0        2.456946    4.019490   -0.200251
     21          1           0        3.957156    3.479224   -0.963737
     22          1           0        4.004634    4.265767    0.619062
     23          1           0        2.792428    2.322699    1.646196
     24          1           0        4.282730    1.787573    0.886489
     25          1           0        2.987292    1.081935   -1.146025
     26          1           0        1.508312    1.632779   -0.380139
     27          1           0        2.818516   -2.114317    0.340305
     28          1           0        2.966272   -1.258910   -1.197615
     29          1           0        4.818082   -0.939993    1.215666
     30          1           0        4.962800   -0.023005   -0.274965
     31          1           0        5.190376   -3.087296   -0.073039
     32          1           0        5.324896   -2.159025   -1.572401
     33          1           0        6.538306   -1.965043   -0.300768
     34          1           0        0.436925    0.319922    1.233936
     35          1           0        0.911831   -1.372599    1.323766
     36          1           0        0.162623    0.085876   -1.264338
     37          1           0        0.592510   -1.618518   -1.137898
     38          1           0       -1.603735    1.859630    0.270800
     39          1           0       -1.969007    1.620033   -1.431886
     40          1           0       -5.418119    0.645458    0.344279
     41          1           0       -5.027357   -2.087642    0.624972
     42          1           0       -3.262505   -3.846560    0.469073
     43          1           0       -0.941192   -3.251730   -0.114715
 ---------------------------------------------------------------------

 SCF Done:  E(RB3LYP) =  -808.917502896     A.U. after   11 cycles

 The electronic state is 1-A.
 Alpha  occ. eigenvalues --  -19.12557 -14.37234 -14.31846 -10.29788 -10.23224
 Alpha  occ. eigenvalues --  -10.20694 -10.20140 -10.20021 -10.20010 -10.19979
 Alpha  occ. eigenvalues --  -10.19511 -10.19214 -10.19043 -10.18380 -10.18312
 Alpha  occ. eigenvalues --  -10.17551 -10.17322 -10.17085 -10.16999  -1.04169
 Alpha  occ. eigenvalues --   -0.95793  -0.91492  -0.85121  -0.79233  -0.77769
 Alpha  occ. eigenvalues --   -0.77620  -0.75743  -0.72246  -0.70290  -0.68242
 Alpha  occ. eigenvalues --   -0.65687  -0.61428  -0.60520  -0.60030  -0.58562
 Alpha  occ. eigenvalues --   -0.57921  -0.55792  -0.51732  -0.48649  -0.48456
 Alpha  occ. eigenvalues --   -0.47689  -0.46987  -0.46220  -0.45565  -0.45119
 Alpha  occ. eigenvalues --   -0.43766  -0.42594  -0.41889  -0.40932  -0.40757
 Alpha  occ. eigenvalues --   -0.40179  -0.39863  -0.39321  -0.38650  -0.38607
 Alpha  occ. eigenvalues --   -0.36998  -0.36413  -0.36269  -0.35643  -0.35020
 Alpha  occ. eigenvalues --   -0.33816  -0.33623  -0.32849  -0.32837  -0.32120
 Alpha  occ. eigenvalues --   -0.31723  -0.30624  -0.26209  -0.24885  -0.21648
 Alpha  occ. eigenvalues --   -0.20248
 Alpha virt. eigenvalues --   -0.01150  -0.00242   0.03631   0.07537   0.09657
 Alpha virt. eigenvalues --    0.09913   0.10723   0.11808   0.12289   0.12591
 Alpha virt. eigenvalues --    0.13283   0.14317   0.14539   0.14878   0.15661

 Mulliken charges:
               1
     1  C   -0.458897
     2  C   -0.245022
     3  C   -0.134997
     4  N   -0.402432
     5  C   -0.122439
     6  C   -0.256832
     7  C   -0.456260
     8  C   -0.154136
     9  C   -0.368098
    10  C    0.092654
    11  C    0.041164
    12  C   -0.460586
    13  C    0.618923
    14  O   -0.581038
    15  N   -0.703490
    16  C    0.345063
    17  C   -0.201229
    18  C   -0.160246
    19  C   -0.213720
    20  H    0.145712
    21  H    0.145827
    22  H    0.147998
    23  H    0.133563
    24  H    0.140451
    25  H    0.134468
    26  H    0.137447
    27  H    0.138915
    28  H    0.120024
    29  H    0.135538
    30  H    0.144643
    31  H    0.146332
    32  H    0.147008
    33  H    0.148717
    34  H    0.148873
    35  H    0.147660
    36  H    0.155326
    37  H    0.159003
    38  H    0.206022
    39  H    0.207258
    40  H    0.386963
    41  H    0.155895
    42  H    0.149330
    43  H    0.138645
 Sum of Mulliken charges =  -0.00000

 Dipole moment (field-independent basis, Debye):
    X=              0.6401    Y=             -3.7521    Z=             -0.3915  Tot=              3.8264
 Quadrupole moment (field-independent basis, Debye-Ang):
   XX=           -108.8158   YY=           -125.4042   ZZ=           -117.7858
   XY=             17.1876   XZ=             -7.1487   YZ=             -0.1781

 Normal termination of Gaussian 16 at Wed Mar  2 00:22:18 2022.
