 Gaussian 16, Revision A.03,

 ----------------------------------------------------------------------
 #p b3lyp/6-31G(d) opt=(MaxStep=10,MaxCycles=1000) freq scf=(MaxCycle=2
 000,NoVarAcc,NoIncFock) scrf=(iefpcm,read,solvent=water)
 ----------------------------------------------------------------------

 -------------
 126.n.pdb.xyz
 -------------
 Symbolic Z-matrix:
 Charge =  0 Multiplicity = 1

 SCF Done:  E(RB3LYP) =  -1312.00618564     A.U. after   12 cycles
 SCF Done:  E(RB3LYP) =  -1312.01060232     A.U. after   10 cycles
 SCF Done:  E(RB3LYP) =  -1312.01288597     A.U. after   10 cycles
 SCF Done:  E(RB3LYP) =  -1312.01334354     A.U. after    9 cycles
 SCF Done:  E(RB3LYP) =  -1312.01337364     A.U. after    9 cycles
 SCF Done:  E(RB3LYP) =  -1312.01338359     A.U. after    9 cycles
 SCF Done:  E(RB3LYP) =  -1312.01338211     A.U. after    8 cycles
 SCF Done:  E(RB3LYP) =  -1312.01338113     A.U. after    7 cycles
 SCF Done:  E(RB3LYP) =  -1312.01338353     A.U. after    8 cycles
 SCF Done:  E(RB3LYP) =  -1312.01338189     A.U. after    8 cycles
 SCF Done:  E(RB3LYP) =  -1312.01338232     A.U. after    7 cycles
 SCF Done:  E(RB3LYP) =  -1312.01338403     A.U. after    7 cycles
 SCF Done:  E(RB3LYP) =  -1312.01338255     A.U. after    7 cycles
 SCF Done:  E(RB3LYP) =  -1312.01338238     A.U. after    6 cycles
 SCF Done:  E(RB3LYP) =  -1312.01338394     A.U. after    7 cycles
 SCF Done:  E(RB3LYP) =  -1312.01338236     A.U. after    7 cycles
 Optimization completed.
    -- Stationary point found.
 Normal termination of Gaussian 16 at Wed Mar  2 00:09:39 2022.

 --------------------------------------------------------------------
 #P Geom=AllCheck Guess=TCheck SCRF=Check GenChk RB3LYP/6-31G(d) Freq
 --------------------------------------------------------------------

 Structure from the checkpoint file:  "126.n.pdb.xyz.mst.wat.chk"
 -------------
 126.n.pdb.xyz
 -------------
 Charge =  0 Multiplicity = 1

 SCF Done:  E(RB3LYP) =  -1312.01338236     A.U. after    1 cycles

  Exact polarizability:  72.499  -6.318  77.176   3.579   1.322  52.057
 Approx polarizability:  74.432  -6.957  90.994   5.214   1.594  61.822

                      1                      2                      3
                      A                      A                      A
 Frequencies --     65.6452                75.6571               131.4521
 Red. masses --     11.3829                 1.8181                 1.6000
 Frc consts  --      0.0289                 0.0061                 0.0163
 IR Inten    --      0.4024                 4.5555                 1.9823

                      4                      5                      6
                      A                      A                      A
 Frequencies --    161.1991               210.7534               249.3229
 Red. masses --      4.5887                13.7484                13.9856
 Frc consts  --      0.0703                 0.3598                 0.5122
 IR Inten    --      2.1170                 4.1833                 2.8754

                      7                      8                      9
                      A                      A                      A
 Frequencies --    286.0112               352.0745               375.5330
 Red. masses --      8.2252                10.0037                 9.8079
 Frc consts  --      0.3964                 0.7306                 0.8149
 IR Inten    --     10.1315                 9.2971                 3.3671

                     10                     11                     12
                      A                      A                      A
 Frequencies --    517.6302               549.4911               695.8793
 Red. masses --     11.0635                12.8121                 6.6218
 Frc consts  --      1.7465                 2.2793                 1.8893
 IR Inten    --     10.9275                12.8343                36.4577

                     13                     14                     15
                      A                      A                      A
 Frequencies --    760.7919               778.8177               838.5034
 Red. masses --      7.0724                 8.2893                 6.9108
 Frc consts  --      2.4118                 2.9624                 2.8628
 IR Inten    --     42.7616               231.0581                29.2638

                     16                     17                     18
                      A                      A                      A
 Frequencies --   1012.1247              1084.4223              1166.2033
 Red. masses --      5.8979                 7.6795                 2.8536
 Frc consts  --      3.5597                 5.3209                 2.2866
 IR Inten    --     96.6682               314.3288               211.9608

                     19                     20                     21
                      A                      A                      A
 Frequencies --   1176.4918              1231.3409              1255.7198
 Red. masses --      1.2706                 2.0492                 2.3934
 Frc consts  --      1.0362                 1.8306                 2.2236
 IR Inten    --      3.2788               251.8428               173.0393

                     22                     23                     24
                      A                      A                      A
 Frequencies --   1282.6153              1346.7407              1492.7205
 Red. masses --      1.1646                 1.9768                 1.2079
 Frc consts  --      1.1288                 2.1124                 1.5857
 IR Inten    --     30.2042               145.5942                16.4465

                     25                     26                     27
                      A                      A                      A
 Frequencies --   1508.4503              1526.5942              3101.4583
 Red. masses --      1.0509                 1.0471                 1.0292
 Frc consts  --      1.4089                 1.4377                 5.8326
 IR Inten    --      8.3270                14.8225                37.1008

                     28                     29                     30
                      A                      A                      A
 Frequencies --   3186.3354              3217.5115              3228.5942
 Red. masses --      1.1091                 1.1073                 1.0882
 Frc consts  --      6.6344                 6.7538                 6.6830
 IR Inten    --     25.6404                13.8357                 3.6575

 - Thermochemistry -
 -------------------
 Temperature   298.150 Kelvin.  Pressure   1.00000 Atm.
 Atom     1 has atomic number  6 and mass  12.00000

 Molecular mass:   163.96073 amu.
 Principal axes and moments of inertia in atomic units:
                           1         2         3
     Eigenvalues --   919.239231581.891842145.73255
           X            0.99974  -0.02285  -0.00031
           Y            0.02285   0.99974  -0.00260
           Z            0.00037   0.00259   1.00000
 This molecule is an asymmetric top.
 Rotational symmetry number  1.
 Warning -- assumption of classical behavior for rotation
           may cause significant error
 Rotational temperatures (Kelvin)      0.09422     0.05475     0.04037
 Rotational constants (GHZ):           1.96330     1.14088     0.84108
 Zero-point vibrational energy     196582.8 (Joules/Mol)
                                   46.98443 (Kcal/Mol)
 Warning -- explicit consideration of  11 degrees of freedom as
           vibrations may cause significant error
 Vibrational temperatures:     94.45   108.85   189.13   231.93   303.23
          (Kelvin)            358.72   411.51   506.56   540.31   744.75
                              790.60  1001.22  1094.61  1120.54  1206.42
                             1456.22  1560.24  1677.91  1692.71  1771.62
                             1806.70  1845.40  1937.66  2147.69  2170.32
                             2196.43  4462.31  4584.43  4629.28  4645.23

 Zero-point correction=                           0.074874 (Hartree/Particle)
 Thermal correction to Energy=                    0.083676
 Thermal correction to Enthalpy=                  0.084620
 Thermal correction to Gibbs Free Energy=         0.039739
 Sum of electronic and zero-point Energies=          -1311.938508
 Sum of electronic and thermal Energies=             -1311.929706
 Sum of electronic and thermal Enthalpies=           -1311.928762
 Sum of electronic and thermal Free Energies=        -1311.973643

                     E (Thermal)             CV                S
                      KCal/Mol        Cal/Mol-Kelvin    Cal/Mol-Kelvin
 Total                   52.508             29.237             94.461
 Electronic               0.000              0.000              0.000
 Translational            0.889              2.981             41.192
 Rotational               0.889              2.981             29.524
 Vibrational             50.730             23.276             23.745
 Vibration     1          0.597              1.971              4.280
 Vibration     2          0.599              1.965              4.000
 Vibration     3          0.612              1.922              2.925
 Vibration     4          0.622              1.890              2.536
 Vibration     5          0.643              1.824              2.037
 Vibration     6          0.662              1.764              1.735
 Vibration     7          0.684              1.700              1.497
 Vibration     8          0.729              1.571              1.157
 Vibration     9          0.746              1.522              1.057
 Vibration    10          0.873              1.211              0.615
 Vibration    11          0.905              1.141              0.545

 Optimization completed.
    -- Stationary point found.
 Normal termination of Gaussian 16 at Wed Mar  2 00:12:27 2022.

 ------------------------------------------
 #p b3lyp/6-31G(d) geom=allcheck guess=read
 ------------------------------------------

 Structure from the checkpoint file:  "126.n.pdb.xyz.mst.wat.chk"
 -------------
 126.n.pdb.xyz
 -------------
 Charge =  0 Multiplicity = 1

 SCF Done:  E(RB3LYP) =  -1312.01179520     A.U. after   10 cycles
 Normal termination of Gaussian 16 at Wed Mar  2 00:12:45 2022.
 Gaussian 16:  ES64L-G16RevA.03 25-Dec-2016

 ----------------------------------------------------------------------
 #p b3lyp/6-31G(d) scrf=(iefpcm,read,solvent=water) geom=allcheck guess
 =read
 ----------------------------------------------------------------------

 Structure from the checkpoint file:  "126.n.pdb.xyz.mst.wat.chk"
 -------------
 126.n.pdb.xyz
 -------------
 Charge =  0 Multiplicity = 1

                         Standard orientation:
 ---------------------------------------------------------------------
 Center     Atomic      Atomic             Coordinates (Angstroms)
 Number     Number       Type             X           Y           Z
 ---------------------------------------------------------------------
      1          6           0       -2.943429    0.296042   -0.083113
      2          8           0       -1.576113    0.560875   -0.478159
      3          6           0       -0.659004   -0.298641    0.000387
      4          9           0       -0.656217   -0.340968    1.366074
      5          9           0       -0.910212   -1.582360   -0.404360
      6          6           0        0.732353    0.107214   -0.526212
      7         17           0        1.962160   -1.087406   -0.009237
      8         17           0        1.157115    1.753938    0.034591
      9          1           0       -3.252691   -0.685614   -0.443941
     10          1           0       -3.035720    0.351453    1.001855
     11          1           0       -3.534688    1.077305   -0.554886
     12          1           0        0.722686    0.121091   -1.610558
 ---------------------------------------------------------------------

 SCF Done:  E(RB3LYP) =  -1312.01307784     A.U. after   10 cycles

 The electronic state is 1-A.
 Alpha  occ. eigenvalues -- -101.56622-101.56611 -24.72480 -24.72455 -19.19953
 Alpha  occ. eigenvalues --  -10.42340 -10.32745 -10.24367  -9.48308  -9.48290
 Alpha  occ. eigenvalues --   -7.24755  -7.24739  -7.23695  -7.23676  -7.23669
 Alpha  occ. eigenvalues --   -7.23651  -1.27944  -1.21112  -1.08637  -0.92109
 Alpha  occ. eigenvalues --   -0.83857  -0.77016  -0.69172  -0.64064  -0.57981
 Alpha  occ. eigenvalues --   -0.56574  -0.55387  -0.48731  -0.47227  -0.46421
 Alpha  occ. eigenvalues --   -0.45370  -0.43715  -0.42060  -0.41018  -0.40560
 Alpha  occ. eigenvalues --   -0.36735  -0.34513  -0.33594  -0.32269  -0.31989
 Alpha  occ. eigenvalues --   -0.31357
 Alpha virt. eigenvalues --   -0.02084   0.00722   0.09836   0.11846   0.12608
 Alpha virt. eigenvalues --    0.14954   0.15719   0.18300   0.19824   0.20787
 Alpha virt. eigenvalues --    0.27676   0.32022   0.37505   0.41095   0.41602

 Mulliken charges:
               1
     1  C   -0.240838
     2  O   -0.474748
     3  C    0.847436
     4  F   -0.287184
     5  F   -0.291331
     6  C   -0.398954
     7  Cl  -0.003887
     8  Cl  -0.002902
     9  H    0.184342
    10  H    0.184840
    11  H    0.195618
    12  H    0.287607
 Sum of Mulliken charges =   0.00000

 Dipole moment (field-independent basis, Debye):
    X=             -2.9587    Y=              0.2603    Z=             -1.4802  Tot=              3.3185
 Quadrupole moment (field-independent basis, Debye-Ang):
   XX=            -50.3576   YY=            -61.3832   ZZ=            -57.5521
   XY=             -1.0535   XZ=             -1.0859   YZ=              0.2549

 Normal termination of Gaussian 16 at Wed Mar  2 00:13:08 2022.
