 Gaussian 16, Revision A.03,

 ----------------------------------------------------------------------
 #p b3lyp/6-31G(d) opt=(MaxStep=10,MaxCycles=1000) freq scf=(MaxCycle=2
 000,NoVarAcc,NoIncFock) scrf=(iefpcm,read,solvent=water)
 ----------------------------------------------------------------------

 -------------
 127.n.pdb.xyz
 -------------
 Symbolic Z-matrix:
 Charge =  0 Multiplicity = 1

 SCF Done:  E(RB3LYP) =  -1721.76548257     A.U. after   13 cycles
 SCF Done:  E(RB3LYP) =  -1721.76928522     A.U. after   10 cycles
 SCF Done:  E(RB3LYP) =  -1721.77198745     A.U. after   11 cycles
 SCF Done:  E(RB3LYP) =  -1721.77270739     A.U. after   10 cycles
 SCF Done:  E(RB3LYP) =  -1721.77051691     A.U. after   13 cycles
 SCF Done:  E(RB3LYP) =  -1721.77372540     A.U. after   11 cycles
 SCF Done:  E(RB3LYP) =  -1721.77354294     A.U. after   12 cycles
 SCF Done:  E(RB3LYP) =  -1721.77416568     A.U. after   11 cycles
 SCF Done:  E(RB3LYP) =  -1721.77415686     A.U. after   11 cycles
 SCF Done:  E(RB3LYP) =  -1721.77423628     A.U. after   10 cycles
 SCF Done:  E(RB3LYP) =  -1721.77425665     A.U. after    9 cycles
 SCF Done:  E(RB3LYP) =  -1721.77426037     A.U. after    8 cycles
 SCF Done:  E(RB3LYP) =  -1721.77425953     A.U. after    8 cycles
 SCF Done:  E(RB3LYP) =  -1721.77425991     A.U. after    7 cycles
 SCF Done:  E(RB3LYP) =  -1721.77426035     A.U. after    7 cycles
 SCF Done:  E(RB3LYP) =  -1721.77425976     A.U. after    7 cycles
 Optimization completed.
    -- Stationary point found.
 Normal termination of Gaussian 16 at Wed Mar  2 04:52:26 2022.

 --------------------------------------------------------------------
 #P Geom=AllCheck Guess=TCheck SCRF=Check GenChk RB3LYP/6-31G(d) Freq
 --------------------------------------------------------------------

 Structure from the checkpoint file:  "127.n.pdb.xyz.mst.wat.chk"
 -------------
 127.n.pdb.xyz
 -------------
 Charge =  0 Multiplicity = 1

 SCF Done:  E(RB3LYP) =  -1721.77425976     A.U. after    1 cycles

  Exact polarizability: 407.136 -14.407 517.328   0.024  17.947 223.272
 Approx polarizability: 449.002 -10.302 532.836   0.645  21.644 251.987

                      1                      2                      3
                      A                      A                      A
 Frequencies --     20.8418                30.2486                33.2707
 Red. masses --      4.2808                 4.3430                 4.7554
 Frc consts  --      0.0011                 0.0023                 0.0031
 IR Inten    --      0.0903                 0.4157                 0.1315

                      4                      5                      6
                      A                      A                      A
 Frequencies --     43.1495                57.5015                86.7743
 Red. masses --      3.5041                 4.9682                 5.1626
 Frc consts  --      0.0038                 0.0097                 0.0229
 IR Inten    --      3.4122                 0.9032                 1.4532

                      7                      8                      9
                      A                      A                      A
 Frequencies --    101.6833               110.6375               138.4495
 Red. masses --      3.2710                 4.4568                 3.6830
 Frc consts  --      0.0199                 0.0321                 0.0416
 IR Inten    --      0.2625                 0.2555                 0.9505

                     10                     11                     12
                      A                      A                      A
 Frequencies --    153.0154               155.0973               179.9695
 Red. masses --      4.4340                 4.9362                 3.0865
 Frc consts  --      0.0612                 0.0700                 0.0589
 IR Inten    --      0.9028                 0.8038                 1.7256

                     13                     14                     15
                      A                      A                      A
 Frequencies --    208.5959               217.9864               226.0160
 Red. masses --      1.6240                 2.8112                 1.1515
 Frc consts  --      0.0416                 0.0787                 0.0347
 IR Inten    --      0.6943                 1.3948                 0.5048

                     16                     17                     18
                      A                      A                      A
 Frequencies --    232.9722               248.1685               282.7650
 Red. masses --      1.9651                 4.2736                 6.3297
 Frc consts  --      0.0628                 0.1551                 0.2982
 IR Inten    --      1.3928                 1.5874                 0.0121

                     19                     20                     21
                      A                      A                      A
 Frequencies --    291.5936               297.6470               314.6527
 Red. masses --      5.0453                 1.8666                 2.5921
 Frc consts  --      0.2528                 0.0974                 0.1512
 IR Inten    --      3.0116                 1.6394                 0.3201

                     22                     23                     24
                      A                      A                      A
 Frequencies --    328.8118               356.3649               372.3051
 Red. masses --      3.0128                 4.0420                 4.4155
 Frc consts  --      0.1919                 0.3024                 0.3606
 IR Inten    --      0.8815                 0.4813                 3.3346

                     25                     26                     27
                      A                      A                      A
 Frequencies --    384.4153               424.8476               428.3406
 Red. masses --      5.4260                 3.1320                 2.1884
 Frc consts  --      0.4724                 0.3331                 0.2366
 IR Inten    --      4.0152                 0.5339                 0.7673

                     28                     29                     30
                      A                      A                      A
 Frequencies --    441.0573               443.6906               460.6874
 Red. masses --      4.8538                 4.1948                 3.2009
 Frc consts  --      0.5563                 0.4865                 0.4003
 IR Inten    --      3.8907                 9.8828                 4.1032

                     31                     32                     33
                      A                      A                      A
 Frequencies --    464.2359               489.4504               502.7215
 Red. masses --      3.2864                 3.6803                 4.0023
 Frc consts  --      0.4173                 0.5195                 0.5960
 IR Inten    --      3.3580                 4.6465                10.4236

                     34                     35                     36
                      A                      A                      A
 Frequencies --    543.7769               546.8812               555.3461
 Red. masses --      4.5109                 3.6413                 3.1663
 Frc consts  --      0.7859                 0.6417                 0.5753
 IR Inten    --      3.9421                 9.0072                 7.9995

                     37                     38                     39
                      A                      A                      A
 Frequencies --    584.9647               600.5523               624.3001
 Red. masses --      2.2466                 5.1330                 5.7127
 Frc consts  --      0.4529                 1.0907                 1.3118
 IR Inten    --     11.2469                 7.6614                 0.9260

                     40                     41                     42
                      A                      A                      A
 Frequencies --    657.8137               690.0565               714.6042
 Red. masses --      4.6612                 6.1263                 5.2572
 Frc consts  --      1.1884                 1.7188                 1.5817
 IR Inten    --      8.2304                 3.4818                 1.6539

                     43                     44                     45
                      A                      A                      A
 Frequencies --    721.8656               729.2749               738.1485
 Red. masses --      6.0363                 4.8334                 3.9017
 Frc consts  --      1.8533                 1.5146                 1.2525
 IR Inten    --      2.2018                 4.4435                 3.6227

                     46                     47                     48
                      A                      A                      A
 Frequencies --    763.8900               778.2421               787.3067
 Red. masses --      1.2978                 2.8610                 1.6861
 Frc consts  --      0.4462                 1.0209                 0.6158
 IR Inten    --     89.7412                 8.6276                 1.7031

                     49                     50                     51
                      A                      A                      A
 Frequencies --    809.8249               811.5091               834.0777
 Red. masses --      2.1399                 1.8751                 1.7374
 Frc consts  --      0.8269                 0.7275                 0.7121
 IR Inten    --     17.0946                29.7004                 5.5491

                     52                     53                     54
                      A                      A                      A
 Frequencies --    855.1713               863.0498               866.0761
 Red. masses --      1.7620                 2.0288                 1.6980
 Frc consts  --      0.7592                 0.8904                 0.7504
 IR Inten    --     67.2809                15.3977                19.3011

                     55                     56                     57
                      A                      A                      A
 Frequencies --    867.5097               913.6342               941.3633
 Red. masses --      1.3654                 1.9644                 1.4940
 Frc consts  --      0.6054                 0.9661                 0.7801
 IR Inten    --      0.6377                27.2989                11.1472

                     58                     59                     60
                      A                      A                      A
 Frequencies --    943.1248               945.1944               967.4415
 Red. masses --      1.3007                 2.2913                 2.0228
 Frc consts  --      0.6817                 1.2061                 1.1154
 IR Inten    --      1.8426                59.0481                 4.0100

                     61                     62                     63
                      A                      A                      A
 Frequencies --    981.8764               998.2640              1006.2866
 Red. masses --      1.2527                 1.1822                 2.1288
 Frc consts  --      0.7115                 0.6941                 1.2701
 IR Inten    --      0.1097                 7.9779                 8.6888

                     64                     65                     66
                      A                      A                      A
 Frequencies --   1009.5361              1022.6945              1027.9142
 Red. masses --      1.3046                 1.8224                 2.5178
 Frc consts  --      0.7834                 1.1230                 1.5674
 IR Inten    --     23.7578                11.9399                13.1272

                     67                     68                     69
                      A                      A                      A
 Frequencies --   1048.7513              1065.5735              1069.8009
 Red. masses --      1.9816                 5.6074                 5.9094
 Frc consts  --      1.2841                 3.7513                 3.9847
 IR Inten    --     24.9678                37.1298                11.8273

                     70                     71                     72
                      A                      A                      A
 Frequencies --   1079.1623              1082.4204              1114.9114
 Red. masses --      1.9709                 2.5687                 2.2791
 Frc consts  --      1.3523                 1.7732                 1.6691
 IR Inten    --      8.9265                28.6770                 3.8113

                     73                     74                     75
                      A                      A                      A
 Frequencies --   1122.3657              1123.9263              1142.4063
 Red. masses --      3.0837                 2.6011                 2.0942
 Frc consts  --      2.2887                 1.9359                 1.6103
 IR Inten    --     42.4863                22.3341                66.0484

                     76                     77                     78
                      A                      A                      A
 Frequencies --   1162.9206              1165.5490              1178.8828
 Red. masses --      1.4874                 1.5492                 1.6872
 Frc consts  --      1.1851                 1.2400                 1.3815
 IR Inten    --      9.6433                38.1165                42.0401

                     79                     80                     81
                      A                      A                      A
 Frequencies --   1194.2987              1197.9386              1203.8591
 Red. masses --      1.4610                 1.5243                 1.2003
 Frc consts  --      1.2278                 1.2888                 1.0250
 IR Inten    --     82.8025                16.0159                 0.1161

                     82                     83                     84
                      A                      A                      A
 Frequencies --   1217.1452              1230.2406              1272.7706
 Red. masses --      1.9118                 1.5783                 1.7274
 Frc consts  --      1.6687                 1.4074                 1.6487
 IR Inten    --     24.4774                96.6040                56.8273

                     85                     86                     87
                      A                      A                      A
 Frequencies --   1279.1574              1284.3683              1296.0324
 Red. masses --      2.3352                 1.5382                 1.3217
 Frc consts  --      2.2513                 1.4950                 1.3080
 IR Inten    --    119.3048                25.1983                20.8287

                     88                     89                     90
                      A                      A                      A
 Frequencies --   1308.5669              1327.0406              1332.6944
 Red. masses --      1.5134                 1.5598                 1.4525
 Frc consts  --      1.5269                 1.6184                 1.5200
 IR Inten    --     12.9162                37.4980                92.5299

                     91                     92                     93
                      A                      A                      A
 Frequencies --   1333.2710              1350.7094              1355.0249
 Red. masses --      6.2355                 8.2176                 1.4677
 Frc consts  --      6.5306                 8.8332                 1.5877
 IR Inten    --     28.0559                 4.7179                18.9667

                     94                     95                     96
                      A                      A                      A
 Frequencies --   1361.7504              1379.1962              1385.5257
 Red. masses --      1.2953                 1.4018                 1.3261
 Frc consts  --      1.4152                 1.5710                 1.4999
 IR Inten    --     33.5211                 8.0696                16.6971

                     97                     98                     99
                      A                      A                      A
 Frequencies --   1393.2715              1397.0428              1402.9019
 Red. masses --      1.3362                 1.3945                 1.5474
 Frc consts  --      1.5283                 1.6036                 1.7943
 IR Inten    --      1.7642               143.9608                13.5484

                    100                    101                    102
                      A                      A                      A
 Frequencies --   1407.0508              1409.8667              1426.2057
 Red. masses --      1.4033                 1.2909                 1.4180
 Frc consts  --      1.6369                 1.5118                 1.6993
 IR Inten    --     29.9735                13.9038                50.9701

                    103                    104                    105
                      A                      A                      A
 Frequencies --   1449.1568              1472.7672              1486.4210
 Red. masses --      2.5806                 1.1631                 2.2651
 Frc consts  --      3.1931                 1.4864                 2.9486
 IR Inten    --    141.4220                 0.6302                65.9836

                    106                    107                    108
                      A                      A                      A
 Frequencies --   1490.9586              1499.2261              1502.6728
 Red. masses --      1.0513                 1.0944                 1.0766
 Frc consts  --      1.3769                 1.4493                 1.4323
 IR Inten    --     14.6233                 2.5002                16.1938

                    109                    110                    111
                      A                      A                      A
 Frequencies --   1505.5167              1507.7465              1511.9669
 Red. masses --      1.0980                 1.4282                 1.2263
 Frc consts  --      1.4663                 1.9130                 1.6517
 IR Inten    --      3.7549               413.4507                35.1683

                    112                    113                    114
                      A                      A                      A
 Frequencies --   1512.0601              1520.2176              1526.0076
 Red. masses --      1.2637                 1.1039                 1.2996
 Frc consts  --      1.7022                 1.5031                 1.7831
 IR Inten    --     89.2537                 6.7166                33.2769

                    115                    116                    117
                      A                      A                      A
 Frequencies --   1534.1800              1541.4482              1544.8753
 Red. masses --      1.0493                 1.0892                 1.7880
 Frc consts  --      1.4552                 1.5248                 2.5142
 IR Inten    --      6.3972                 9.8667                 4.5863

                    118                    119                    120
                      A                      A                      A
 Frequencies --   1604.9897              1619.5162              1630.5581
 Red. masses --      5.9734                 5.4367                 5.8750
 Frc consts  --      9.0661                 8.4015                 9.2030
 IR Inten    --     43.1531               215.2639                39.6297

                    121                    122                    123
                      A                      A                      A
 Frequencies --   1649.2530              2991.8304              3003.4270
 Red. masses --      5.9847                 1.0576                 1.0816
 Frc consts  --      9.5911                 5.5778                 5.7486
 IR Inten    --     51.1892               125.5235                27.9944

                    124                    125                    126
                      A                      A                      A
 Frequencies --   3032.7802              3036.8951              3048.6636
 Red. masses --      1.0669                 1.0659                 1.0610
 Frc consts  --      5.7818                 5.7918                 5.8101
 IR Inten    --     44.2358                90.9787                67.5687

                    127                    128                    129
                      A                      A                      A
 Frequencies --   3049.8527              3081.8147              3083.6023
 Red. masses --      1.0626                 1.0676                 1.0872
 Frc consts  --      5.8233                 5.9742                 6.0910
 IR Inten    --     36.4096                19.9255                77.8304

                    130                    131                    132
                      A                      A                      A
 Frequencies --   3087.5762              3089.6773              3089.7366
 Red. masses --      1.0976                 1.0297                 1.0858
 Frc consts  --      6.1650                 5.7913                 6.1072
 IR Inten    --    102.6341                31.5878                33.9795

                    133                    134                    135
                      A                      A                      A
 Frequencies --   3093.9124              3095.1505              3098.3061
 Red. masses --      1.0723                 1.0847                 1.1012
 Frc consts  --      6.0476                 6.1226                 6.2285
 IR Inten    --    138.6834                56.4319               130.4243

                    136                    137                    138
                      A                      A                      A
 Frequencies --   3119.1398              3139.3866              3143.0960
 Red. masses --      1.1011                 1.1045                 1.1017
 Frc consts  --      6.3117                 6.4139                 6.4126
 IR Inten    --     20.8251                58.6723                61.3800

                    139                    140                    141
                      A                      A                      A
 Frequencies --   3178.6353              3187.8082              3207.4518
 Red. masses --      1.1087                 1.1051                 1.0868
 Frc consts  --      6.6000                 6.6168                 6.5873
 IR Inten    --     11.0771                 6.2997                 2.3115

                    142                    143                    144
                      A                      A                      A
 Frequencies --   3210.9597              3214.5516              3230.8755
 Red. masses --      1.0899                 1.0903                 1.0964
 Frc consts  --      6.6205                 6.6381                 6.7432
 IR Inten    --     15.3939                22.8834                47.9459

                    145                    146                    147
                      A                      A                      A
 Frequencies --   3250.6131              3259.8061              3271.1493
 Red. masses --      1.0913                 1.0883                 1.0897
 Frc consts  --      6.7943                 6.8137                 6.8700
 IR Inten    --      9.9838                 5.1138                11.5483

 - Thermochemistry -
 -------------------
 Temperature   298.150 Kelvin.  Pressure   1.00000 Atm.
 Atom     1 has atomic number  6 and mass  12.00000

 Molecular mass:   370.15374 amu.
 Principal axes and moments of inertia in atomic units:
                           1         2         3
     Eigenvalues --  9245.67253********************
           X            0.99952  -0.03083   0.00306
           Y            0.03083   0.99952   0.00032
           Z           -0.00307  -0.00022   1.00000
 This molecule is an asymmetric top.
 Rotational symmetry number  1.
 Warning -- assumption of classical behavior for rotation
           may cause significant error
 Rotational temperatures (Kelvin)      0.00937     0.00669     0.00414
 Rotational constants (GHZ):           0.19520     0.13940     0.08629
 Zero-point vibrational energy    1140868.8 (Joules/Mol)
                                  272.67419 (Kcal/Mol)
 Warning -- explicit consideration of  38 degrees of freedom as
           vibrations may cause significant error
 Vibrational temperatures:     29.99    43.52    47.87    62.08    82.73
          (Kelvin)            124.85   146.30   159.18   199.20   220.15
                              223.15   258.94   300.12   313.63   325.19
                              335.20   357.06   406.84   419.54   428.25
                              452.72   473.09   512.73   535.66   553.09
                              611.26   616.29   634.58   638.37   662.83
                              667.93   704.21   723.30   782.37   786.84
                              799.02   841.63   864.06   898.23   946.45
                              992.84  1028.16  1038.60  1049.26  1062.03
                             1099.07  1119.72  1132.76  1165.16  1167.58
                             1200.05  1230.40  1241.74  1246.09  1248.15
                             1314.52  1354.41  1356.95  1359.92  1391.93
                             1412.70  1436.28  1447.82  1452.50  1471.43
                             1478.94  1508.92  1533.12  1539.20  1552.67
                             1557.36  1604.11  1614.83  1617.08  1643.67
                             1673.18  1676.97  1696.15  1718.33  1723.57
                             1732.08  1751.20  1770.04  1831.23  1840.42
                             1847.92  1864.70  1882.74  1909.32  1917.45
                             1918.28  1943.37  1949.58  1959.26  1984.36
                             1993.46  2004.61  2010.03  2018.46  2024.43
                             2028.48  2051.99  2085.01  2118.98  2138.63
                             2145.16  2157.05  2162.01  2166.10  2169.31
                             2175.38  2175.52  2187.25  2195.58  2207.34
                             2217.80  2222.73  2309.22  2330.12  2346.01
                             2372.91  4304.58  4321.26  4363.49  4369.41
                             4386.35  4388.06  4434.04  4436.62  4442.33
                             4445.36  4445.44  4451.45  4453.23  4457.77
                             4487.75  4516.88  4522.21  4573.35  4586.55
                             4614.81  4619.85  4625.02  4648.51  4676.91
                             4690.13  4706.45

 Zero-point correction=                           0.434534 (Hartree/Particle)
 Thermal correction to Energy=                    0.457689
 Thermal correction to Enthalpy=                  0.458634
 Thermal correction to Gibbs Free Energy=         0.380899
 Sum of electronic and zero-point Energies=          -1721.339726
 Sum of electronic and thermal Energies=             -1721.316570
 Sum of electronic and thermal Enthalpies=           -1721.315626
 Sum of electronic and thermal Free Energies=        -1721.393360

                     E (Thermal)             CV                S
                      KCal/Mol        Cal/Mol-Kelvin    Cal/Mol-Kelvin
 Total                  287.204             91.889            163.605
 Electronic               0.000              0.000              0.000
 Translational            0.889              2.981             43.619
 Rotational               0.889              2.981             36.169
 Vibrational            285.427             85.927             83.817
 Vibration     1          0.593              1.986              6.552
 Vibration     2          0.594              1.984              5.813
 Vibration     3          0.594              1.983              5.624
 Vibration     4          0.595              1.980              5.109
 Vibration     5          0.596              1.975              4.541
 Vibration     6          0.601              1.958              3.732
 Vibration     7          0.604              1.948              3.422
 Vibration     8          0.606              1.941              3.258
 Vibration     9          0.614              1.915              2.825
 Vibration    10          0.619              1.899              2.634
 Vibration    11          0.620              1.897              2.609
 Vibration    12          0.629              1.867              2.329
 Vibration    13          0.642              1.828              2.056
 Vibration    14          0.646              1.814              1.976
 Vibration    15          0.650              1.801              1.910
 Vibration    16          0.654              1.790              1.856
 Vibration    17          0.662              1.766              1.744
 Vibration    18          0.682              1.706              1.517
 Vibration    19          0.687              1.689              1.465
 Vibration    20          0.691              1.678              1.430
 Vibration    21          0.702              1.646              1.338
 Vibration    22          0.712              1.618              1.266
 Vibration    23          0.732              1.562              1.138
 Vibration    24          0.744              1.529              1.070
 Vibration    25          0.753              1.503              1.022
 Vibration    26          0.787              1.416              0.876
 Vibration    27          0.790              1.409              0.864
 Vibration    28          0.801              1.381              0.823
 Vibration    29          0.803              1.375              0.815
 Vibration    30          0.819              1.337              0.764
 Vibration    31          0.822              1.329              0.754
 Vibration    32          0.845              1.273              0.685
 Vibration    33          0.858              1.244              0.651
 Vibration    34          0.899              1.153              0.557
 Vibration    35          0.902              1.147              0.551
 Vibration    36          0.911              1.128              0.533
 Vibration    37          0.942              1.064              0.476
 Vibration    38          0.959              1.031              0.449

 Optimization completed.
    -- Stationary point found.
 Normal termination of Gaussian 16 at Wed Mar  2 06:30:48 2022.

 ------------------------------------------
 #p b3lyp/6-31G(d) geom=allcheck guess=read
 ------------------------------------------

 Structure from the checkpoint file:  "127.n.pdb.xyz.mst.wat.chk"
 -------------
 127.n.pdb.xyz
 -------------
 Charge =  0 Multiplicity = 1

 SCF Done:  E(RB3LYP) =  -1721.76523012     A.U. after   11 cycles
 Normal termination of Gaussian 16 at Wed Mar  2 06:35:57 2022.
 Gaussian 16:  ES64L-G16RevA.03 25-Dec-2016

 ----------------------------------------------------------------------
 #p b3lyp/6-31G(d) scrf=(iefpcm,read,solvent=water) geom=allcheck guess
 =read
 ----------------------------------------------------------------------

 Structure from the checkpoint file:  "127.n.pdb.xyz.mst.wat.chk"
 -------------
 127.n.pdb.xyz
 -------------
 Charge =  0 Multiplicity = 1

                         Standard orientation:
 ---------------------------------------------------------------------
 Center     Atomic      Atomic             Coordinates (Angstroms)
 Number     Number       Type             X           Y           Z
 ---------------------------------------------------------------------
      1          6           0        3.037821   -5.171403    0.372828
      2         16           0        1.545165   -4.168557    0.078737
      3          6           0        2.188939   -2.507554   -0.014197
      4          6           0        3.543978   -2.196195    0.107385
      5          6           0        3.935730   -0.859209    0.008895
      6          6           0        3.009338    0.152767   -0.224182
      7         16           0        3.602488    1.792781   -0.567189
      8          6           0        2.210229    2.730287    0.020132
      9          6           0        0.905350    2.203924   -0.083501
     10          6           0       -0.161203    3.060987    0.241013
     11          6           0        0.062407    4.374843    0.654597
     12          6           0        1.357890    4.867524    0.785512
     13          6           0        2.429873    4.030942    0.473141
     14          7           0        0.678320    0.878876   -0.520265
     15          6           0       -0.687820    0.494239   -0.898723
     16          6           0       -1.627328    0.085963    0.251283
     17          6           0       -3.001293   -0.357104   -0.271237
     18          6           0       -3.848362    0.804354   -0.830466
     19          6           0       -5.174919    0.284655   -1.399343
     20          6           0       -5.916436   -0.573594   -0.369420
     21          6           0       -4.986288   -1.664110    0.187239
     22          7           0       -3.726298   -1.149009    0.747098
     23          6           0       -3.932700   -0.454865    2.017877
     24          6           0        1.630138   -0.141107   -0.311992
     25          6           0        1.246584   -1.485787   -0.205451
     26          1           0        3.521040   -4.891879    1.310198
     27          1           0        2.692190   -6.203775    0.439522
     28          1           0        3.743129   -5.080469   -0.454393
     29          1           0        4.286631   -2.966357    0.269172
     30          1           0        4.986713   -0.600928    0.086380
     31          1           0       -1.179421    2.706812    0.173038
     32          1           0       -0.790413    5.003848    0.886454
     33          1           0        1.537746    5.883114    1.119799
     34          1           0        3.450091    4.391575    0.554272
     35          1           0       -1.113147    1.334520   -1.451195
     36          1           0       -0.603051   -0.331203   -1.610159
     37          1           0       -1.189729   -0.744406    0.812775
     38          1           0       -1.735110    0.913522    0.957590
     39          1           0       -2.824698   -1.058658   -1.100914
     40          1           0       -4.045371    1.527767   -0.028884
     41          1           0       -3.289370    1.338652   -1.606701
     42          1           0       -4.967916   -0.321625   -2.291949
     43          1           0       -5.802477    1.119754   -1.728819
     44          1           0       -6.271906    0.061847    0.450876
     45          1           0       -6.803498   -1.036712   -0.817291
     46          1           0       -5.489863   -2.244164    0.967658
     47          1           0       -4.725254   -2.357868   -0.623253
     48          1           0       -4.532385    0.467136    1.948569
     49          1           0       -2.968064   -0.193686    2.458775
     50          1           0       -4.446194   -1.134387    2.704991
     51          1           0        0.202165   -1.756419   -0.267444
 ---------------------------------------------------------------------

 SCF Done:  E(RB3LYP) =  -1721.77323690     A.U. after   10 cycles

 The electronic state is 1-A.
 Alpha  occ. eigenvalues --  -88.89623 -88.88894 -14.37819 -14.31947 -10.24830
 Alpha  occ. eigenvalues --  -10.24524 -10.22960 -10.22620 -10.22544 -10.22451
 Alpha  occ. eigenvalues --  -10.21302 -10.21084 -10.20163 -10.19942 -10.19837
 Alpha  occ. eigenvalues --  -10.19757 -10.19493 -10.19437 -10.19369 -10.19348
 Alpha  occ. eigenvalues --  -10.18990 -10.18410 -10.17582 -10.17502 -10.17295
 Alpha  occ. eigenvalues --   -7.95695  -7.94994  -5.92195  -5.91837  -5.91509
 Alpha  occ. eigenvalues --   -5.91201  -5.91109  -5.90500  -0.97358  -0.91896
 Alpha  occ. eigenvalues --   -0.87220  -0.86295  -0.82275  -0.79236  -0.78740
 Alpha  occ. eigenvalues --   -0.78124  -0.76722  -0.74611  -0.74141  -0.72328
 Alpha  occ. eigenvalues --   -0.69556  -0.68626  -0.65586  -0.65164  -0.62242
 Alpha  occ. eigenvalues --   -0.61659  -0.60566  -0.60074  -0.58676  -0.55995
 Alpha  occ. eigenvalues --   -0.54635  -0.53586  -0.51291  -0.48732  -0.47991
 Alpha  occ. eigenvalues --   -0.47930  -0.47259  -0.46940  -0.45860  -0.44738
 Alpha  occ. eigenvalues --   -0.44489  -0.43977  -0.43684  -0.43312  -0.43240
 Alpha  occ. eigenvalues --   -0.42413  -0.41988  -0.40786  -0.40632  -0.40388
 Alpha  occ. eigenvalues --   -0.38945  -0.38325  -0.38133  -0.38004  -0.37392
 Alpha  occ. eigenvalues --   -0.36755  -0.36506  -0.35587  -0.35067  -0.34544
 Alpha  occ. eigenvalues --   -0.33894  -0.33461  -0.32999  -0.32419  -0.32251
 Alpha  occ. eigenvalues --   -0.31452  -0.31075  -0.30300  -0.27889  -0.26176
 Alpha  occ. eigenvalues --   -0.23932  -0.21613  -0.20492  -0.18543
 Alpha virt. eigenvalues --   -0.02277  -0.01374  -0.00842   0.01592   0.02724
 Alpha virt. eigenvalues --    0.03878   0.06592   0.08102   0.08643   0.09793
 Alpha virt. eigenvalues --    0.10478   0.11418   0.11905   0.12401   0.13122

 Mulliken charges:
               1
     1  C   -0.606261
     2  S    0.091091
     3  C   -0.080819
     4  C   -0.173087
     5  C   -0.186199
     6  C   -0.142630
     7  S    0.133571
     8  C   -0.135120
     9  C    0.327644
    10  C   -0.187230
    11  C   -0.166321
    12  C   -0.140934
    13  C   -0.194120
    14  N   -0.603596
    15  C   -0.182134
    16  C   -0.307535
    17  C    0.045249
    18  C   -0.280126
    19  C   -0.266908
    20  C   -0.269312
    21  C   -0.145924
    22  N   -0.418900
    23  C   -0.322096
    24  C    0.347275
    25  C   -0.231898
    26  H    0.203153
    27  H    0.207973
    28  H    0.203142
    29  H    0.160308
    30  H    0.163993
    31  H    0.158266
    32  H    0.154487
    33  H    0.151730
    34  H    0.160785
    35  H    0.178608
    36  H    0.177111
    37  H    0.159074
    38  H    0.159754
    39  H    0.131911
    40  H    0.141326
    41  H    0.142218
    42  H    0.134035
    43  H    0.137010
    44  H    0.140033
    45  H    0.136466
    46  H    0.141532
    47  H    0.138467
    48  H    0.135519
    49  H    0.161087
    50  H    0.153691
    51  H    0.164645
 Sum of Mulliken charges =  -0.00000

 Dipole moment (field-independent basis, Debye):
    X=             -2.0564    Y=             -0.3665    Z=              0.3977  Tot=              2.1263
 Quadrupole moment (field-independent basis, Debye-Ang):
   XX=           -146.3346   YY=           -148.3639   ZZ=           -167.4833
   XY=            -17.0251   XZ=              4.6453   YZ=              2.5464

 Normal termination of Gaussian 16 at Wed Mar  2 06:41:51 2022.
