 Gaussian 16, Revision A.03,

 ----------------------------------------------------------------------
 #p b3lyp/6-31G(d) opt=(MaxStep=10,MaxCycles=1000) freq scf=(MaxCycle=2
 000,NoVarAcc,NoIncFock) scrf=(iefpcm,read,solvent=water)
 ----------------------------------------------------------------------

 -------------
 128.n.pdb.xyz
 -------------
 Symbolic Z-matrix:
 Charge =  0 Multiplicity = 1

 SCF Done:  E(RB3LYP) =  -883.206873249     A.U. after   12 cycles
 SCF Done:  E(RB3LYP) =  -883.210377238     A.U. after   11 cycles
 SCF Done:  E(RB3LYP) =  -883.208266283     A.U. after   11 cycles
 SCF Done:  E(RB3LYP) =  -883.210947830     A.U. after   11 cycles
 SCF Done:  E(RB3LYP) =  -883.211408485     A.U. after   11 cycles
 SCF Done:  E(RB3LYP) =  -883.211484317     A.U. after   10 cycles
 SCF Done:  E(RB3LYP) =  -883.211257661     A.U. after   11 cycles
 SCF Done:  E(RB3LYP) =  -883.211244797     A.U. after   11 cycles
 SCF Done:  E(RB3LYP) =  -883.211512904     A.U. after   11 cycles
 SCF Done:  E(RB3LYP) =  -883.211700213     A.U. after   10 cycles
 SCF Done:  E(RB3LYP) =  -883.211871168     A.U. after    7 cycles
 SCF Done:  E(RB3LYP) =  -883.211863232     A.U. after    9 cycles
 SCF Done:  E(RB3LYP) =  -883.211869776     A.U. after    9 cycles
 SCF Done:  E(RB3LYP) =  -883.211868873     A.U. after    7 cycles
 SCF Done:  E(RB3LYP) =  -883.211868157     A.U. after    7 cycles
 SCF Done:  E(RB3LYP) =  -883.211867481     A.U. after    7 cycles
 SCF Done:  E(RB3LYP) =  -883.211867342     A.U. after    6 cycles
 Optimization completed.
    -- Stationary point found.
 Normal termination of Gaussian 16 at Wed Mar  2 05:28:11 2022.

 --------------------------------------------------------------------
 #P Geom=AllCheck Guess=TCheck SCRF=Check GenChk RB3LYP/6-31G(d) Freq
 --------------------------------------------------------------------

 Structure from the checkpoint file:  "128.n.pdb.xyz.mst.wat.chk"
 -------------
 128.n.pdb.xyz
 -------------
 Charge =  0 Multiplicity = 1

 SCF Done:  E(RB3LYP) =  -883.211867342     A.U. after    1 cycles

  Exact polarizability: 250.857 -16.330 212.914  15.120  12.235 192.594
 Approx polarizability: 255.022 -18.774 233.556  18.727  19.920 212.546

                      1                      2                      3
                      A                      A                      A
 Frequencies --     22.9724                30.2273                34.0895
 Red. masses --      3.6195                 2.9931                 7.1538
 Frc consts  --      0.0011                 0.0016                 0.0049
 IR Inten    --      0.0085                 0.0080                 1.6259

                      4                      5                      6
                      A                      A                      A
 Frequencies --     41.4764                71.4582                91.0690
 Red. masses --      3.9696                 2.9466                 1.7409
 Frc consts  --      0.0040                 0.0089                 0.0085
 IR Inten    --      0.2368                 0.2476                 0.0177

                      7                      8                      9
                      A                      A                      A
 Frequencies --    108.2855               119.7064               133.7437
 Red. masses --      3.1289                 2.7227                 5.7496
 Frc consts  --      0.0216                 0.0230                 0.0606
 IR Inten    --      0.0190                 0.1710                 0.5122

                     10                     11                     12
                      A                      A                      A
 Frequencies --    141.5925               147.0653               156.4890
 Red. masses --      3.0167                 3.6668                 2.1077
 Frc consts  --      0.0356                 0.0467                 0.0304
 IR Inten    --      3.4032                 7.5417                 0.5426

                     13                     14                     15
                      A                      A                      A
 Frequencies --    165.7839               170.2298               183.3356
 Red. masses --      2.3950                 2.2016                 3.4878
 Frc consts  --      0.0388                 0.0376                 0.0691
 IR Inten    --      0.9272                 1.3015                 0.1980

                     16                     17                     18
                      A                      A                      A
 Frequencies --    208.8389               238.6865               266.8393
 Red. masses --      1.4624                 2.0419                 2.0946
 Frc consts  --      0.0376                 0.0685                 0.0879
 IR Inten    --      1.9753                 1.4442                 1.2908

                     19                     20                     21
                      A                      A                      A
 Frequencies --    270.1865               286.3153               314.5736
 Red. masses --      2.7322                 1.9979                 2.6151
 Frc consts  --      0.1175                 0.0965                 0.1525
 IR Inten    --      5.1116                 1.9343                 4.9148

                     22                     23                     24
                      A                      A                      A
 Frequencies --    350.7457               387.2901               405.4170
 Red. masses --      3.6353                 9.1546                 3.3096
 Frc consts  --      0.2635                 0.8090                 0.3205
 IR Inten    --     11.5513                65.4116                10.1682

                     25                     26                     27
                      A                      A                      A
 Frequencies --    410.1662               424.8659               496.0857
 Red. masses --      7.0084                 3.3319                 2.6787
 Frc consts  --      0.6947                 0.3544                 0.3884
 IR Inten    --      0.5380                 9.5222                 2.5260

                     28                     29                     30
                      A                      A                      A
 Frequencies --    504.1309               540.9110               625.9032
 Red. masses --      8.8789                 4.6318                 1.2538
 Frc consts  --      1.3295                 0.7985                 0.2894
 IR Inten    --     22.0488                56.8635                 4.9188

                     31                     32                     33
                      A                      A                      A
 Frequencies --    638.0492               667.5049               684.6422
 Red. masses --      4.6631                 1.1693                 3.4308
 Frc consts  --      1.1185                 0.3070                 0.9475
 IR Inten    --      1.6263               272.4325                14.1139

                     34                     35                     36
                      A                      A                      A
 Frequencies --    725.7385               737.0313               744.8088
 Red. masses --      4.4920                 1.0820                 1.8011
 Frc consts  --      1.3940                 0.3463                 0.5887
 IR Inten    --     72.8013                 8.8992                44.1614

                     37                     38                     39
                      A                      A                      A
 Frequencies --    747.8206               754.2544               764.2866
 Red. masses --      2.0164                 5.9686                 1.4806
 Frc consts  --      0.6644                 2.0006                 0.5096
 IR Inten    --     16.5599                12.9942                 3.3084

                     40                     41                     42
                      A                      A                      A
 Frequencies --    775.0333               786.4586               801.6685
 Red. masses --      3.2116                 1.4129                 1.2805
 Frc consts  --      1.1366                 0.5149                 0.4849
 IR Inten    --      2.0908                 1.0920                16.1780

                     43                     44                     45
                      A                      A                      A
 Frequencies --    857.4378               886.0950               931.9794
 Red. masses --      1.5378                 2.0332                 1.6107
 Frc consts  --      0.6661                 0.9406                 0.8243
 IR Inten    --      2.8493                 2.6056                 2.1966

                     46                     47                     48
                      A                      A                      A
 Frequencies --    953.6264               976.1803               984.5105
 Red. masses --      2.5067                 1.9637                 1.7161
 Frc consts  --      1.3431                 1.1025                 0.9800
 IR Inten    --      2.3062                 1.3956                 1.0045

                     49                     50                     51
                      A                      A                      A
 Frequencies --   1001.4630              1028.9121              1041.7347
 Red. masses --      1.9757                 3.2575                 1.4430
 Frc consts  --      1.1675                 2.0319                 0.9226
 IR Inten    --      5.8240                 2.6545                 2.2348

                     52                     53                     54
                      A                      A                      A
 Frequencies --   1045.6040              1051.7123              1070.0681
 Red. masses --      2.6153                 2.7604                 2.2615
 Frc consts  --      1.6846                 1.7989                 1.5257
 IR Inten    --      2.2226                 2.2884                 0.6431

                     55                     56                     57
                      A                      A                      A
 Frequencies --   1076.4987              1082.1323              1091.8606
 Red. masses --      2.3149                 2.6326                 2.1311
 Frc consts  --      1.5805                 1.8163                 1.4969
 IR Inten    --      0.3580                 0.1339                 0.8243

                     58                     59                     60
                      A                      A                      A
 Frequencies --   1134.9513              1149.4722              1173.2400
 Red. masses --      2.1590                 2.9322                 2.2824
 Frc consts  --      1.6386                 2.2827                 1.8510
 IR Inten    --     11.6876                12.2616                12.8577

                     61                     62                     63
                      A                      A                      A
 Frequencies --   1190.0043              1212.9971              1245.1277
 Red. masses --      2.1048                 1.6421                 1.8496
 Frc consts  --      1.7561                 1.4236                 1.6895
 IR Inten    --     15.6008                10.3946                52.4668

                     64                     65                     66
                      A                      A                      A
 Frequencies --   1256.1803              1274.8653              1295.8231
 Red. masses --      1.7678                 1.4686                 1.2721
 Frc consts  --      1.6436                 1.4064                 1.2585
 IR Inten    --     49.7652                21.2598                 4.7582

                     67                     68                     69
                      A                      A                      A
 Frequencies --   1306.0462              1315.7481              1325.1936
 Red. masses --      1.2705                 1.2896                 1.2898
 Frc consts  --      1.2768                 1.3154                 1.3345
 IR Inten    --     49.7617                21.4242                77.5535

                     70                     71                     72
                      A                      A                      A
 Frequencies --   1333.5509              1339.1475              1346.8201
 Red. masses --      1.1109                 1.0952                 1.2066
 Frc consts  --      1.1640                 1.1572                 1.2895
 IR Inten    --      5.5327                 3.1011                80.8700

                     73                     74                     75
                      A                      A                      A
 Frequencies --   1361.6224              1366.2176              1374.1738
 Red. masses --      1.3616                 1.9176                 1.6727
 Frc consts  --      1.4874                 2.1088                 1.8610
 IR Inten    --     39.5475               383.1123               180.8447

                     76                     77                     78
                      A                      A                      A
 Frequencies --   1389.0922              1397.2320              1417.4355
 Red. masses --      1.4000                 1.5083                 1.5436
 Frc consts  --      1.5917                 1.7349                 1.8272
 IR Inten    --     10.3697                10.3300                 5.4344

                     79                     80                     81
                      A                      A                      A
 Frequencies --   1421.9482              1422.2150              1427.6129
 Red. masses --      2.7367                 1.6936                 1.2716
 Frc consts  --      3.2602                 2.0183                 1.5269
 IR Inten    --    211.7085                30.7544                 5.6849

                     82                     83                     84
                      A                      A                      A
 Frequencies --   1431.9279              1444.8175              1470.9807
 Red. masses --      1.2901                 2.2759                 2.2547
 Frc consts  --      1.5586                 2.7992                 2.8744
 IR Inten    --      5.1172               305.5542               136.0076

                     85                     86                     87
                      A                      A                      A
 Frequencies --   1497.7978              1502.8397              1503.7523
 Red. masses --      1.0764                 1.0689                 1.0675
 Frc consts  --      1.4228                 1.4224                 1.4222
 IR Inten    --      0.2204                 0.8620                 1.2394

                     88                     89                     90
                      A                      A                      A
 Frequencies --   1506.0755              1507.7436              1509.2196
 Red. masses --      1.0537                 1.0770                 1.0704
 Frc consts  --      1.4082                 1.4425                 1.4365
 IR Inten    --      4.6575                 1.0413                 7.8877

                     91                     92                     93
                      A                      A                      A
 Frequencies --   1515.7831              1520.1000              1524.2903
 Red. masses --      1.0660                 1.0714                 1.0674
 Frc consts  --      1.4430                 1.4586                 1.4612
 IR Inten    --      0.8739                 8.8027                10.3025

                     94                     95                     96
                      A                      A                      A
 Frequencies --   1527.9193              1531.4297              1540.6594
 Red. masses --      1.0728                 1.0971                 1.0970
 Frc consts  --      1.4756                 1.5159                 1.5341
 IR Inten    --      5.5651                 1.2575                 5.7249

                     97                     98                     99
                      A                      A                      A
 Frequencies --   1747.5773              1765.4385              1811.2834
 Red. masses --      9.6952                 6.8979                11.7674
 Frc consts  --     17.4454                12.6669                22.7459
 IR Inten    --    707.9764              1326.5723               237.1165

                    100                    101                    102
                      A                      A                      A
 Frequencies --   3022.4734              3026.0404              3028.9306
 Red. masses --      1.0585                 1.0596                 1.0595
 Frc consts  --      5.6971                 5.7168                 5.7270
 IR Inten    --      6.2512                16.4227                 3.2570

                    103                    104                    105
                      A                      A                      A
 Frequencies --   3033.5853              3036.3521              3046.0038
 Red. masses --      1.0622                 1.0653                 1.0966
 Frc consts  --      5.7591                 5.7866                 5.9945
 IR Inten    --    217.1108                40.8996                 5.2229

                    106                    107                    108
                      A                      A                      A
 Frequencies --   3052.2893              3055.2331              3056.9948
 Red. masses --      1.0468                 1.0683                 1.0841
 Frc consts  --      5.7462                 5.8753                 5.9691
 IR Inten    --     46.8433                15.9222                37.8346

                    109                    110                    111
                      A                      A                      A
 Frequencies --   3058.7643              3064.8884              3069.7486
 Red. masses --      1.0719                 1.0909                 1.0856
 Frc consts  --      5.9086                 6.0379                 6.0272
 IR Inten    --      0.6896                56.0455                22.8902

                    112                    113                    114
                      A                      A                      A
 Frequencies --   3070.9095              3072.1252              3082.1751
 Red. masses --      1.0413                 1.0879                 1.1042
 Frc consts  --      5.7857                 6.0494                 6.1801
 IR Inten    --     39.9650                78.4788               319.3965

                    115                    116                    117
                      A                      A                      A
 Frequencies --   3114.8523              3115.7909              3121.6321
 Red. masses --      1.1017                 1.0936                 1.0950
 Frc consts  --      6.2976                 6.2551                 6.2866
 IR Inten    --     84.9406                 2.1558                11.8010

                    118                    119                    120
                      A                      A                      A
 Frequencies --   3124.6546              3132.7050              3136.7845
 Red. masses --      1.1021                 1.1019                 1.0984
 Frc consts  --      6.3398                 6.3715                 6.3677
 IR Inten    --     83.0442                71.5448                56.5446

                    121                    122                    123
                      A                      A                      A
 Frequencies --   3159.0086              3558.7990              3561.6969
 Red. masses --      1.1014                 1.0772                 1.0801
 Frc consts  --      6.4758                 8.0379                 8.0727
 IR Inten    --     37.2923               243.2501               119.6297

 - Thermochemistry -
 -------------------
 Temperature   298.150 Kelvin.  Pressure   1.00000 Atm.
 Atom     1 has atomic number  6 and mass  12.00000

 Molecular mass:   268.17869 amu.
 Principal axes and moments of inertia in atomic units:
                           1         2         3
     Eigenvalues --  2169.68164********************
           X            0.99995   0.00789  -0.00675
           Y           -0.00845   0.99624  -0.08623
           Z            0.00605   0.08628   0.99625
 This molecule is an asymmetric top.
 Rotational symmetry number  1.
 Warning -- assumption of classical behavior for rotation
           may cause significant error
 Rotational temperatures (Kelvin)      0.03992     0.00551     0.00532
 Rotational constants (GHZ):           0.83180     0.11490     0.11085
 Zero-point vibrational energy     989278.1 (Joules/Mol)
                                  236.44314 (Kcal/Mol)
 Warning -- explicit consideration of  29 degrees of freedom as
           vibrations may cause significant error
 Vibrational temperatures:     33.05    43.49    49.05    59.68   102.81
          (Kelvin)            131.03   155.80   172.23   192.43   203.72
                              211.59   225.15   238.53   244.92   263.78
                              300.47   343.42   383.92   388.74   411.94
                              452.60   504.64   557.22   583.30   590.14
                              611.29   713.76   725.33   778.25   900.54
                              918.01   960.39   985.05  1044.18  1060.42
                             1071.61  1075.95  1085.20  1099.64  1115.10
                             1131.54  1153.42  1233.66  1274.89  1340.91
                             1372.06  1404.51  1416.49  1440.88  1480.37
                             1498.82  1504.39  1513.18  1539.59  1548.84
                             1556.95  1570.94  1632.94  1653.83  1688.03
                             1712.15  1745.23  1791.46  1807.36  1834.25
                             1864.40  1879.11  1893.07  1906.66  1918.68
                             1926.73  1937.77  1959.07  1965.68  1977.13
                             1998.59  2010.31  2039.37  2045.87  2046.25
                             2054.02  2060.22  2078.77  2116.41  2155.00
                             2162.25  2163.56  2166.91  2169.31  2171.43
                             2180.87  2187.08  2193.11  2198.34  2203.39
                             2216.67  2514.37  2540.07  2606.03  4348.67
                             4353.80  4357.96  4364.65  4368.63  4382.52
                             4391.56  4395.80  4398.33  4400.88  4409.69
                             4416.68  4418.35  4420.10  4434.56  4481.58
                             4482.93  4491.33  4495.68  4507.26  4513.13
                             4545.11  5120.32  5124.49

 Zero-point correction=                           0.376796 (Hartree/Particle)
 Thermal correction to Energy=                    0.397795
 Thermal correction to Enthalpy=                  0.398739
 Thermal correction to Gibbs Free Energy=         0.324968
 Sum of electronic and zero-point Energies=           -882.835071
 Sum of electronic and thermal Energies=              -882.814073
 Sum of electronic and thermal Enthalpies=            -882.813128
 Sum of electronic and thermal Free Energies=         -882.886899

                     E (Thermal)             CV                S
                      KCal/Mol        Cal/Mol-Kelvin    Cal/Mol-Kelvin
 Total                  249.620             77.013            155.263
 Electronic               0.000              0.000              0.000
 Translational            0.889              2.981             42.659
 Rotational               0.889              2.981             34.672
 Vibrational            247.842             71.052             77.933
 Vibration     1          0.593              1.985              6.359
 Vibration     2          0.594              1.984              5.814
 Vibration     3          0.594              1.983              5.576
 Vibration     4          0.594              1.981              5.187
 Vibration     5          0.598              1.968              4.113
 Vibration     6          0.602              1.956              3.637
 Vibration     7          0.606              1.943              3.299
 Vibration     8          0.609              1.933              3.105
 Vibration     9          0.613              1.920              2.891
 Vibration    10          0.615              1.912              2.782
 Vibration    11          0.617              1.906              2.710
 Vibration    12          0.620              1.895              2.592
 Vibration    13          0.624              1.885              2.483
 Vibration    14          0.625              1.879              2.433
 Vibration    15          0.631              1.863              2.294
 Vibration    16          0.642              1.827              2.054
 Vibration    17          0.657              1.781              1.813
 Vibration    18          0.672              1.734              1.617
 Vibration    19          0.674              1.728              1.595
 Vibration    20          0.684              1.699              1.496
 Vibration    21          0.702              1.646              1.338
 Vibration    22          0.728              1.574              1.163
 Vibration    23          0.756              1.497              1.011
 Vibration    24          0.770              1.458              0.943
 Vibration    25          0.774              1.448              0.926
 Vibration    26          0.787              1.416              0.876
 Vibration    27          0.852              1.259              0.668
 Vibration    28          0.859              1.241              0.648
 Vibration    29          0.896              1.160              0.563

                           ! Non-Optimized Parameters !
 Normal termination of Gaussian 16 at Wed Mar  2 06:11:49 2022.

 ------------------------------------------
 #p b3lyp/6-31G(d) geom=allcheck guess=read
 ------------------------------------------

 Structure from the checkpoint file:  "128.n.pdb.xyz.mst.wat.chk"
 -------------
 128.n.pdb.xyz
 -------------
 Charge =  0 Multiplicity = 1

 SCF Done:  E(RB3LYP) =  -883.191890658     A.U. after   11 cycles
 Normal termination of Gaussian 16 at Wed Mar  2 06:14:35 2022.
 Gaussian 16:  ES64L-G16RevA.03 25-Dec-2016

 ----------------------------------------------------------------------
 #p b3lyp/6-31G(d) scrf=(iefpcm,read,solvent=water) geom=allcheck guess
 =read
 ----------------------------------------------------------------------

 Structure from the checkpoint file:  "128.n.pdb.xyz.mst.wat.chk"
 -------------
 128.n.pdb.xyz
 -------------
 Charge =  0 Multiplicity = 1

                         Standard orientation:
 ---------------------------------------------------------------------
 Center     Atomic      Atomic             Coordinates (Angstroms)
 Number     Number       Type             X           Y           Z
 ---------------------------------------------------------------------
      1          6           0       -7.320759   -1.025576    1.122605
      2          6           0       -7.066223    0.062125    0.074995
      3          6           0       -5.724588   -0.078270   -0.658142
      4          6           0       -4.493996    0.099478    0.238149
      5          6           0       -3.168992   -0.014059   -0.522512
      6          6           0       -1.935313    0.162370    0.368434
      7          6           0       -0.613935    0.067312   -0.402757
      8          6           0        0.593355    0.243789    0.522879
      9          6           0        2.000818    0.290094   -0.143002
     10          6           0        2.057808    1.285322   -1.357206
     11          6           0        1.624920    2.721148   -1.064459
     12          6           0        2.365369   -1.075132   -0.728044
     13          8           0        1.625184   -1.681644   -1.488923
     14          7           0        3.604760   -1.599541   -0.415892
     15          6           0        4.565319   -1.052629    0.415538
     16          8           0        5.646640   -1.583574    0.608190
     17          7           0        4.201633    0.136811    1.019929
     18          6           0        2.988045    0.787547    0.915768
     19          8           0        2.752483    1.754413    1.626359
     20          1           0       -6.556274   -1.016132    1.905929
     21          1           0       -8.293496   -0.890109    1.606199
     22          1           0       -7.311688   -2.021194    0.664317
     23          1           0       -7.112359    1.048942    0.554474
     24          1           0       -7.877035    0.044084   -0.663457
     25          1           0       -5.680393   -1.063759   -1.142411
     26          1           0       -5.682394    0.661467   -1.468506
     27          1           0       -4.512520   -0.645502    1.043798
     28          1           0       -4.546401    1.081033    0.729437
     29          1           0       -3.146949    0.736848   -1.324323
     30          1           0       -3.118650   -0.992338   -1.020488
     31          1           0       -1.949971   -0.597432    1.161946
     32          1           0       -1.990255    1.134732    0.876641
     33          1           0       -0.547713   -0.895052   -0.916070
     34          1           0       -0.597071    0.838029   -1.182363
     35          1           0        0.597010   -0.556098    1.273831
     36          1           0        0.492005    1.180394    1.076654
     37          1           0        1.419047    0.852992   -2.130962
     38          1           0        3.079546    1.283538   -1.755888
     39          1           0        0.581459    2.769529   -0.738600
     40          1           0        2.242464    3.178027   -0.289056
     41          1           0        1.718312    3.317824   -1.976608
     42          1           0        3.852530   -2.482236   -0.856236
     43          1           0        4.870627    0.516835    1.685008
 ---------------------------------------------------------------------

 SCF Done:  E(RB3LYP) =  -883.210521508     A.U. after   10 cycles

 The electronic state is 1-A.
 Alpha  occ. eigenvalues --  -19.14623 -19.14570 -19.14466 -14.39187 -14.39176
 Alpha  occ. eigenvalues --  -10.35010 -10.31905 -10.31861 -10.23098 -10.20040
 Alpha  occ. eigenvalues --  -10.19009 -10.17525 -10.17420 -10.17420 -10.17393
 Alpha  occ. eigenvalues --  -10.17250 -10.17172 -10.17106 -10.16764  -1.08844
 Alpha  occ. eigenvalues --   -1.06165  -1.05839  -0.96409  -0.92381  -0.83609
 Alpha  occ. eigenvalues --   -0.80290  -0.77874  -0.74669  -0.73151  -0.69374
 Alpha  occ. eigenvalues --   -0.67366  -0.65316  -0.64425  -0.62554  -0.60369
 Alpha  occ. eigenvalues --   -0.57610  -0.56208  -0.55849  -0.54978  -0.49681
 Alpha  occ. eigenvalues --   -0.48881  -0.48372  -0.47095  -0.46616  -0.45383
 Alpha  occ. eigenvalues --   -0.44719  -0.44368  -0.44204  -0.43245  -0.42824
 Alpha  occ. eigenvalues --   -0.41600  -0.40619  -0.39606  -0.38959  -0.38614
 Alpha  occ. eigenvalues --   -0.38060  -0.36762  -0.36159  -0.35854  -0.35306
 Alpha  occ. eigenvalues --   -0.34371  -0.33856  -0.33355  -0.32344  -0.32039
 Alpha  occ. eigenvalues --   -0.31527  -0.31178  -0.30838  -0.29843  -0.29418
 Alpha  occ. eigenvalues --   -0.29375  -0.28091  -0.26282
 Alpha virt. eigenvalues --   -0.04134  -0.00218   0.06588   0.08654   0.09539
 Alpha virt. eigenvalues --    0.10269   0.11279   0.11804   0.12075   0.12816
 Alpha virt. eigenvalues --    0.13457   0.13867   0.15074   0.15795   0.16215

 Mulliken charges:
               1
     1  C   -0.452817
     2  C   -0.250871
     3  C   -0.252248
     4  C   -0.256797
     5  C   -0.256264
     6  C   -0.260277
     7  C   -0.270417
     8  C   -0.285651
     9  C   -0.134725
    10  C   -0.278553
    11  C   -0.459933
    12  C    0.660359
    13  O   -0.531723
    14  N   -0.667037
    15  C    0.787899
    16  O   -0.539324
    17  N   -0.671996
    18  C    0.671963
    19  O   -0.535410
    20  H    0.149479
    21  H    0.143262
    22  H    0.142968
    23  H    0.130790
    24  H    0.131372
    25  H    0.127249
    26  H    0.128101
    27  H    0.134470
    28  H    0.127901
    29  H    0.129107
    30  H    0.129580
    31  H    0.131643
    32  H    0.130538
    33  H    0.153690
    34  H    0.139416
    35  H    0.154405
    36  H    0.167767
    37  H    0.176875
    38  H    0.161679
    39  H    0.158592
    40  H    0.166504
    41  H    0.156938
    42  H    0.405808
    43  H    0.405685
 Sum of Mulliken charges =  -0.00000

 Dipole moment (field-independent basis, Debye):
    X=             -0.0090    Y=              0.4920    Z=             -0.5194  Tot=              0.7155
 Quadrupole moment (field-independent basis, Debye-Ang):
   XX=           -122.9887   YY=           -120.0978   ZZ=           -118.8305
   XY=              3.3013   XZ=             -3.9057   YZ=             -5.6665

 Normal termination of Gaussian 16 at Wed Mar  2 06:17:52 2022.
