 Gaussian 16, Revision A.03,

 ----------------------------------------------------------------------
 #p b3lyp/6-31G(d) opt=(MaxStep=10,MaxCycles=1000) freq scf=(MaxCycle=2
 000,NoVarAcc,NoIncFock) scrf=(iefpcm,read,solvent=water)
 ----------------------------------------------------------------------

 -------------
 129.n.pdb.xyz
 -------------
 Symbolic Z-matrix:
 Charge =  0 Multiplicity = 1

 SCF Done:  E(RB3LYP) =  -1150.12115859     A.U. after   11 cycles
 SCF Done:  E(RB3LYP) =  -1150.12559665     A.U. after   10 cycles
 SCF Done:  E(RB3LYP) =  -1150.12703924     A.U. after   10 cycles
 SCF Done:  E(RB3LYP) =  -1150.12745015     A.U. after    9 cycles
 SCF Done:  E(RB3LYP) =  -1150.12750606     A.U. after    9 cycles
 SCF Done:  E(RB3LYP) =  -1150.12750661     A.U. after    9 cycles
 SCF Done:  E(RB3LYP) =  -1150.12750433     A.U. after    8 cycles
 SCF Done:  E(RB3LYP) =  -1150.12750181     A.U. after    8 cycles
 SCF Done:  E(RB3LYP) =  -1150.12750683     A.U. after    8 cycles
 SCF Done:  E(RB3LYP) =  -1150.12750619     A.U. after    9 cycles
 SCF Done:  E(RB3LYP) =  -1150.12750836     A.U. after    7 cycles
 SCF Done:  E(RB3LYP) =  -1150.12750929     A.U. after    7 cycles
 Optimization completed.
    -- Stationary point found.
 Normal termination of Gaussian 16 at Wed Mar  2 04:22:16 2022.

 --------------------------------------------------------------------
 #P Geom=AllCheck Guess=TCheck SCRF=Check GenChk RB3LYP/6-31G(d) Freq
 --------------------------------------------------------------------

 Structure from the checkpoint file:  "129.n.pdb.xyz.mst.wat.chk"
 -------------
 129.n.pdb.xyz
 -------------
 Charge =  0 Multiplicity = 1

 SCF Done:  E(RB3LYP) =  -1150.12750929     A.U. after    1 cycles

  Exact polarizability:  70.762   6.775  50.572  -3.030  -1.323  47.096
 Approx polarizability:  74.287   9.467  63.342  -5.450  -0.826  55.430

                      1                      2                      3
                      A                      A                      A
 Frequencies --     33.9856                45.6473                67.4561
 Red. masses --     11.6379                16.6832                16.0093
 Frc consts  --      0.0079                 0.0205                 0.0429
 IR Inten    --      3.4822                 0.5378                 0.1811

                      4                      5                      6
                      A                      A                      A
 Frequencies --    118.6074               217.2807               235.5912
 Red. masses --     14.4594                14.8597                19.4095
 Frc consts  --      0.1198                 0.4133                 0.6347
 IR Inten    --      2.4433                 8.4840                 1.5749

                      7                      8                      9
                      A                      A                      A
 Frequencies --    261.5506               347.6276               392.1488
 Red. masses --     15.1199                17.4724                16.4890
 Frc consts  --      0.6094                 1.2440                 1.4940
 IR Inten    --      1.7364                 0.0878                 3.0897

                     10                     11                     12
                      A                      A                      A
 Frequencies --    437.8449               502.3083               559.2088
 Red. masses --     12.5123                 9.8506                12.2965
 Frc consts  --      1.4133                 1.4644                 2.2656
 IR Inten    --     10.6633                17.1363                17.4259

                     13                     14                     15
                      A                      A                      A
 Frequencies --    564.1628               660.6152               747.1276
 Red. masses --     15.2126                13.7294                 8.4543
 Frc consts  --      2.8527                 3.5302                 2.7805
 IR Inten    --     18.6359                 8.2667               127.1385

                     16                     17                     18
                      A                      A                      A
 Frequencies --    797.5890               890.5465              1052.6026
 Red. masses --      6.6633                 7.9234                 7.4195
 Frc consts  --      2.4975                 3.7023                 4.8434
 IR Inten    --    137.8577                13.7462               559.8635

                     19                     20                     21
                      A                      A                      A
 Frequencies --   1114.5428              1119.1838              1133.3109
 Red. masses --      7.3391                 5.9327                 7.3114
 Frc consts  --      5.3714                 4.3783                 5.5328
 IR Inten    --    514.2872               151.1192               137.6090

                     22                     23                     24
                      A                      A                      A
 Frequencies --   1162.1969              1198.3439              1285.5913
 Red. masses --      6.7753                 6.5545                 2.2973
 Frc consts  --      5.3918                 5.5457                 2.2371
 IR Inten    --    599.5123               114.5046               162.7000

                     25                     26                     27
                      A                      A                      A
 Frequencies --   1332.5161              1410.1829              1417.5707
 Red. masses --      1.5266                 1.5439                 1.2612
 Frc consts  --      1.5970                 1.8089                 1.4932
 IR Inten    --     47.2705                59.9761                55.0632

                     28                     29                     30
                      A                      A                      A
 Frequencies --   1443.8003              3183.2936              3203.4512
 Red. masses --      1.3105                 1.0888                 1.0896
 Frc consts  --      1.6095                 6.5005                 6.5883
 IR Inten    --     28.2677                 5.7963                25.7717

 - Thermochemistry -
 -------------------
 Temperature   298.150 Kelvin.  Pressure   1.00000 Atm.
 Atom     1 has atomic number  9 and mass  18.99840

 Molecular mass:   183.97143 amu.
 Principal axes and moments of inertia in atomic units:
                           1         2         3
     Eigenvalues --   760.558542862.074863187.99173
           X            0.99996  -0.00073   0.00840
           Y            0.00086   0.99988  -0.01526
           Z           -0.00838   0.01526   0.99985
 This molecule is an asymmetric top.
 Rotational symmetry number  1.
 Warning -- assumption of classical behavior for rotation
           may cause significant error
 Rotational temperatures (Kelvin)      0.11388     0.03026     0.02717
 Rotational constants (GHZ):           2.37292     0.63057     0.56611
 Zero-point vibrational energy     161112.4 (Joules/Mol)
                                   38.50678 (Kcal/Mol)
 Warning -- explicit consideration of  13 degrees of freedom as
           vibrations may cause significant error
 Vibrational temperatures:     48.90    65.68    97.05   170.65   312.62
          (Kelvin)            338.96   376.31   500.16   564.21   629.96
                              722.71   804.58   811.70   950.48  1074.95
                             1147.55  1281.30  1514.46  1603.58  1610.26
                             1630.58  1672.14  1724.15  1849.68  1917.19
                             2028.94  2039.57  2077.31  4580.05  4609.05

 Zero-point correction=                           0.061364 (Hartree/Particle)
 Thermal correction to Energy=                    0.070999
 Thermal correction to Enthalpy=                  0.071943
 Thermal correction to Gibbs Free Energy=         0.023788
 Sum of electronic and zero-point Energies=          -1150.066145
 Sum of electronic and thermal Energies=             -1150.056510
 Sum of electronic and thermal Enthalpies=           -1150.055566
 Sum of electronic and thermal Free Energies=        -1150.103721

                     E (Thermal)             CV                S
                      KCal/Mol        Cal/Mol-Kelvin    Cal/Mol-Kelvin
 Total                   44.552             32.041            101.350
 Electronic               0.000              0.000              0.000
 Translational            0.889              2.981             41.535
 Rotational               0.889              2.981             30.318
 Vibrational             42.775             26.079             29.497
 Vibration     1          0.594              1.983              5.582
 Vibration     2          0.595              1.979              4.998
 Vibration     3          0.598              1.970              4.226
 Vibration     4          0.609              1.934              3.123
 Vibration     5          0.646              1.815              1.982
 Vibration     6          0.655              1.786              1.836
 Vibration     7          0.669              1.743              1.651
 Vibration     8          0.725              1.580              1.177
 Vibration     9          0.760              1.487              0.992
 Vibration    10          0.798              1.388              0.833
 Vibration    11          0.858              1.245              0.652
 Vibration    12          0.915              1.120              0.525
 Vibration    13          0.920              1.109              0.516

 Optimization completed.
    -- Stationary point found.
 Normal termination of Gaussian 16 at Wed Mar  2 04:25:56 2022.

 ------------------------------------------
 #p b3lyp/6-31G(d) geom=allcheck guess=read
 ------------------------------------------

 Structure from the checkpoint file:  "129.n.pdb.xyz.mst.wat.chk"
 -------------
 129.n.pdb.xyz
 -------------
 Charge =  0 Multiplicity = 1

 SCF Done:  E(RB3LYP) =  -1150.12933941     A.U. after   10 cycles
 Normal termination of Gaussian 16 at Wed Mar  2 04:26:19 2022.
 Gaussian 16:  ES64L-G16RevA.03 25-Dec-2016

 ----------------------------------------------------------------------
 #p b3lyp/6-31G(d) scrf=(iefpcm,read,solvent=water) geom=allcheck guess
 =read
 ----------------------------------------------------------------------

 Structure from the checkpoint file:  "129.n.pdb.xyz.mst.wat.chk"
 -------------
 129.n.pdb.xyz
 -------------
 Charge =  0 Multiplicity = 1

                         Standard orientation:
 ---------------------------------------------------------------------
 Center     Atomic      Atomic             Coordinates (Angstroms)
 Number     Number       Type             X           Y           Z
 ---------------------------------------------------------------------
      1          9           0        2.734158   -0.968344   -0.611300
      2          6           0        2.198304   -0.023397    0.192022
      3          9           0        3.006448    1.049923    0.165017
      4          8           0        0.979143    0.398568   -0.350219
      5          6           0       -0.150258   -0.223432    0.115413
      6          9           0       -0.250939   -0.097954    1.462767
      7          9           0       -0.126682   -1.551417   -0.153294
      8          6           0       -1.352119    0.424305   -0.581937
      9          9           0       -1.362694    1.745412   -0.263443
     10         17           0       -2.871893   -0.337922   -0.028971
     11          1           0        2.094655   -0.406321    1.204243
     12          1           0       -1.283791    0.299022   -1.660709
 ---------------------------------------------------------------------

 SCF Done:  E(RB3LYP) =  -1150.12703317     A.U. after   10 cycles

 The electronic state is 1-A.
 Alpha  occ. eigenvalues -- -101.56479 -24.74206 -24.74140 -24.73089 -24.73021
 Alpha  occ. eigenvalues --  -24.72599 -19.22723 -10.43900 -10.41809 -10.35360
 Alpha  occ. eigenvalues --   -9.48246  -7.24652  -7.23651  -7.23610  -1.30314
 Alpha  occ. eigenvalues --   -1.28301  -1.24702  -1.23019  -1.21791  -1.11166
 Alpha  occ. eigenvalues --   -0.88625  -0.79223  -0.70602  -0.66784  -0.62626
 Alpha  occ. eigenvalues --   -0.60270  -0.59847  -0.57396  -0.56323  -0.54063
 Alpha  occ. eigenvalues --   -0.50707  -0.49736  -0.46294  -0.46024  -0.44489
 Alpha  occ. eigenvalues --   -0.44197  -0.42844  -0.42356  -0.41525  -0.39519
 Alpha  occ. eigenvalues --   -0.39063  -0.37625  -0.36293  -0.33797  -0.32734
 Alpha virt. eigenvalues --    0.00009   0.06782   0.10904   0.12757   0.13803
 Alpha virt. eigenvalues --    0.15790   0.18301   0.19107   0.19961   0.21080
 Alpha virt. eigenvalues --    0.28718   0.35738   0.41697   0.43193   0.43855

 Mulliken charges:
               1
     1  F   -0.267139
     2  C    0.599729
     3  F   -0.262180
     4  O   -0.482204
     5  C    0.800365
     6  F   -0.271604
     7  F   -0.268628
     8  C    0.012662
     9  F   -0.260920
    10  Cl  -0.029177
    11  H    0.183076
    12  H    0.246022
 Sum of Mulliken charges =  -0.00000

 Dipole moment (field-independent basis, Debye):
    X=              0.2918    Y=             -0.5830    Z=             -0.2254  Tot=              0.6898
 Quadrupole moment (field-independent basis, Debye-Ang):
   XX=            -63.3888   YY=            -62.9606   ZZ=            -56.1637
   XY=             -0.7280   XZ=              5.3566   YZ=             -1.1602

 Normal termination of Gaussian 16 at Wed Mar  2 04:26:49 2022.
