 Gaussian 16, Revision A.03,

 ----------------------------------------------------------------------
 #p b3lyp/6-31G(d) opt=(MaxStep=10,MaxCycles=1000) freq scf=(MaxCycle=2
 000,NoVarAcc,NoIncFock) scrf=(iefpcm,read,solvent=water)
 ----------------------------------------------------------------------

 -------------
 130.n.pdb.xyz
 -------------
 Symbolic Z-matrix:
 Charge =  0 Multiplicity = 1

 SCF Done:  E(RB3LYP) =  -1016.04581596     A.U. after   12 cycles
 SCF Done:  E(RB3LYP) =  -1016.05069379     A.U. after   10 cycles
 SCF Done:  E(RB3LYP) =  -1016.05293566     A.U. after   11 cycles
 SCF Done:  E(RB3LYP) =  -1016.05238458     A.U. after   11 cycles
 SCF Done:  E(RB3LYP) =  -1016.05522651     A.U. after   10 cycles
 SCF Done:  E(RB3LYP) =  -1016.05601754     A.U. after   10 cycles
 SCF Done:  E(RB3LYP) =  -1016.05579078     A.U. after   11 cycles
 SCF Done:  E(RB3LYP) =  -1016.05630918     A.U. after   10 cycles
 SCF Done:  E(RB3LYP) =  -1016.05631212     A.U. after    9 cycles
 SCF Done:  E(RB3LYP) =  -1016.05631188     A.U. after    8 cycles
 SCF Done:  E(RB3LYP) =  -1016.05629599     A.U. after    9 cycles
 SCF Done:  E(RB3LYP) =  -1016.05630534     A.U. after    9 cycles
 SCF Done:  E(RB3LYP) =  -1016.05632136     A.U. after    9 cycles
 SCF Done:  E(RB3LYP) =  -1016.05629356     A.U. after    8 cycles
 SCF Done:  E(RB3LYP) =  -1016.05627520     A.U. after    9 cycles
 SCF Done:  E(RB3LYP) =  -1016.05628734     A.U. after    9 cycles
 SCF Done:  E(RB3LYP) =  -1016.05628664     A.U. after    7 cycles
 Optimization completed.
    -- Stationary point found.
 Normal termination of Gaussian 16 at Tue Mar  1 08:03:21 2022.

 --------------------------------------------------------------------
 #P Geom=AllCheck Guess=TCheck SCRF=Check GenChk RB3LYP/6-31G(d) Freq
 --------------------------------------------------------------------

 Structure from the checkpoint file:  "130.n.pdb.xyz.mst.wat.chk"
 -------------
 130.n.pdb.xyz
 -------------
 Charge =  0 Multiplicity = 1

 SCF Done:  E(RB3LYP) =  -1016.05628664     A.U. after    1 cycles

  Exact polarizability: 281.237  34.045 203.783  -0.034   3.559 248.681
 Approx polarizability: 291.231  39.155 226.282   1.995   6.367 287.115

                      1                      2                      3
                      A                      A                      A
 Frequencies --     12.4666                31.1797                35.3745
 Red. masses --      4.7275                 4.6795                 5.2619
 Frc consts  --      0.0004                 0.0027                 0.0039
 IR Inten    --      0.0758                 0.1234                 0.5723

                      4                      5                      6
                      A                      A                      A
 Frequencies --     47.7147                55.3456                82.6921
 Red. masses --      7.5795                 4.4387                 5.4869
 Frc consts  --      0.0102                 0.0080                 0.0221
 IR Inten    --      2.9629                 1.7850                 1.1778

                      7                      8                      9
                      A                      A                      A
 Frequencies --     98.5313               130.8297               151.0846
 Red. masses --      4.8560                 5.3001                 1.0525
 Frc consts  --      0.0278                 0.0535                 0.0142
 IR Inten    --      1.2005                 0.1406                 0.0671

                     10                     11                     12
                      A                      A                      A
 Frequencies --    169.1109               180.6402               198.8462
 Red. masses --      4.3959                 2.2803                 5.2030
 Frc consts  --      0.0741                 0.0438                 0.1212
 IR Inten    --      1.3850                 1.4711                12.4181

                     13                     14                     15
                      A                      A                      A
 Frequencies --    229.7631               241.2123               282.3035
 Red. masses --      3.7173                 3.2124                 3.0027
 Frc consts  --      0.1156                 0.1101                 0.1410
 IR Inten    --      4.0815                10.0203                 0.2066

                     16                     17                     18
                      A                      A                      A
 Frequencies --    287.2714               310.0588               319.7607
 Red. masses --      3.0749                 3.7922                 4.1392
 Frc consts  --      0.1495                 0.2148                 0.2494
 IR Inten    --      6.2231                 6.0656                 6.9316

                     19                     20                     21
                      A                      A                      A
 Frequencies --    323.9324               388.1799               406.9640
 Red. masses --      4.1461                 3.8977                 1.5207
 Frc consts  --      0.2563                 0.3460                 0.1484
 IR Inten    --      3.8374                 6.1742               153.2693

                     22                     23                     24
                      A                      A                      A
 Frequencies --    431.2033               437.5454               450.1772
 Red. masses --      1.8864                 2.8920                 5.4938
 Frc consts  --      0.2067                 0.3262                 0.6560
 IR Inten    --     91.6861                 8.1091                 8.7921

                     25                     26                     27
                      A                      A                      A
 Frequencies --    463.8439               484.4186               561.9741
 Red. masses --      5.4327                 4.1915                 4.7767
 Frc consts  --      0.6887                 0.5795                 0.8888
 IR Inten    --     35.8863                35.3684                20.4718

                     28                     29                     30
                      A                      A                      A
 Frequencies --    572.1614               617.9326               631.1484
 Red. masses --      4.6033                 4.4202                 6.1547
 Frc consts  --      0.8879                 0.9944                 1.4445
 IR Inten    --     25.0215                 3.5590                 0.7783

                     31                     32                     33
                      A                      A                      A
 Frequencies --    668.6666               693.6485               706.4235
 Red. masses --      5.4143                 4.3025                 4.5891
 Frc consts  --      1.4263                 1.2197                 1.3493
 IR Inten    --     17.3552                15.9272                47.0005

                     34                     35                     36
                      A                      A                      A
 Frequencies --    719.2462               747.1408               773.4784
 Red. masses --      1.7080                 3.1573                 4.2822
 Frc consts  --      0.5206                 1.0384                 1.5094
 IR Inten    --     42.3129                 0.1259                 3.6632

                     37                     38                     39
                      A                      A                      A
 Frequencies --    779.8731               807.3560               826.1176
 Red. masses --      2.0838                 2.9141                 2.6451
 Frc consts  --      0.7467                 1.1191                 1.0636
 IR Inten    --     14.7787                11.4843                 0.3147

                     40                     41                     42
                      A                      A                      A
 Frequencies --    857.6014               861.7191               863.2402
 Red. masses --      4.9346                 1.9274                 1.2490
 Frc consts  --      2.1383                 0.8433                 0.5484
 IR Inten    --      0.8782                46.7463                 0.9729

                     43                     44                     45
                      A                      A                      A
 Frequencies --    880.9517               894.3377               914.3593
 Red. masses --      3.2609                 3.5671                 4.0431
 Frc consts  --      1.4910                 1.6810                 1.9916
 IR Inten    --     19.0089                14.8631                54.0848

                     46                     47                     48
                      A                      A                      A
 Frequencies --    929.9721               952.8204               961.0422
 Red. masses --      1.4613                 1.9487                 2.3747
 Frc consts  --      0.7446                 1.0424                 1.2922
 IR Inten    --      0.6841                 2.0072                 2.8886

                     49                     50                     51
                      A                      A                      A
 Frequencies --    965.7872               974.6900               977.4997
 Red. masses --      2.3439                 2.1556                 1.3544
 Frc consts  --      1.2881                 1.2066                 0.7625
 IR Inten    --     24.1360                13.8414                 0.2357

                     52                     53                     54
                      A                      A                      A
 Frequencies --    999.8888              1005.4687              1011.8498
 Red. masses --      1.9335                 1.2609                 3.0298
 Frc consts  --      1.1389                 0.7510                 1.8277
 IR Inten    --     16.9278                 0.4961                44.3775

                     55                     56                     57
                      A                      A                      A
 Frequencies --   1017.1491              1046.0642              1048.0495
 Red. masses --      6.1010                 2.4693                 2.3329
 Frc consts  --      3.7190                 1.5920                 1.5098
 IR Inten    --      1.4187               121.5820                78.0739

                     58                     59                     60
                      A                      A                      A
 Frequencies --   1053.0800              1062.1510              1084.2334
 Red. masses --      2.3282                 2.1196                 5.3426
 Frc consts  --      1.5212                 1.4089                 3.7004
 IR Inten    --     42.2015                45.1926               151.8308

                     61                     62                     63
                      A                      A                      A
 Frequencies --   1104.2238              1110.6165              1112.2173
 Red. masses --      1.3020                 1.6690                 2.1206
 Frc consts  --      0.9354                 1.2129                 1.5455
 IR Inten    --      2.9943                10.2421                33.5429

                     64                     65                     66
                      A                      A                      A
 Frequencies --   1144.4527              1160.5177              1170.6532
 Red. masses --      3.1512                 2.5486                 1.4764
 Frc consts  --      2.4318                 2.0223                 1.1921
 IR Inten    --     13.2946                11.8424                13.5288

                     67                     68                     69
                      A                      A                      A
 Frequencies --   1178.1341              1188.5482              1200.7018
 Red. masses --      1.1698                 1.0944                 2.3672
 Frc consts  --      0.9567                 0.9109                 2.0108
 IR Inten    --      1.1928                 2.8977               565.0665

                     70                     71                     72
                      A                      A                      A
 Frequencies --   1210.5250              1218.4567              1223.9506
 Red. masses --      1.1387                 1.6683                 1.8351
 Frc consts  --      0.9831                 1.4593                 1.6197
 IR Inten    --      6.8406               108.8097                 7.9275

                     73                     74                     75
                      A                      A                      A
 Frequencies --   1234.3501              1237.5783              1264.9190
 Red. masses --      1.4114                 1.4417                 1.2933
 Frc consts  --      1.2670                 1.3010                 1.2192
 IR Inten    --     89.0438                43.8907                 0.5619

                     76                     77                     78
                      A                      A                      A
 Frequencies --   1270.0434              1286.4345              1295.3669
 Red. masses --      1.5882                 1.2677                 1.4708
 Frc consts  --      1.5093                 1.2361                 1.4541
 IR Inten    --     81.3666                 3.6829                 7.3456

                     79                     80                     81
                      A                      A                      A
 Frequencies --   1315.8408              1320.2269              1337.3597
 Red. masses --      1.5319                 1.5693                 1.7780
 Frc consts  --      1.5627                 1.6115                 1.8736
 IR Inten    --     15.3686                 0.1224                46.4349

                     82                     83                     84
                      A                      A                      A
 Frequencies --   1343.4543              1346.2216              1364.1094
 Red. masses --      1.5323                 1.6776                 2.2299
 Frc consts  --      1.6295                 1.7913                 2.4447
 IR Inten    --      8.4229                12.6312                 5.1297

                     85                     86                     87
                      A                      A                      A
 Frequencies --   1369.0606              1390.8394              1399.4866
 Red. masses --      2.0527                 1.5023                 1.5224
 Frc consts  --      2.2668                 1.7122                 1.7568
 IR Inten    --     49.0938                16.0933                25.7909

                     88                     89                     90
                      A                      A                      A
 Frequencies --   1406.0425              1420.9991              1425.8177
 Red. masses --      1.3761                 1.3865                 1.1949
 Frc consts  --      1.6028                 1.6495                 1.4313
 IR Inten    --     10.5504                26.2154                78.0851

                     91                     92                     93
                      A                      A                      A
 Frequencies --   1434.9230              1469.5413              1500.7049
 Red. masses --      2.5718                 1.2342                 2.1701
 Frc consts  --      3.1200                 1.5704                 2.8795
 IR Inten    --      8.6921                 7.0882                10.3456

                     94                     95                     96
                      A                      A                      A
 Frequencies --   1506.4488              1509.9871              1516.4531
 Red. masses --      1.0827                 1.0862                 1.0909
 Frc consts  --      1.4476                 1.4592                 1.4781
 IR Inten    --      6.7858                 4.5789                 5.4608

                     97                     98                     99
                      A                      A                      A
 Frequencies --   1519.6028              1544.6207              1548.8151
 Red. masses --      1.0931                 2.2344                 1.0453
 Frc consts  --      1.4871                 3.1409                 1.4773
 IR Inten    --      3.9210                15.2757                 6.1498

                    100                    101                    102
                      A                      A                      A
 Frequencies --   1640.7349              1663.8055              1781.5578
 Red. masses --      5.5072                 5.6581                12.3506
 Frc consts  --      8.7349                 9.2284                23.0960
 IR Inten    --      0.9106                 2.2496               412.8822

                    103                    104                    105
                      A                      A                      A
 Frequencies --   3050.3671              3061.8445              3070.7418
 Red. masses --      1.0330                 1.0680                 1.0622
 Frc consts  --      5.6630                 5.8994                 5.9011
 IR Inten    --    112.6570                55.8088                37.0137

                    106                    107                    108
                      A                      A                      A
 Frequencies --   3073.4842              3077.0540              3113.2023
 Red. masses --      1.0808                 1.0654                 1.1035
 Frc consts  --      6.0151                 5.9435                 6.3013
 IR Inten    --     42.4191                34.7299                52.4516

                    109                    110                    111
                      A                      A                      A
 Frequencies --   3114.3226              3122.4765              3127.9070
 Red. masses --      1.1007                 1.0899                 1.0907
 Frc consts  --      6.2897                 6.2609                 6.2874
 IR Inten    --     16.6543                30.2597                47.3694

                    112                    113                    114
                      A                      A                      A
 Frequencies --   3133.0071              3137.0465              3147.1049
 Red. masses --      1.1021                 1.0959                 1.0998
 Frc consts  --      6.3735                 6.3543                 6.4180
 IR Inten    --     58.1469                62.6010                54.0948

                    115                    116                    117
                      A                      A                      A
 Frequencies --   3164.8456              3187.5800              3191.3775
 Red. masses --      1.0877                 1.0880                 1.0872
 Frc consts  --      6.4190                 6.5133                 6.5239
 IR Inten    --     30.0520                32.5090                14.2333

                    118                    119                    120
                      A                      A                      A
 Frequencies --   3200.3281              3201.5307              3210.8947
 Red. masses --      1.0971                 1.0873                 1.0920
 Frc consts  --      6.6201                 6.5660                 6.6335
 IR Inten    --     44.6546                 3.2569                52.1240

                    121                    122                    123
                      A                      A                      A
 Frequencies --   3222.2528              3243.1128              3716.7456
 Red. masses --      1.0966                 1.0926                 1.0662
 Frc consts  --      6.7085                 6.7705                 8.6783
 IR Inten    --     46.0474                12.7853                78.7476

 - Thermochemistry -
 -------------------
 Temperature   298.150 Kelvin.  Pressure   1.00000 Atm.
 Atom     1 has atomic number  6 and mass  12.00000

 Molecular mass:   303.14706 amu.
 Principal axes and moments of inertia in atomic units:
                           1         2         3
     Eigenvalues --  2247.58820********************
           X            0.99998  -0.00084  -0.00544
           Y            0.00106   0.99921   0.03974
           Z            0.00540  -0.03974   0.99920
 This molecule is an asymmetric top.
 Rotational symmetry number  1.
 Warning -- assumption of classical behavior for rotation
           may cause significant error
 Rotational temperatures (Kelvin)      0.03854     0.00547     0.00536
 Rotational constants (GHZ):           0.80297     0.11403     0.11168
 Zero-point vibrational energy     950870.6 (Joules/Mol)
                                  227.26352 (Kcal/Mol)
 Warning -- explicit consideration of  29 degrees of freedom as
           vibrations may cause significant error
 Vibrational temperatures:     17.94    44.86    50.90    68.65    79.63
          (Kelvin)            118.98   141.76   188.23   217.38   243.31
                              259.90   286.10   330.58   347.05   406.17
                              413.32   446.11   460.06   466.07   558.50
                              585.53   620.41   629.53   647.70   667.37
                              696.97   808.56   823.21   889.07   908.08
                              962.06   998.01  1016.39  1034.83  1074.97
                             1112.86  1122.06  1161.61  1188.60  1233.90
                             1239.82  1242.01  1267.49  1286.75  1315.56
                             1338.02  1370.90  1382.73  1389.55  1402.36
                             1406.40  1438.62  1446.65  1455.83  1463.45
                             1505.05  1507.91  1515.15  1528.20  1559.97
                             1588.73  1597.93  1600.23  1646.61  1669.73
                             1684.31  1695.07  1710.06  1727.54  1741.68
                             1753.09  1760.99  1775.95  1780.60  1819.94
                             1827.31  1850.89  1863.74  1893.20  1899.51
                             1924.16  1932.93  1936.91  1962.65  1969.77
                             2001.11  2013.55  2022.98  2044.50  2051.43
                             2064.53  2114.34  2159.18  2167.44  2172.53
                             2181.84  2186.37  2222.36  2228.40  2360.65
                             2393.84  2563.26  4388.80  4405.31  4418.11
                             4422.06  4427.19  4479.20  4480.82  4492.55
                             4500.36  4507.70  4513.51  4527.98  4553.51
                             4586.22  4591.68  4604.56  4606.29  4619.76
                             4636.10  4666.12  5347.57

 Zero-point correction=                           0.362167 (Hartree/Particle)
 Thermal correction to Energy=                    0.381811
 Thermal correction to Enthalpy=                  0.382755
 Thermal correction to Gibbs Free Energy=         0.311465
 Sum of electronic and zero-point Energies=          -1015.694119
 Sum of electronic and thermal Energies=             -1015.674476
 Sum of electronic and thermal Enthalpies=           -1015.673532
 Sum of electronic and thermal Free Energies=        -1015.744822

                     E (Thermal)             CV                S
                      KCal/Mol        Cal/Mol-Kelvin    Cal/Mol-Kelvin
 Total                  239.590             76.391            150.043
 Electronic               0.000              0.000              0.000
 Translational            0.889              2.981             43.024
 Rotational               0.889              2.981             34.707
 Vibrational            237.812             70.429             72.312
 Vibration     1          0.593              1.987              7.573
 Vibration     2          0.594              1.983              5.753
 Vibration     3          0.594              1.982              5.503
 Vibration     4          0.595              1.978              4.910
 Vibration     5          0.596              1.975              4.617
 Vibration     6          0.600              1.961              3.826
 Vibration     7          0.604              1.950              3.483
 Vibration     8          0.612              1.922              2.934
 Vibration     9          0.619              1.901              2.659
 Vibration    10          0.625              1.880              2.445
 Vibration    11          0.630              1.866              2.322
 Vibration    12          0.637              1.841              2.144
 Vibration    13          0.652              1.796              1.881
 Vibration    14          0.658              1.777              1.794
 Vibration    15          0.681              1.706              1.520
 Vibration    16          0.684              1.697              1.490
 Vibration    17          0.699              1.655              1.362
 Vibration    18          0.706              1.636              1.311
 Vibration    19          0.708              1.628              1.290
 Vibration    20          0.756              1.495              1.007
 Vibration    21          0.772              1.455              0.937
 Vibration    22          0.792              1.402              0.855
 Vibration    23          0.798              1.388              0.834
 Vibration    24          0.809              1.360              0.795
 Vibration    25          0.821              1.330              0.755
 Vibration    26          0.841              1.285              0.698
 Vibration    27          0.918              1.114              0.520
 Vibration    28          0.928              1.091              0.500
 Vibration    29          0.978              0.994              0.420

 Optimization completed.
    -- Stationary point found.
 Normal termination of Gaussian 16 at Tue Mar  1 09:08:07 2022.

 ------------------------------------------
 #p b3lyp/6-31G(d) geom=allcheck guess=read
 ------------------------------------------

 Structure from the checkpoint file:  "130.n.pdb.xyz.mst.wat.chk"
 -------------
 130.n.pdb.xyz
 -------------
 Charge =  0 Multiplicity = 1

 SCF Done:  E(RB3LYP) =  -1016.03771312     A.U. after   11 cycles
 Normal termination of Gaussian 16 at Tue Mar  1 09:12:09 2022.
 Gaussian 16:  ES64L-G16RevA.03 25-Dec-2016

 ----------------------------------------------------------------------
 #p b3lyp/6-31G(d) scrf=(iefpcm,read,solvent=water) geom=allcheck guess
 =read
 ----------------------------------------------------------------------

 Structure from the checkpoint file:  "130.n.pdb.xyz.mst.wat.chk"
 -------------
 130.n.pdb.xyz
 -------------
 Charge =  0 Multiplicity = 1

                         Standard orientation:
 ---------------------------------------------------------------------
 Center     Atomic      Atomic             Coordinates (Angstroms)
 Number     Number       Type             X           Y           Z
 ---------------------------------------------------------------------
      1          6           0        4.947523   -0.897086   -1.734410
      2          7           0        3.762084   -0.492218   -0.980429
      3          6           0        3.424816   -1.316007    0.200541
      4          6           0        1.906200   -1.141553    0.480823
      5          6           0        1.366674    0.102576   -0.248771
      6          6           0        2.300094    1.323226   -0.224097
      7          6           0        3.775101    0.877772   -0.424715
      8          6           0        4.396302    0.731319    0.966232
      9          8           0        5.498403   -0.195112    1.033982
     10          6           0        4.174599   -0.660982    1.363295
     11          8           0        0.117071    0.524865    0.371103
     12          6           0       -1.027077   -0.012402   -0.090714
     13          8           0       -1.073929   -0.845503   -0.975222
     14          6           0       -2.218660    0.579467    0.655575
     15          6           0       -2.253176    2.116213    0.442057
     16          8           0       -2.377586    2.495338   -0.919016
     17          6           0       -3.539363   -0.085894    0.336414
     18          6           0       -4.375778   -0.481806    1.388498
     19          6           0       -5.628875   -1.043480    1.139045
     20          6           0       -6.066102   -1.218741   -0.175233
     21          6           0       -5.240983   -0.829554   -1.232316
     22          6           0       -3.988301   -0.268394   -0.980310
     23          1           0        5.041771   -0.250487   -2.612809
     24          1           0        5.883414   -0.857216   -1.166233
     25          1           0        4.798004   -1.920425   -2.089194
     26          1           0        3.694104   -2.358688    0.024281
     27          1           0        1.341206   -2.014219    0.149036
     28          1           0        1.730279   -1.030669    1.555954
     29          1           0        1.138997   -0.164446   -1.277890
     30          1           0        1.990362    2.022282   -1.005366
     31          1           0        2.189609    1.841719    0.734311
     32          1           0        4.319699    1.552589   -1.087508
     33          1           0        4.424853    1.562349    1.665217
     34          1           0        4.019431   -0.979428    2.390275
     35          1           0       -2.007120    0.439405    1.722220
     36          1           0       -3.063070    2.533481    1.050903
     37          1           0       -1.307501    2.532182    0.792416
     38          1           0       -3.303851    2.357424   -1.184887
     39          1           0       -4.038846   -0.347600    2.412920
     40          1           0       -6.259155   -1.345503    1.969393
     41          1           0       -7.038710   -1.657301   -0.374130
     42          1           0       -5.570460   -0.965513   -2.257481
     43          1           0       -3.347240    0.010843   -1.806681
 ---------------------------------------------------------------------

 SCF Done:  E(RB3LYP) =  -1016.05438736     A.U. after   11 cycles

 The electronic state is 1-A.
 Alpha  occ. eigenvalues --  -19.19346 -19.16227 -19.14976 -19.14348 -14.32525
 Alpha  occ. eigenvalues --  -10.32232 -10.24613 -10.23773 -10.23694 -10.23659
 Alpha  occ. eigenvalues --  -10.22002 -10.21986 -10.20822 -10.20113 -10.19473
 Alpha  occ. eigenvalues --  -10.19163 -10.19119 -10.19100 -10.19049 -10.18924
 Alpha  occ. eigenvalues --  -10.18769 -10.18656  -1.10479  -1.07589  -1.02091
 Alpha  occ. eigenvalues --   -1.01878  -0.92925  -0.85975  -0.81120  -0.79005
 Alpha  occ. eigenvalues --   -0.76827  -0.74546  -0.73852  -0.72021  -0.65958
 Alpha  occ. eigenvalues --   -0.65523  -0.65269  -0.62814  -0.60719  -0.58920
 Alpha  occ. eigenvalues --   -0.58222  -0.56565  -0.54225  -0.53071  -0.52078
 Alpha  occ. eigenvalues --   -0.51056  -0.48868  -0.48500  -0.48294  -0.46867
 Alpha  occ. eigenvalues --   -0.46204  -0.46113  -0.44741  -0.43871  -0.42967
 Alpha  occ. eigenvalues --   -0.42488  -0.41902  -0.41472  -0.41314  -0.40021
 Alpha  occ. eigenvalues --   -0.39762  -0.39321  -0.38619  -0.37889  -0.36301
 Alpha  occ. eigenvalues --   -0.35867  -0.35795  -0.34945  -0.34792  -0.34118
 Alpha  occ. eigenvalues --   -0.33385  -0.32969  -0.32645  -0.30347  -0.29668
 Alpha  occ. eigenvalues --   -0.28290  -0.27838  -0.27430  -0.25223  -0.24669
 Alpha  occ. eigenvalues --   -0.21057
 Alpha virt. eigenvalues --   -0.00640  -0.00465   0.00518   0.08487   0.09238
 Alpha virt. eigenvalues --    0.09873   0.10276   0.10757   0.11122   0.11982
 Alpha virt. eigenvalues --    0.13157   0.13736   0.14029   0.14559   0.14865

 Mulliken charges:
               1
     1  C   -0.309447
     2  N   -0.420551
     3  C   -0.012076
     4  C   -0.304575
     5  C    0.143110
     6  C   -0.303137
     7  C   -0.012204
     8  C    0.072698
     9  O   -0.505761
    10  C    0.074303
    11  O   -0.489750
    12  C    0.660714
    13  O   -0.523046
    14  C   -0.306325
    15  C   -0.041511
    16  O   -0.656393
    17  C    0.164044
    18  C   -0.205334
    19  C   -0.148518
    20  C   -0.148251
    21  C   -0.154157
    22  C   -0.193580
    23  H    0.152413
    24  H    0.150674
    25  H    0.153341
    26  H    0.157233
    27  H    0.163415
    28  H    0.158167
    29  H    0.169409
    30  H    0.162762
    31  H    0.158647
    32  H    0.157828
    33  H    0.168935
    34  H    0.169284
    35  H    0.187172
    36  H    0.153974
    37  H    0.168481
    38  H    0.437331
    39  H    0.148992
    40  H    0.150738
    41  H    0.149862
    42  H    0.150243
    43  H    0.150846
 Sum of Mulliken charges =  -0.00000

 Dipole moment (field-independent basis, Debye):
    X=             -1.8731    Y=              1.4282    Z=              3.0796  Tot=              3.8772
 Quadrupole moment (field-independent basis, Debye-Ang):
   XX=           -125.2517   YY=           -127.6295   ZZ=           -121.8553
   XY=              0.1372   XZ=             -4.6438   YZ=             -0.4432

 Normal termination of Gaussian 16 at Tue Mar  1 09:17:42 2022.
