 Gaussian 16, Revision A.03,

 ----------------------------------------------------------------------
 #p b3lyp/6-31G(d) opt=(MaxStep=10,MaxCycles=1000) freq scf=(MaxCycle=2
 000,NoVarAcc,NoIncFock) scrf=(iefpcm,read,solvent=water)
 ----------------------------------------------------------------------

 -------------
 131.n.pdb.xyz
 -------------
 Symbolic Z-matrix:
 Charge =  0 Multiplicity = 1

 SCF Done:  E(RB3LYP) =  -615.770209213     A.U. after   12 cycles
 SCF Done:  E(RB3LYP) =  -615.775261237     A.U. after   10 cycles
 SCF Done:  E(RB3LYP) =  -615.776879724     A.U. after    9 cycles
 SCF Done:  E(RB3LYP) =  -615.777044851     A.U. after    9 cycles
 SCF Done:  E(RB3LYP) =  -615.777048157     A.U. after    7 cycles
 Optimization completed.
    -- Stationary point found.
 Normal termination of Gaussian 16 at Tue Mar  1 05:40:30 2022.

 --------------------------------------------------------------------
 #P Geom=AllCheck Guess=TCheck SCRF=Check GenChk RB3LYP/6-31G(d) Freq
 --------------------------------------------------------------------

 Structure from the checkpoint file:  "131.n.pdb.xyz.mst.wat.chk"
 -------------
 131.n.pdb.xyz
 -------------
 Charge =  0 Multiplicity = 1

 SCF Done:  E(RB3LYP) =  -615.777048157     A.U. after    1 cycles

  Exact polarizability: 442.411   1.757 294.342  -1.111 -14.902  65.127
 Approx polarizability: 533.052   2.205 351.194  -1.336 -17.544  81.610

                      1                      2                      3
                     AU                     AU                     AU
 Frequencies --    101.8059               153.9395               219.3143
 Red. masses --      4.6322                 4.2442                 3.8900
 Frc consts  --      0.0283                 0.0593                 0.1102
 IR Inten    --      0.5987                 0.0067                 9.7794

                      4                      5                      6
                     AU                     AU                     AU
 Frequencies --    254.1964               266.0651               349.0542
 Red. masses --      3.5462                 4.5801                 4.4355
 Frc consts  --      0.1350                 0.1910                 0.3184
 IR Inten    --      0.0002                 0.0002                 3.5510

                      7                      8                      9
                     AU                     AU                     AU
 Frequencies --    404.8012               411.4364               458.4315
 Red. masses --      3.6305                 7.9521                 6.0265
 Frc consts  --      0.3505                 0.7931                 0.7462
 IR Inten    --      0.0065                 0.0003                 0.0024

                     10                     11                     12
                     AU                     AU                     AU
 Frequencies --    495.4156               498.5788               502.8965
 Red. masses --      4.4706                 4.7146                 3.7368
 Frc consts  --      0.6465                 0.6905                 0.5568
 IR Inten    --      0.7428                 6.6832                 1.6366

                     13                     14                     15
                     AU                     AU                     AU
 Frequencies --    517.8325               546.5439               552.8067
 Red. masses --      3.8774                 3.0240                 7.0894
 Frc consts  --      0.6126                 0.5322                 1.2765
 IR Inten    --      0.0004                 0.0001                 6.1614

                     16                     17                     18
                     AU                     AU                     AU
 Frequencies --    588.2399               595.5968               694.5008
 Red. masses --      3.5750                 6.2802                 4.4589
 Frc consts  --      0.7288                 1.3126                 1.2671
 IR Inten    --      0.0015                 0.0019                 0.0312

                     19                     20                     21
                     AU                     AU                     AU
 Frequencies --    703.0669               729.9817               747.4358
 Red. masses --      7.0493                 2.8950                 5.2207
 Frc consts  --      2.0530                 0.9089                 1.7184
 IR Inten    --      0.0174                37.4258                 0.0008

                     22                     23                     24
                     AU                     AU                     AU
 Frequencies --    771.6559               793.4634               811.5124
 Red. masses --      1.1688                 1.4413                 5.6729
 Frc consts  --      0.4100                 0.5346                 2.2011
 IR Inten    --     15.3710                 0.0870                 0.0010

                     25                     26                     27
                     AU                     AU                     AU
 Frequencies --    829.4915               829.7955               845.5172
 Red. masses --      4.5394                 1.3784                 4.4526
 Frc consts  --      1.8402                 0.5592                 1.8755
 IR Inten    --     14.3861                 0.0537                 0.1149

                     28                     29                     30
                     AU                     AU                     AU
 Frequencies --    869.0495               914.2523               928.1192
 Red. masses --      1.8129                 1.3830                 1.4385
 Frc consts  --      0.8067                 0.6811                 0.7301
 IR Inten    --    150.9692                 0.1015                 0.0288

                     31                     32                     33
                     AU                     AU                     AU
 Frequencies --    979.5530               984.2471               985.7128
 Red. masses --      1.2667                 4.2503                 1.2914
 Frc consts  --      0.7161                 2.4259                 0.7393
 IR Inten    --      0.0231                 0.2883                 0.0249

                     34                     35                     36
                     AU                     AU                     AU
 Frequencies --    987.2613               997.0758              1013.4272
 Red. masses --      1.3033                 1.3291                 7.5091
 Frc consts  --      0.7484                 0.7785                 4.5438
 IR Inten    --      3.0081                 0.0623                 5.1524

                     37                     38                     39
                     AU                     AU                     AU
 Frequencies --   1086.0556              1108.4077              1128.7858
 Red. masses --      1.9694                 1.6748                 2.2955
 Frc consts  --      1.3686                 1.2123                 1.7233
 IR Inten    --      0.6386                16.6901                 0.0062

                     40                     41                     42
                     AU                     AU                     AU
 Frequencies --   1164.4961              1173.6988              1188.7489
 Red. masses --      1.2951                 1.2493                 1.2171
 Frc consts  --      1.0348                 1.0139                 1.0133
 IR Inten    --      0.2055                 1.9296                10.1952

                     43                     44                     45
                     AU                     AU                     AU
 Frequencies --   1197.6704              1239.7322              1267.2732
 Red. masses --      1.2409                 2.3248                 1.6211
 Frc consts  --      1.0487                 2.1052                 1.5339
 IR Inten    --      5.8895                 0.0286                 0.0429

                     46                     47                     48
                     AU                     AU                     AU
 Frequencies --   1273.8406              1274.4653              1354.8050
 Red. masses --      2.4429                 1.8315                 3.5096
 Frc consts  --      2.3355                 1.7527                 3.7955
 IR Inten    --      0.7881                 2.6774                 0.0054

                     49                     50                     51
                     AU                     AU                     AU
 Frequencies --   1359.5703              1415.3830              1437.8530
 Red. masses --      4.3170                 5.6283                 1.9109
 Frc consts  --      4.7015                 6.6432                 2.3276
 IR Inten    --      9.9405                 0.0106                 0.1304

                     52                     53                     54
                     AU                     AU                     AU
 Frequencies --   1441.2271              1461.9468              1468.2866
 Red. masses --      6.0008                 2.3546                 2.5342
 Frc consts  --      7.3439                 2.9650                 3.2190
 IR Inten    --      0.0113                13.4283                 7.5848

                     55                     56                     57
                     AU                     AU                     AU
 Frequencies --   1493.3858              1530.5596              1550.1561
 Red. masses --      4.3174                 4.4256                 3.1409
 Frc consts  --      5.6730                 6.1083                 4.4469
 IR Inten    --      3.4643                 5.5623                 0.0000

                     58                     59                     60
                     AU                     AU                     AU
 Frequencies --   1607.9649              1638.5739              1649.8832
 Red. masses --      4.4996                 7.7490                 5.6169
 Frc consts  --      6.8545                12.2583                 9.0086
 IR Inten    --      0.0001                 0.0036                24.2547

                     61                     62                     63
                     AU                     AU                     ?A
 Frequencies --   1659.4793              1684.9846              3197.2152
 Red. masses --      6.1338                 7.1406                 1.0864
 Frc consts  --      9.9524                11.9448                 6.5428
 IR Inten    --      3.4923                 0.0003                 0.4876

                     64                     65                     66
                     ?A                     ?A                     ?A
 Frequencies --   3197.3712              3199.2757              3200.4381
 Red. masses --      1.0863                 1.0865                 1.0863
 Frc consts  --      6.5432                 6.5519                 6.5555
 IR Inten    --     10.7573                 0.7739                 0.0699

                     67                     68                     69
                     ?A                     ?A                     ?A
 Frequencies --   3204.8523              3206.3131              3213.7831
 Red. masses --      1.0905                 1.0905                 1.0961
 Frc consts  --      6.5995                 6.6055                 6.6703
 IR Inten    --     36.0603                35.5240               127.2996

                     70                     71                     72
                     ?A                     ?A                     ?A
 Frequencies --   3214.4350              3222.1179              3222.9791
 Red. masses --      1.0960                 1.0961                 1.0960
 Frc consts  --      6.6720                 6.7049                 6.7079
 IR Inten    --      0.0138               149.5037                20.9012

 - Thermochemistry -
 -------------------
 Temperature   298.150 Kelvin.  Pressure   1.00000 Atm.
 Atom     1 has atomic number  6 and mass  12.00000

 Molecular mass:   202.07825 amu.
 Principal axes and moments of inertia in atomic units:
                           1         2         3
     Eigenvalues --  1787.628033250.532505038.16050
           X            0.99992  -0.01266   0.00262
           Y            0.01247   0.99783   0.06461
           Z           -0.00343  -0.06457   0.99791
 This molecule is an asymmetric top.
 Rotational symmetry number  1.
 Warning -- assumption of classical behavior for rotation
           may cause significant error
 Rotational temperatures (Kelvin)      0.04845     0.02665     0.01719
 Rotational constants (GHZ):           1.00957     0.55521     0.35821
 Zero-point vibrational energy     545904.4 (Joules/Mol)
                                  130.47428 (Kcal/Mol)
 Warning -- explicit consideration of  17 degrees of freedom as
           vibrations may cause significant error
 Vibrational temperatures:    146.48   221.48   315.54   365.73   382.81
          (Kelvin)            502.21   582.42   591.97   659.58   712.79
                              717.34   723.56   745.05   786.35   795.37
                              846.35   856.93   999.23  1011.56  1050.28
                             1075.39  1110.24  1141.62  1167.59  1193.45
                             1193.89  1216.51  1250.37  1315.41  1335.36
                             1409.36  1416.11  1418.22  1420.45  1434.57
                             1458.10  1562.59  1594.75  1624.07  1675.45
                             1688.69  1710.34  1723.18  1783.70  1823.32
                             1832.77  1833.67  1949.26  1956.12  2036.42
                             2068.75  2073.60  2103.42  2112.54  2148.65
                             2202.13  2230.33  2313.50  2357.54  2373.81
                             2387.62  2424.32  4600.08  4600.30  4603.04
                             4604.72  4611.07  4613.17  4623.92  4624.86
                             4635.91  4637.15

 Zero-point correction=                           0.207924 (Hartree/Particle)
 Thermal correction to Energy=                    0.217950
 Thermal correction to Enthalpy=                  0.218895
 Thermal correction to Gibbs Free Energy=         0.172660
 Sum of electronic and zero-point Energies=           -615.569124
 Sum of electronic and thermal Energies=              -615.559098
 Sum of electronic and thermal Enthalpies=            -615.558154
 Sum of electronic and thermal Free Energies=         -615.604388

                     E (Thermal)             CV                S
                      KCal/Mol        Cal/Mol-Kelvin    Cal/Mol-Kelvin
 Total                  136.766             44.533             97.309
 Electronic               0.000              0.000              0.000
 Translational            0.889              2.981             41.815
 Rotational               0.889              2.981             31.749
 Vibrational            134.988             38.572             23.745
 Vibration     1          0.604              1.948              3.419
 Vibration     2          0.619              1.898              2.623
 Vibration     3          0.647              1.812              1.965
 Vibration     4          0.665              1.756              1.701
 Vibration     5          0.672              1.735              1.622
 Vibration     6          0.726              1.577              1.170
 Vibration     7          0.770              1.460              0.945
 Vibration     8          0.775              1.445              0.922
 Vibration     9          0.816              1.342              0.771
 Vibration    10          0.851              1.260              0.670
 Vibration    11          0.854              1.253              0.662
 Vibration    12          0.858              1.244              0.651
 Vibration    13          0.873              1.210              0.615
 Vibration    14          0.902              1.147              0.551
 Vibration    15          0.908              1.134              0.538
 Vibration    16          0.945              1.057              0.470
 Vibration    17          0.953              1.041              0.457

 Optimization completed.
    -- Stationary point found.
 Normal termination of Gaussian 16 at Tue Mar  1 05:55:08 2022.

 ------------------------------------------
 #p b3lyp/6-31G(d) geom=allcheck guess=read
 ------------------------------------------

 Structure from the checkpoint file:  "131.n.pdb.xyz.mst.wat.chk"
 -------------
 131.n.pdb.xyz
 -------------
 Charge =  0 Multiplicity = 1

 SCF Done:  E(RB3LYP) =  -615.773087207     A.U. after    9 cycles

 1\1\GINC-PIRINEUS11\SP\RB3LYP\6-31G(d)\C16H10\UBATOR01\01-Mar-2022\0\\
 #p b3lyp/6-31G(d) geom=allcheck guess=read\\131.n.pdb.xyz\\0,1\C,0,-3.
 5225936014,-0.0438647344,0.0120824478\C,0,-2.8168669223,-1.2439230791,
 0.088095832\C,0,-1.4127921645,-1.2515444274,0.0847440873\C,0,-0.649712
 7482,-2.467594858,0.1614105086\C,0,0.711957139,-2.4505703555,0.1565976
 094\C,0,1.4440242819,-1.2159946704,0.0749448526\C,0,2.847453854,-1.173
 4232695,0.0687216663\C,0,3.5225936014,0.0438647344,-0.0120824478\C,0,2
 .8168669223,1.2439230791,-0.088095832\C,0,1.4127921645,1.2515444274,-0

 Normal termination of Gaussian 16 at Tue Mar  1 05:55:59 2022.
 Gaussian 16:  ES64L-G16RevA.03 25-Dec-2016

 ----------------------------------------------------------------------
 #p b3lyp/6-31G(d) scrf=(iefpcm,read,solvent=water) geom=allcheck guess
 =read
 ----------------------------------------------------------------------

 Structure from the checkpoint file:  "131.n.pdb.xyz.mst.wat.chk"
 -------------
 131.n.pdb.xyz
 -------------
 Charge =  0 Multiplicity = 1

                         Standard orientation:
 ---------------------------------------------------------------------
 Center     Atomic      Atomic             Coordinates (Angstroms)
 Number     Number       Type             X           Y           Z
 ---------------------------------------------------------------------
      1          6           0       -3.522594   -0.043865    0.012082
      2          6           0       -2.816867   -1.243923    0.088096
      3          6           0       -1.412792   -1.251544    0.084744
      4          6           0       -0.649713   -2.467595    0.161411
      5          6           0        0.711957   -2.450570    0.156598
      6          6           0        1.444024   -1.215995    0.074945
      7          6           0        2.847454   -1.173423    0.068722
      8          6           0        3.522594    0.043865   -0.012082
      9          6           0        2.816867    1.243923   -0.088096
     10          6           0        1.412792    1.251544   -0.084744
     11          6           0        0.649713    2.467595   -0.161411
     12          6           0       -0.711957    2.450570   -0.156598
     13          6           0       -1.444024    1.215995   -0.074945
     14          6           0       -2.847454    1.173423   -0.068722
     15          6           0       -0.713104   -0.008867    0.002417
     16          6           0        0.713104    0.008867   -0.002417
     17          1           0       -4.607396   -0.057335    0.015869
     18          1           0       -3.350198   -2.187421    0.150718
     19          1           0       -1.187476   -3.408690    0.223931
     20          1           0        1.273395   -3.377871    0.215251
     21          1           0        3.404653   -2.103273    0.127598
     22          1           0        4.607396    0.057335   -0.015869
     23          1           0        3.350198    2.187421   -0.150718
     24          1           0        1.187476    3.408690   -0.223931
     25          1           0       -1.273395    3.377871   -0.215251
     26          1           0       -3.404653    2.103273   -0.127598
 ---------------------------------------------------------------------

 SCF Done:  E(RB3LYP) =  -615.776760124     A.U. after    9 cycles

 The electronic state is 1-AG.
 Alpha  occ. eigenvalues --  -10.20305 -10.20294 -10.20280 -10.20279 -10.20243
 Alpha  occ. eigenvalues --  -10.20212 -10.19506 -10.19506 -10.19436 -10.19435
 Alpha  occ. eigenvalues --  -10.19410 -10.19410 -10.19337 -10.19337 -10.19316
 Alpha  occ. eigenvalues --  -10.19316  -0.89440  -0.85213  -0.83178  -0.79755
 Alpha  occ. eigenvalues --   -0.76787  -0.74936  -0.73139  -0.71081  -0.62872
 Alpha  occ. eigenvalues --   -0.62861  -0.62454  -0.60926  -0.54582  -0.52446
 Alpha  occ. eigenvalues --   -0.51797  -0.50242  -0.49197  -0.47091  -0.44099
 Alpha  occ. eigenvalues --   -0.43447  -0.43298  -0.41675  -0.41486  -0.40043
 Alpha  occ. eigenvalues --   -0.39744  -0.39072  -0.36699  -0.36543  -0.36507
 Alpha  occ. eigenvalues --   -0.34505  -0.32981  -0.32044  -0.30046  -0.27757
 Alpha  occ. eigenvalues --   -0.25921  -0.23454  -0.20157
 Alpha virt. eigenvalues --   -0.05995  -0.02876  -0.00769   0.01589   0.05452
 Alpha virt. eigenvalues --    0.09841   0.10897   0.11252   0.12182   0.13578
 Alpha virt. eigenvalues --    0.14659   0.15633   0.16201   0.16581   0.18887

 Mulliken charges:
               1
     1  C   -0.141093
     2  C   -0.241227
     3  C    0.147874
     4  C   -0.211243
     5  C   -0.211267
     6  C    0.147915
     7  C   -0.241263
     8  C   -0.141093
     9  C   -0.241227
    10  C    0.147874
    11  C   -0.211243
    12  C   -0.211267
    13  C    0.147915
    14  C   -0.241263
    15  C   -0.015937
    16  C   -0.015937
    17  H    0.152478
    18  H    0.152847
    19  H    0.154011
    20  H    0.154055
    21  H    0.152850
    22  H    0.152478
    23  H    0.152847
    24  H    0.154011
    25  H    0.154055
    26  H    0.152850
 Sum of Mulliken charges =  -0.00000

 Dipole moment (field-independent basis, Debye):
    X=             -0.0000    Y=             -0.0000    Z=             -0.0000  Tot=              0.0000
 Quadrupole moment (field-independent basis, Debye-Ang):
   XX=            -75.5977   YY=            -76.4272   ZZ=            -96.6034
   XY=              0.0040   XZ=             -0.0556   YZ=             -1.3142

 1\1\GINC-PIRINEUS11\SP\RB3LYP\6-31G(d)\C16H10\UBATOR01\01-Mar-2022\0\\
 #p b3lyp/6-31G(d) scrf=(iefpcm,read,solvent=water) geom=allcheck guess
 =read\\131.n.pdb.xyz\\0,1\C,0,-3.5225936014,-0.0438647344,0.0120824478
 \C,0,-2.8168669223,-1.2439230791,0.088095832\C,0,-1.4127921645,-1.2515
 444274,0.0847440873\C,0,-0.6497127482,-2.467594858,0.1614105086\C,0,0.
 711957139,-2.4505703555,0.1565976094\C,0,1.4440242819,-1.2159946704,0.
 0749448526\C,0,2.847453854,-1.1734232695,0.0687216663\C,0,3.5225936014
 ,0.0438647344,-0.0120824478\C,0,2.8168669223,1.2439230791,-0.088095832

 Normal termination of Gaussian 16 at Tue Mar  1 05:57:03 2022.
