 Gaussian 16, Revision A.03,

 ----------------------------------------------------------------------
 #p b3lyp/6-31G(d) opt=(MaxStep=10,MaxCycles=1000) freq scf=(MaxCycle=2
 000,NoVarAcc,NoIncFock) scrf=(iefpcm,read,solvent=water)
 ----------------------------------------------------------------------

 -------------
 133.n.pdb.xyz
 -------------
 Symbolic Z-matrix:
 Charge =  0 Multiplicity = 1

 SCF Done:  E(RB3LYP) =  -312.294567303     A.U. after   11 cycles
 SCF Done:  E(RB3LYP) =  -312.295001278     A.U. after    9 cycles
 SCF Done:  E(RB3LYP) =  -312.295318694     A.U. after    9 cycles
 SCF Done:  E(RB3LYP) =  -312.295227637     A.U. after    8 cycles
 SCF Done:  E(RB3LYP) =  -312.295387866     A.U. after    9 cycles
 SCF Done:  E(RB3LYP) =  -312.295391566     A.U. after    7 cycles
 SCF Done:  E(RB3LYP) =  -312.295395502     A.U. after    7 cycles
 SCF Done:  E(RB3LYP) =  -312.295397793     A.U. after    7 cycles
 SCF Done:  E(RB3LYP) =  -312.295397246     A.U. after    6 cycles
 SCF Done:  E(RB3LYP) =  -312.295396547     A.U. after    7 cycles
 SCF Done:  E(RB3LYP) =  -312.295397489     A.U. after    7 cycles
 SCF Done:  E(RB3LYP) =  -312.295397742     A.U. after    7 cycles
 SCF Done:  E(RB3LYP) =  -312.295398037     A.U. after    7 cycles
 SCF Done:  E(RB3LYP) =  -312.295398227     A.U. after    6 cycles
 Optimization completed.
    -- Stationary point found.
 Normal termination of Gaussian 16 at Tue Mar  1 17:15:48 2022.

 --------------------------------------------------------------------
 #P Geom=AllCheck Guess=TCheck SCRF=Check GenChk RB3LYP/6-31G(d) Freq
 --------------------------------------------------------------------

 Structure from the checkpoint file:  "133.n.pdb.xyz.mst.wat.chk"
 -------------
 133.n.pdb.xyz
 -------------
 Charge =  0 Multiplicity = 1

 SCF Done:  E(RB3LYP) =  -312.295398227     A.U. after    1 cycles

  Exact polarizability:  95.978   1.249  84.349  -0.054  -0.039  84.478
 Approx polarizability:  94.027   0.664  88.623  -0.081   0.072  86.350

                      1                      2                      3
                      A                      A                      A
 Frequencies --     45.8800                98.3933               198.3848
 Red. masses --      1.7062                 2.3682                 2.6759
 Frc consts  --      0.0021                 0.0135                 0.0621
 IR Inten    --      1.0633                 6.1093                 1.1005

                      4                      5                      6
                      A                      A                      A
 Frequencies --    212.2725               249.5228               260.6004
 Red. masses --      1.0455                 1.0813                 1.0781
 Frc consts  --      0.0278                 0.0397                 0.0431
 IR Inten    --      0.2631                 0.1463                 0.3573

                      7                      8                      9
                      A                      A                      A
 Frequencies --    275.4098               327.7987               337.5433
 Red. masses --      1.2039                 2.3419                 2.2876
 Frc consts  --      0.0538                 0.1483                 0.1536
 IR Inten    --      2.2615                 0.8336                 2.3460

                     10                     11                     12
                      A                      A                      A
 Frequencies --    361.5347               443.3742               451.1253
 Red. masses --      2.5156                 2.4208                 2.7938
 Frc consts  --      0.1937                 0.2804                 0.3350
 IR Inten    --      0.0282                 0.9455                 9.4102

                     13                     14                     15
                      A                      A                      A
 Frequencies --    508.8410               747.0792               834.9924
 Red. masses --      2.5897                 3.4726                 1.0911
 Frc consts  --      0.3951                 1.1419                 0.4482
 IR Inten    --      0.7807                 5.5731                 0.5029

                     16                     17                     18
                      A                      A                      A
 Frequencies --    857.3999               917.7290               929.7448
 Red. masses --      2.2668                 1.6651                 1.6330
 Frc consts  --      0.9818                 0.8262                 0.8317
 IR Inten    --     20.5654                 0.0469                 1.2807

                     19                     20                     21
                      A                      A                      A
 Frequencies --    965.3987               973.9820              1046.8652
 Red. masses --      1.1996                 2.4696                 1.4012
 Frc consts  --      0.6587                 1.3803                 0.9047
 IR Inten    --      0.0206                36.5312                 2.9878

                     22                     23                     24
                      A                      A                      A
 Frequencies --   1052.2585              1098.7148              1147.6281
 Red. masses --      1.4031                 4.2076                 2.2918
 Frc consts  --      0.9153                 2.9926                 1.7784
 IR Inten    --      4.5847               173.6726                66.6426

                     25                     26                     27
                      A                      A                      A
 Frequencies --   1194.6480              1228.6531              1261.9112
 Red. masses --      1.5193                 2.2991                 2.6914
 Frc consts  --      1.2776                 2.0448                 2.5252
 IR Inten    --      7.8428               134.7107                38.6683

                     28                     29                     30
                      A                      A                      A
 Frequencies --   1288.8408              1312.2403              1407.2471
 Red. masses --      2.8147                 1.1267                 1.2687
 Frc consts  --      2.7547                 1.1431                 1.4803
 IR Inten    --     40.4411                 0.3602                14.1139

                     31                     32                     33
                      A                      A                      A
 Frequencies --   1416.6713              1420.8673              1435.6173
 Red. masses --      1.2695                 1.2876                 1.2783
 Frc consts  --      1.5012                 1.5315                 1.5522
 IR Inten    --     17.6309                 4.1771                 0.2209

                     34                     35                     36
                      A                      A                      A
 Frequencies --   1446.0767              1495.6289              1502.8347
 Red. masses --      1.3197                 1.0497                 1.0492
 Frc consts  --      1.6260                 1.3834                 1.3961
 IR Inten    --     30.1136                 0.7641                 1.2213

                     37                     38                     39
                      A                      A                      A
 Frequencies --   1505.3096              1506.6561              1517.4615
 Red. masses --      1.0468                 1.0422                 1.0557
 Frc consts  --      1.3975                 1.3939                 1.4323
 IR Inten    --      0.4836                 7.4616                 1.8872

                     40                     41                     42
                      A                      A                      A
 Frequencies --   1518.6292              1522.8923              1532.3224
 Red. masses --      1.0534                 1.0543                 1.0580
 Frc consts  --      1.4313                 1.4407                 1.4636
 IR Inten    --      0.9922                 7.0719                 7.6852

                     43                     44                     45
                      A                      A                      A
 Frequencies --   1554.7161              3028.4441              3056.7538
 Red. masses --      1.0882                 1.0545                 1.0843
 Frc consts  --      1.5497                 5.6980                 5.9691
 IR Inten    --      6.9883                65.4597                19.3083

                     46                     47                     48
                      A                      A                      A
 Frequencies --   3062.7361              3065.0831              3069.5112
 Red. masses --      1.0426                 1.0477                 1.0354
 Frc consts  --      5.7619                 5.7994                 5.7476
 IR Inten    --     59.9076                88.9538                34.2158

                     49                     50                     51
                      A                      A                      A
 Frequencies --   3072.1045              3131.3170              3135.0216
 Red. masses --      1.0368                 1.1031                 1.1030
 Frc consts  --      5.7654                 6.3729                 6.3871
 IR Inten    --      5.8962                16.3026                34.0558

                     52                     53                     54
                      A                      A                      A
 Frequencies --   3136.5383              3136.7777              3138.9551
 Red. masses --      1.1025                 1.1026                 1.1037
 Frc consts  --      6.3905                 6.3917                 6.4073
 IR Inten    --     24.7221                73.0681                49.9403

                     55                     56                     57
                      A                      A                      A
 Frequencies --   3141.7724              3144.7571              3144.9936
 Red. masses --      1.1023                 1.1024                 1.1021
 Frc consts  --      6.4104                 6.4234                 6.4224
 IR Inten    --     50.6370                52.8284               111.3466

 - Thermochemistry -
 -------------------
 Temperature   298.150 Kelvin.  Pressure   1.00000 Atm.
 Atom     1 has atomic number  6 and mass  12.00000

 Molecular mass:   102.10447 amu.
 Principal axes and moments of inertia in atomic units:
                           1         2         3
     Eigenvalues --   442.495601163.556111181.60642
           X            0.99999   0.00334   0.00017
           Y           -0.00334   0.99998  -0.00623
           Z           -0.00019   0.00623   0.99998
 This molecule is an asymmetric top.
 Rotational symmetry number  1.
 Warning -- assumption of classical behavior for rotation
           may cause significant error
 Rotational temperatures (Kelvin)      0.19574     0.07444     0.07330
 Rotational constants (GHZ):           4.07855     1.55106     1.52736
 Zero-point vibrational energy     507674.0 (Joules/Mol)
                                  121.33700 (Kcal/Mol)
 Warning -- explicit consideration of  13 degrees of freedom as
           vibrations may cause significant error
 Vibrational temperatures:     66.01   141.57   285.43   305.41   359.01
          (Kelvin)            374.95   396.25   471.63   485.65   520.17
                              637.92   649.07   732.11  1074.88  1201.37
                             1233.61  1320.41  1337.70  1388.99  1401.34
                             1506.21  1513.97  1580.81  1651.18  1718.83
                             1767.76  1815.61  1854.35  1888.02  2024.71
                             2038.27  2044.31  2065.53  2080.58  2151.88
                             2162.24  2165.80  2167.74  2183.29  2184.97
                             2191.10  2204.67  2236.89  4357.26  4397.99
                             4406.59  4409.97  4416.34  4420.07  4505.27
                             4510.60  4512.78  4513.12  4516.26  4520.31
                             4524.60  4524.94

 Zero-point correction=                           0.193363 (Hartree/Particle)
 Thermal correction to Energy=                    0.202811
 Thermal correction to Enthalpy=                  0.203755
 Thermal correction to Gibbs Free Energy=         0.159656
 Sum of electronic and zero-point Energies=           -312.102035
 Sum of electronic and thermal Energies=              -312.092588
 Sum of electronic and thermal Enthalpies=            -312.091643
 Sum of electronic and thermal Free Energies=         -312.135742

                     E (Thermal)             CV                S
                      KCal/Mol        Cal/Mol-Kelvin    Cal/Mol-Kelvin
 Total                  127.266             34.333             92.813
 Electronic               0.000              0.000              0.000
 Translational            0.889              2.981             39.780
 Rotational               0.889              2.981             27.900
 Vibrational            125.488             28.371             25.133
 Vibration     1          0.595              1.979              4.988
 Vibration     2          0.604              1.950              3.486
 Vibration     3          0.637              1.842              2.148
 Vibration     4          0.643              1.822              2.024
 Vibration     5          0.662              1.764              1.734
 Vibration     6          0.669              1.745              1.658
 Vibration     7          0.677              1.719              1.562
 Vibration     8          0.711              1.620              1.271
 Vibration     9          0.718              1.601              1.224
 Vibration    10          0.736              1.551              1.115
 Vibration    11          0.803              1.376              0.816
 Vibration    12          0.810              1.358              0.792
 Vibration    13          0.864              1.230              0.636

 Optimization completed.
    -- Stationary point found.
 Normal termination of Gaussian 16 at Tue Mar  1 17:21:26 2022.

 ------------------------------------------
 #p b3lyp/6-31G(d) geom=allcheck guess=read
 ------------------------------------------

 Structure from the checkpoint file:  "133.n.pdb.xyz.mst.wat.chk"
 -------------
 133.n.pdb.xyz
 -------------
 Charge =  0 Multiplicity = 1

 SCF Done:  E(RB3LYP) =  -312.293389750     A.U. after    9 cycles

 1\1\GINC-PIRINEUS6\SP\RB3LYP\6-31G(d)\C6H14O1\UBATOR01\01-Mar-2022\0\\
 #p b3lyp/6-31G(d) geom=allcheck guess=read\\133.n.pdb.xyz\\0,1\C,0,2.8
 965848738,-0.1045950327,0.2991130525\C,0,1.471145831,0.3666331901,0.53
 43791824\O,0,0.6113956774,-0.4264603143,-0.2779020203\C,0,-0.805328996
 ,-0.1363117247,-0.2287390936\C,0,-1.4194554114,-1.1719299645,-1.173478
 0955\C,0,-1.3503509053,-0.326618469,1.1935433602\C,0,-1.0848472974,1.2
 836663356,-0.7419898282\H,0,3.5927397021,0.4785804704,0.9077595592\H,0
 ,3.1750843509,0.0135108557,-0.7522944292\H,0,3.0046589881,-1.159774046

 Normal termination of Gaussian 16 at Tue Mar  1 17:21:56 2022.
 Gaussian 16:  ES64L-G16RevA.03 25-Dec-2016

 ----------------------------------------------------------------------
 #p b3lyp/6-31G(d) scrf=(iefpcm,read,solvent=water) geom=allcheck guess
 =read
 ----------------------------------------------------------------------

 Structure from the checkpoint file:  "133.n.pdb.xyz.mst.wat.chk"
 -------------
 133.n.pdb.xyz
 -------------
 Charge =  0 Multiplicity = 1

                         Standard orientation:
 ---------------------------------------------------------------------
 Center     Atomic      Atomic             Coordinates (Angstroms)
 Number     Number       Type             X           Y           Z
 ---------------------------------------------------------------------
      1          6           0       -2.852024    0.310760    0.002100
      2          6           0       -1.531258   -0.440808   -0.000152
      3          8           0       -0.482748    0.522649    0.018384
      4          6           0        0.876721    0.027463   -0.000306
      5          6           0        1.725657    1.299456    0.059095
      6          6           0        1.152077   -0.851920    1.227301
      7          6           0        1.155812   -0.737968   -1.301889
      8          1           0       -3.687833   -0.393843   -0.009471
      9          1           0       -2.932252    0.955691   -0.878011
     10          1           0       -2.940252    0.935659    0.895805
     11          1           0       -1.458242   -1.076795   -0.891874
     12          1           0       -1.467807   -1.099393    0.875848
     13          1           0        1.511819    1.858354    0.974822
     14          1           0        1.506114    1.944709   -0.796492
     15          1           0        2.791475    1.055941    0.043670
     16          1           0        2.208499   -1.132057    1.263371
     17          1           0        0.909104   -0.309743    2.146617
     18          1           0        0.564753   -1.773758    1.206836
     19          1           0        0.556405   -1.649644   -1.371720
     20          1           0        2.209423   -1.028097   -1.353946
     21          1           0        0.928875   -0.110117   -2.169423
 ---------------------------------------------------------------------

 SCF Done:  E(RB3LYP) =  -312.295115564     A.U. after    9 cycles

 The electronic state is 1-A.
 Alpha  occ. eigenvalues --  -19.13739 -10.23885 -10.22218 -10.17223 -10.16934
 Alpha  occ. eigenvalues --  -10.16929 -10.16903  -1.01770  -0.79730  -0.73488
 Alpha  occ. eigenvalues --   -0.68660  -0.68630  -0.61187  -0.54692  -0.48232
 Alpha  occ. eigenvalues --   -0.46732  -0.44672  -0.43806  -0.40616  -0.40048
 Alpha  occ. eigenvalues --   -0.39076  -0.37138  -0.36572  -0.36468  -0.35456
 Alpha  occ. eigenvalues --   -0.33626  -0.33481  -0.29639  -0.24853
 Alpha virt. eigenvalues --    0.08489   0.11402   0.11792   0.13649   0.13977
 Alpha virt. eigenvalues --    0.15435   0.16175   0.16927   0.18160   0.19691
 Alpha virt. eigenvalues --    0.19968   0.20272   0.20423   0.21013   0.22196

 Mulliken charges:
               1
     1  C   -0.463996
     2  C   -0.014007
     3  O   -0.531957
     4  C    0.332583
     5  C   -0.459293
     6  C   -0.469439
     7  C   -0.467983
     8  H    0.153135
     9  H    0.152613
    10  H    0.152616
    11  H    0.131742
    12  H    0.132152
    13  H    0.147863
    14  H    0.147958
    15  H    0.149436
    16  H    0.151198
    17  H    0.149469
    18  H    0.153207
    19  H    0.152854
    20  H    0.150778
    21  H    0.149071
 Sum of Mulliken charges =  -0.00000

 Dipole moment (field-independent basis, Debye):
    X=              0.4055    Y=             -1.5649    Z=             -0.0384  Tot=              1.6170
 Quadrupole moment (field-independent basis, Debye-Ang):
   XX=            -42.9297   YY=            -46.6697   ZZ=            -45.8556
   XY=              1.2652   XZ=              0.0254   YZ=             -0.0311

 1\1\GINC-PIRINEUS6\SP\RB3LYP\6-31G(d)\C6H14O1\UBATOR01\01-Mar-2022\0\\
 #p b3lyp/6-31G(d) scrf=(iefpcm,read,solvent=water) geom=allcheck guess
 =read\\133.n.pdb.xyz\\0,1\C,0,2.8965848738,-0.1045950327,0.2991130525\
 C,0,1.471145831,0.3666331901,0.5343791824\O,0,0.6113956774,-0.42646031
 43,-0.2779020203\C,0,-0.805328996,-0.1363117247,-0.2287390936\C,0,-1.4
 194554114,-1.1719299645,-1.1734780955\C,0,-1.3503509053,-0.326618469,1
 .1935433602\C,0,-1.0848472974,1.2836663356,-0.7419898282\H,0,3.5927397
 021,0.4785804704,0.9077595592\H,0,3.1750843509,0.0135108557,-0.7522944

 Normal termination of Gaussian 16 at Tue Mar  1 17:22:34 2022.
