 Gaussian 16, Revision A.03,

 ----------------------------------------------------------------------
 #p b3lyp/6-31G(d) opt=(MaxStep=10,MaxCycles=1000) freq scf=(MaxCycle=2
 000,NoVarAcc,NoIncFock) scrf=(iefpcm,read,solvent=water)
 ----------------------------------------------------------------------

 -------------
 134.n.pdb.xyz
 -------------
 Symbolic Z-matrix:
 Charge =  0 Multiplicity = 1

 SCF Done:  E(RB3LYP) =  -803.330361990     A.U. after   13 cycles
 SCF Done:  E(RB3LYP) =  -803.333660437     A.U. after   11 cycles
 SCF Done:  E(RB3LYP) =  -803.330460959     A.U. after   12 cycles
 SCF Done:  E(RB3LYP) =  -803.334977544     A.U. after   10 cycles
 SCF Done:  E(RB3LYP) =  -803.333509086     A.U. after   11 cycles
 SCF Done:  E(RB3LYP) =  -803.335722513     A.U. after   11 cycles
 SCF Done:  E(RB3LYP) =  -803.335681614     A.U. after   11 cycles
 SCF Done:  E(RB3LYP) =  -803.336130113     A.U. after   11 cycles
 SCF Done:  E(RB3LYP) =  -803.336938949     A.U. after   11 cycles
 SCF Done:  E(RB3LYP) =  -803.338094426     A.U. after   12 cycles
 SCF Done:  E(RB3LYP) =  -803.341344247     A.U. after   10 cycles
 SCF Done:  E(RB3LYP) =  -803.341341798     A.U. after   10 cycles
 SCF Done:  E(RB3LYP) =  -803.341350831     A.U. after    8 cycles
 SCF Done:  E(RB3LYP) =  -803.341353314     A.U. after    7 cycles
 SCF Done:  E(RB3LYP) =  -803.341355752     A.U. after    7 cycles
 SCF Done:  E(RB3LYP) =  -803.341357101     A.U. after    7 cycles
 SCF Done:  E(RB3LYP) =  -803.341358046     A.U. after    6 cycles
 Optimization completed.
    -- Stationary point found.
 Normal termination of Gaussian 16 at Tue Mar  1 21:58:26 2022.

 --------------------------------------------------------------------
 #P Geom=AllCheck Guess=TCheck SCRF=Check GenChk RB3LYP/6-31G(d) Freq
 --------------------------------------------------------------------

 Structure from the checkpoint file:  "134.n.pdb.xyz.mst.wat.chk"
 -------------
 134.n.pdb.xyz
 -------------
 Charge =  0 Multiplicity = 1

 SCF Done:  E(RB3LYP) =  -803.341358046     A.U. after    1 cycles

  Exact polarizability: 194.832  14.743 218.129  -9.656   7.795 161.487
 Approx polarizability: 205.326  17.512 238.824 -15.735  10.643 182.563

                      1                      2                      3
                      A                      A                      A
 Frequencies --     26.4560                61.1195                73.3513
 Red. masses --      5.3750                 4.0525                 2.7123
 Frc consts  --      0.0022                 0.0089                 0.0086
 IR Inten    --      0.3691                 0.5289                 0.8888

                      4                      5                      6
                      A                      A                      A
 Frequencies --     75.3843                90.4094               107.1259
 Red. masses --      1.6367                 3.8614                 4.3390
 Frc consts  --      0.0055                 0.0186                 0.0293
 IR Inten    --      0.1799                 0.0434                 0.4315

                      7                      8                      9
                      A                      A                      A
 Frequencies --    129.2711               141.9695               161.3261
 Red. masses --      7.0518                 5.4743                 3.0580
 Frc consts  --      0.0694                 0.0650                 0.0469
 IR Inten    --      1.7803                 8.4380                 3.8340

                     10                     11                     12
                      A                      A                      A
 Frequencies --    178.0389               198.3813               215.3694
 Red. masses --      2.4783                 2.0141                 2.1382
 Frc consts  --      0.0463                 0.0467                 0.0584
 IR Inten    --      0.2465                 0.4644                 0.6369

                     13                     14                     15
                      A                      A                      A
 Frequencies --    230.1953               253.0726               265.1697
 Red. masses --      2.4776                 1.3087                 2.7238
 Frc consts  --      0.0774                 0.0494                 0.1128
 IR Inten    --      0.2795                 0.2311                 2.4386

                     16                     17                     18
                      A                      A                      A
 Frequencies --    299.6843               319.5325               335.1640
 Red. masses --      3.6497                 3.5157                 2.7368
 Frc consts  --      0.1931                 0.2115                 0.1811
 IR Inten    --     16.8866                 3.5926                11.3719

                     19                     20                     21
                      A                      A                      A
 Frequencies --    374.6436               388.4417               398.5772
 Red. masses --      3.0945                 7.4390                 4.2274
 Frc consts  --      0.2559                 0.6613                 0.3957
 IR Inten    --     10.0254                52.9334                 7.0528

                     22                     23                     24
                      A                      A                      A
 Frequencies --    439.8502               457.0557               506.0878
 Red. masses --      2.6664                 3.2335                 9.1746
 Frc consts  --      0.3039                 0.3980                 1.3845
 IR Inten    --      7.6326                 0.0988                18.2924

                     25                     26                     27
                      A                      A                      A
 Frequencies --    550.5278               608.9163               613.2068
 Red. masses --      2.7318                 2.2762                 1.2108
 Frc consts  --      0.4878                 0.4973                 0.2682
 IR Inten    --     41.3559                31.5911                36.4845

                     28                     29                     30
                      A                      A                      A
 Frequencies --    659.2964               672.8480               692.9091
 Red. masses --      1.2870                 2.8354                 5.5963
 Frc consts  --      0.3296                 0.7563                 1.5831
 IR Inten    --    232.3254                62.2115                17.0262

                     31                     32                     33
                      A                      A                      A
 Frequencies --    721.8028               743.3676               749.5138
 Red. masses --      3.8647                 6.8367                11.0826
 Frc consts  --      1.1863                 2.2259                 3.6682
 IR Inten    --     46.6908                 4.8752                53.7916

                     34                     35                     36
                      A                      A                      A
 Frequencies --    755.0078               773.0518               863.4433
 Red. masses --      1.1255                 3.4381                 1.5203
 Frc consts  --      0.3780                 1.2106                 0.6678
 IR Inten    --      8.4286                11.0903                 2.5479

                     37                     38                     39
                      A                      A                      A
 Frequencies --    873.4067               894.0961               940.6005
 Red. masses --      1.8706                 1.8253                 2.1748
 Frc consts  --      0.8408                 0.8597                 1.1337
 IR Inten    --     13.9948                 6.0547                 6.9748

                     40                     41                     42
                      A                      A                      A
 Frequencies --    944.5234               949.3662               979.3921
 Red. masses --      1.3783                 2.0976                 2.5247
 Frc consts  --      0.7245                 1.1139                 1.4268
 IR Inten    --     49.1266                10.5589                 9.8627

                     43                     44                     45
                      A                      A                      A
 Frequencies --   1022.4775              1025.9803              1043.5421
 Red. masses --      1.5193                 1.6893                 1.9784
 Frc consts  --      0.9358                 1.0477                 1.2693
 IR Inten    --      6.5219                 6.2505                13.2577

                     46                     47                     48
                      A                      A                      A
 Frequencies --   1046.0684              1057.9793              1074.1201
 Red. masses --      2.2426                 1.5463                 2.5386
 Frc consts  --      1.4459                 1.0197                 1.7256
 IR Inten    --      8.6911                 9.0292                 1.8737

                     49                     50                     51
                      A                      A                      A
 Frequencies --   1102.0295              1148.2634              1158.1317
 Red. masses --      2.6143                 2.6182                 2.1196
 Frc consts  --      1.8706                 2.0339                 1.6751
 IR Inten    --      6.4706                48.7982                11.6709

                     52                     53                     54
                      A                      A                      A
 Frequencies --   1170.8737              1205.4476              1235.6500
 Red. masses --      2.4638                 2.0131                 3.5924
 Frc consts  --      1.9901                 1.7235                 3.2316
 IR Inten    --     33.2307                 4.5930                83.6143

                     55                     56                     57
                      A                      A                      A
 Frequencies --   1275.6586              1300.4094              1315.4528
 Red. masses --      1.3390                 1.2675                 1.4029
 Frc consts  --      1.2838                 1.2629                 1.4303
 IR Inten    --      8.9569                12.3514                98.5712

                     58                     59                     60
                      A                      A                      A
 Frequencies --   1335.1493              1342.6768              1353.7219
 Red. masses --      1.2403                 1.2865                 1.4414
 Frc consts  --      1.3027                 1.3665                 1.5563
 IR Inten    --     18.1079                 2.8627               117.9595

                     61                     62                     63
                      A                      A                      A
 Frequencies --   1358.9469              1370.8529              1398.8080
 Red. masses --      2.3671                 1.2816                 1.3254
 Frc consts  --      2.5756                 1.4191                 1.5280
 IR Inten    --    456.0281                24.7789                 2.6299

                     64                     65                     66
                      A                      A                      A
 Frequencies --   1414.1757              1415.3835              1431.3098
 Red. masses --      2.7852                 1.4631                 1.2574
 Frc consts  --      3.2818                 1.7269                 1.5177
 IR Inten    --    270.4413                11.2212                 1.7236

                     67                     68                     69
                      A                      A                      A
 Frequencies --   1435.2410              1441.7652              1463.5893
 Red. masses --      2.3061                 1.2362                 2.1558
 Frc consts  --      2.7988                 1.5140                 2.7208
 IR Inten    --    326.0279                 6.7440               135.6050

                     70                     71                     72
                      A                      A                      A
 Frequencies --   1469.1686              1491.1494              1505.5638
 Red. masses --      1.2011                 1.1036                 1.0549
 Frc consts  --      1.5275                 1.4458                 1.4089
 IR Inten    --      3.0530                20.2606                 1.1939

                     73                     74                     75
                      A                      A                      A
 Frequencies --   1515.1567              1517.1009              1521.6833
 Red. masses --      1.0567                 1.0416                 1.0528
 Frc consts  --      1.4293                 1.4125                 1.4362
 IR Inten    --      3.3440                 7.8762                 2.7023

                     76                     77                     78
                      A                      A                      A
 Frequencies --   1523.7670              1537.4938              1725.9298
 Red. masses --      1.0635                 1.0895                 4.4974
 Frc consts  --      1.4549                 1.5174                 7.8933
 IR Inten    --      1.0873                 8.6816                 8.1624

                     79                     80                     81
                      A                      A                      A
 Frequencies --   1751.6160              1771.2232              1814.8144
 Red. masses --      9.7456                 7.2023                12.1985
 Frc consts  --     17.6171                13.3128                23.6713
 IR Inten    --    761.4605              1343.6296               187.2523

                     82                     83                     84
                      A                      A                      A
 Frequencies --   3043.7396              3045.0686              3054.3213
 Red. masses --      1.0640                 1.0780                 1.0367
 Frc consts  --      5.8079                 5.8893                 5.6983
 IR Inten    --     18.9768                36.4539                39.2628

                     85                     86                     87
                      A                      A                      A
 Frequencies --   3064.3171              3069.6758              3075.4642
 Red. masses --      1.0642                 1.0616                 1.0931
 Frc consts  --      5.8877                 5.8940                 6.0917
 IR Inten    --     86.6303                33.3255                14.2264

                     88                     89                     90
                      A                      A                      A
 Frequencies --   3084.9461              3113.0563              3114.9010
 Red. masses --      1.0416                 1.1015                 1.1003
 Frc consts  --      5.8406                 6.2892                 6.2902
 IR Inten    --     40.3420                 1.1264                19.1372

                     91                     92                     93
                      A                      A                      A
 Frequencies --   3120.6743              3124.6934              3146.5036
 Red. masses --      1.1025                 1.1021                 1.1017
 Frc consts  --      6.3261                 6.3397                 6.4266
 IR Inten    --    133.4819                67.0610                43.8817

                     94                     95                     96
                      A                      A                      A
 Frequencies --   3156.4523              3164.1770              3185.9813
 Red. masses --      1.0604                 1.1005                 1.0904
 Frc consts  --      6.2248                 6.4917                 6.5213
 IR Inten    --     28.1282                32.7333                23.5852

                     97                     98                     99
                      A                      A                      A
 Frequencies --   3238.7789              3564.9699              3569.4465
 Red. masses --      1.1153                 1.0776                 1.0797
 Frc consts  --      6.8928                 8.0693                 8.1050
 IR Inten    --     33.2262               220.1241               149.2096

 - Thermochemistry -
 -------------------
 Temperature   298.150 Kelvin.  Pressure   1.00000 Atm.
 Atom     1 has atomic number  6 and mass  12.00000

 Molecular mass:   238.13174 amu.
 Principal axes and moments of inertia in atomic units:
                           1         2         3
     Eigenvalues --  3384.250784615.823746097.88233
           X            0.99779  -0.06549   0.01160
           Y            0.06570   0.99766  -0.01865
           Z           -0.01035   0.01938   0.99976
 This molecule is an asymmetric top.
 Rotational symmetry number  1.
 Warning -- assumption of classical behavior for rotation
           may cause significant error
 Rotational temperatures (Kelvin)      0.02559     0.01876     0.01420
 Rotational constants (GHZ):           0.53328     0.39099     0.29596
 Zero-point vibrational energy     775996.6 (Joules/Mol)
                                  185.46763 (Kcal/Mol)
 Warning -- explicit consideration of  27 degrees of freedom as
           vibrations may cause significant error
 Vibrational temperatures:     38.06    87.94   105.54   108.46   130.08
          (Kelvin)            154.13   185.99   204.26   232.11   256.16
                              285.43   309.87   331.20   364.11   381.52
                              431.18   459.74   482.23   539.03   558.88
                              573.46   632.85   657.60   728.15   792.09
                              876.09   882.27   948.58   968.08   996.94
                             1038.51  1069.54  1078.38  1086.29  1112.25
                             1242.30  1256.64  1286.40  1353.31  1358.96
                             1365.93  1409.13  1471.12  1476.16  1501.42
                             1505.06  1522.20  1545.42  1585.57  1652.09
                             1666.29  1684.63  1734.37  1777.82  1835.39
                             1871.00  1892.64  1920.98  1931.81  1947.70
                             1955.22  1972.35  2012.57  2034.68  2036.42
                             2059.34  2064.99  2074.38  2105.78  2113.81
                             2145.43  2166.17  2179.97  2182.77  2189.36
                             2192.36  2212.11  2483.23  2520.18  2548.40
                             2611.11  4379.26  4381.17  4394.49  4408.87
                             4416.58  4424.91  4438.55  4478.99  4481.65
                             4489.95  4495.74  4527.12  4541.43  4552.54
                             4583.92  4659.88  5129.20  5135.64

 Zero-point correction=                           0.295561 (Hartree/Particle)
 Thermal correction to Energy=                    0.313332
 Thermal correction to Enthalpy=                  0.314276
 Thermal correction to Gibbs Free Energy=         0.249776
 Sum of electronic and zero-point Energies=           -803.045797
 Sum of electronic and thermal Energies=              -803.028026
 Sum of electronic and thermal Enthalpies=            -803.027082
 Sum of electronic and thermal Free Energies=         -803.091582

                     E (Thermal)             CV                S
                      KCal/Mol        Cal/Mol-Kelvin    Cal/Mol-Kelvin
 Total                  196.619             66.266            135.752
 Electronic               0.000              0.000              0.000
 Translational            0.889              2.981             42.304
 Rotational               0.889              2.981             32.921
 Vibrational            194.841             60.304             60.527
 Vibration     1          0.593              1.985              6.079
 Vibration     2          0.597              1.973              4.421
 Vibration     3          0.599              1.967              4.061
 Vibration     4          0.599              1.965              4.008
 Vibration     5          0.602              1.956              3.651
 Vibration     6          0.606              1.944              3.320
 Vibration     7          0.612              1.924              2.957
 Vibration     8          0.615              1.911              2.777
 Vibration     9          0.622              1.890              2.534
 Vibration    10          0.628              1.869              2.349
 Vibration    11          0.637              1.842              2.148
 Vibration    12          0.645              1.818              1.998
 Vibration    13          0.652              1.795              1.877
 Vibration    14          0.664              1.758              1.709
 Vibration    15          0.671              1.737              1.627
 Vibration    16          0.692              1.674              1.419
 Vibration    17          0.705              1.636              1.312
 Vibration    18          0.716              1.605              1.235
 Vibration    19          0.746              1.524              1.061
 Vibration    20          0.757              1.495              1.006
 Vibration    21          0.765              1.473              0.968
 Vibration    22          0.800              1.383              0.827
 Vibration    23          0.815              1.345              0.775
 Vibration    24          0.861              1.237              0.643
 Vibration    25          0.906              1.139              0.543
 Vibration    26          0.968              1.013              0.435
 Vibration    27          0.973              1.004              0.427

 Optimization completed.
    -- Stationary point found.
 Normal termination of Gaussian 16 at Tue Mar  1 22:36:31 2022.

 ------------------------------------------
 #p b3lyp/6-31G(d) geom=allcheck guess=read
 ------------------------------------------

 Structure from the checkpoint file:  "134.n.pdb.xyz.mst.wat.chk"
 -------------
 134.n.pdb.xyz
 -------------
 Charge =  0 Multiplicity = 1

 SCF Done:  E(RB3LYP) =  -803.318618859     A.U. after   11 cycles
 Normal termination of Gaussian 16 at Tue Mar  1 22:39:10 2022.
 Gaussian 16:  ES64L-G16RevA.03 25-Dec-2016

 ----------------------------------------------------------------------
 #p b3lyp/6-31G(d) scrf=(iefpcm,read,solvent=water) geom=allcheck guess
 =read
 ----------------------------------------------------------------------

 Structure from the checkpoint file:  "134.n.pdb.xyz.mst.wat.chk"
 -------------
 134.n.pdb.xyz
 -------------
 Charge =  0 Multiplicity = 1

                         Standard orientation:
 ---------------------------------------------------------------------
 Center     Atomic      Atomic             Coordinates (Angstroms)
 Number     Number       Type             X           Y           Z
 ---------------------------------------------------------------------
      1          6           0        4.270215   -1.911528    0.001127
      2          6           0        2.935598   -1.665505    0.707494
      3          6           0        2.104799   -0.569302    0.028409
      4          6           0        0.751982   -0.321205    0.725046
      5          6           0        0.921261    0.424778    2.057114
      6          6           0       -0.303873    0.352259   -0.272074
      7          6           0        0.258607    1.513050   -1.141677
      8          6           0        0.992738    2.645172   -0.478480
      9          6           0        0.696790    3.934867   -0.647757
     10          6           0       -0.696502   -0.780499   -1.231898
     11          8           0       -0.074257   -1.037479   -2.251606
     12          7           0       -1.754944   -1.580339   -0.846336
     13          6           0       -2.686870   -1.305772    0.140258
     14          8           0       -3.625874   -2.046591    0.379403
     15          7           0       -2.481441   -0.115367    0.814155
     16          6           0       -1.496310    0.824626    0.556759
     17          8           0       -1.577699    1.940954    1.041517
     18          1           0        4.888022   -1.006970   -0.003175
     19          1           0        4.116387   -2.212515   -1.040818
     20          1           0        4.841276   -2.702783    0.496537
     21          1           0        3.122991   -1.400286    1.754799
     22          1           0        2.351533   -2.594535    0.725133
     23          1           0        2.684350    0.361092    0.004709
     24          1           0        1.928968   -0.856790   -1.012470
     25          1           0        0.332852   -1.305123    0.968799
     26          1           0        1.249137    1.455931    1.914694
     27          1           0        1.678093   -0.089800    2.654956
     28          1           0       -0.002550    0.440519    2.640419
     29          1           0        0.934554    1.031710   -1.854293
     30          1           0       -0.568866    1.921626   -1.731632
     31          1           0        1.870575    2.382113    0.107170
     32          1           0        1.302035    4.721182   -0.205747
     33          1           0       -0.162898    4.252396   -1.234841
     34          1           0       -1.951399   -2.393544   -1.424468
     35          1           0       -3.228345    0.165000    1.445041
 ---------------------------------------------------------------------

 SCF Done:  E(RB3LYP) =  -803.340039961     A.U. after   11 cycles

 The electronic state is 1-A.
 Alpha  occ. eigenvalues --  -19.15023 -19.14602 -19.14471 -14.39196 -14.39040
 Alpha  occ. eigenvalues --  -10.35000 -10.32106 -10.31861 -10.23462 -10.21258
 Alpha  occ. eigenvalues --  -10.19605 -10.19127 -10.17966 -10.17936 -10.17713
 Alpha  occ. eigenvalues --  -10.17659 -10.17080  -1.08897  -1.06385  -1.05927
 Alpha  occ. eigenvalues --   -0.96498  -0.92362  -0.84503  -0.79441  -0.77021
 Alpha  occ. eigenvalues --   -0.73978  -0.69132  -0.68033  -0.66329  -0.65196
 Alpha  occ. eigenvalues --   -0.61391  -0.58159  -0.57097  -0.56318  -0.54454
 Alpha  occ. eigenvalues --   -0.49558  -0.49263  -0.47933  -0.46950  -0.46302
 Alpha  occ. eigenvalues --   -0.45548  -0.44922  -0.44375  -0.43844  -0.42236
 Alpha  occ. eigenvalues --   -0.41037  -0.40883  -0.39853  -0.39348  -0.38798
 Alpha  occ. eigenvalues --   -0.37672  -0.36685  -0.35487  -0.34669  -0.34076
 Alpha  occ. eigenvalues --   -0.32861  -0.32567  -0.32210  -0.30844  -0.29776
 Alpha  occ. eigenvalues --   -0.29404  -0.28937  -0.26437  -0.24975
 Alpha virt. eigenvalues --   -0.04503   0.00203   0.01828   0.06116   0.08901
 Alpha virt. eigenvalues --    0.09933   0.11025   0.11568   0.12048   0.12650
 Alpha virt. eigenvalues --    0.13541   0.14484   0.15646   0.15875   0.16626

 Mulliken charges:
               1
     1  C   -0.452311
     2  C   -0.260866
     3  C   -0.280747
     4  C   -0.098012
     5  C   -0.472828
     6  C   -0.143522
     7  C   -0.328918
     8  C   -0.037931
     9  C   -0.377047
    10  C    0.661489
    11  O   -0.527410
    12  N   -0.663050
    13  C    0.780806
    14  O   -0.540100
    15  N   -0.658562
    16  C    0.651730
    17  O   -0.529693
    18  H    0.147055
    19  H    0.146847
    20  H    0.147335
    21  H    0.144176
    22  H    0.139573
    23  H    0.146446
    24  H    0.160271
    25  H    0.153110
    26  H    0.162320
    27  H    0.163773
    28  H    0.160139
    29  H    0.184683
    30  H    0.162388
    31  H    0.146931
    32  H    0.151310
    33  H    0.148004
    34  H    0.406964
    35  H    0.405645
 Sum of Mulliken charges =  -0.00000

 Dipole moment (field-independent basis, Debye):
    X=              1.0705    Y=             -1.1628    Z=              0.8865  Tot=              1.8122
 Quadrupole moment (field-independent basis, Debye-Ang):
   XX=           -104.7227   YY=           -108.2881   ZZ=           -105.0978
   XY=             -3.1940   XZ=              5.9816   YZ=             -2.1589

 Normal termination of Gaussian 16 at Tue Mar  1 22:42:17 2022.
