 Gaussian 16, Revision A.03,

 ----------------------------------------------------------------------
 #p b3lyp/6-31G(d) opt=(MaxStep=10,MaxCycles=1000) freq scf=(MaxCycle=2
 000,NoVarAcc,NoIncFock) scrf=(iefpcm,read,solvent=water)
 ----------------------------------------------------------------------

 -------------
 135.n.pdb.xyz
 -------------
 Symbolic Z-matrix:
 Charge =  0 Multiplicity = 1

 SCF Done:  E(RB3LYP) =  -272.981518217     A.U. after   10 cycles
 SCF Done:  E(RB3LYP) =  -272.982851649     A.U. after    9 cycles
 SCF Done:  E(RB3LYP) =  -272.982881372     A.U. after    8 cycles
 SCF Done:  E(RB3LYP) =  -272.982881366     A.U. after    7 cycles
 Optimization completed.
    -- Stationary point found.
 Normal termination of Gaussian 16 at Tue Mar  1 20:49:56 2022.

 --------------------------------------------------------------------
 #P Geom=AllCheck Guess=TCheck SCRF=Check GenChk RB3LYP/6-31G(d) Freq
 --------------------------------------------------------------------

 Structure from the checkpoint file:  "135.n.pdb.xyz.mst.wat.chk"
 -------------
 135.n.pdb.xyz
 -------------
 Charge =  0 Multiplicity = 1

 SCF Done:  E(RB3LYP) =  -272.982881366     A.U. after    1 cycles

  Exact polarizability:  81.328  -0.723  71.194  -0.000  -0.007  69.286
 Approx polarizability:  76.495   0.140  74.742  -0.001  -0.008  73.343

                      1                      2                      3
                      A                      A                      A
 Frequencies --     79.8445               105.9291               132.5520
 Red. masses --      3.1930                 1.6639                 3.2817
 Frc consts  --      0.0120                 0.0110                 0.0340
 IR Inten    --      3.3112                 6.2216                 2.2399

                      4                      5                      6
                      A                      A                      A
 Frequencies --    155.8722               249.7387               288.9628
 Red. masses --      2.2550                 1.1130                 1.0731
 Frc consts  --      0.0323                 0.0409                 0.0528
 IR Inten    --      4.2062                 0.8996               199.4673

                      7                      8                      9
                      A                      A                      A
 Frequencies --    313.4702               360.7229               494.7561
 Red. masses --      3.3272                 3.5402                 3.1765
 Frc consts  --      0.1926                 0.2714                 0.4581
 IR Inten    --      5.8884                 0.1266                15.8133

                     10                     11                     12
                      A                      A                      A
 Frequencies --    745.3835               780.9187               868.6284
 Red. masses --      1.0666                 1.1053                 1.1618
 Frc consts  --      0.3491                 0.3971                 0.5165
 IR Inten    --      7.5697                 0.6597                 0.0326

                     13                     14                     15
                      A                      A                      A
 Frequencies --    906.7408               995.3803              1012.2938
 Red. masses --      1.9425                 1.1395                 2.8283
 Frc consts  --      0.9410                 0.6652                 1.7076
 IR Inten    --      5.2871                 3.0525                14.9691

                     16                     17                     18
                      A                      A                      A
 Frequencies --   1040.4552              1069.5792              1076.1786
 Red. masses --      3.4937                 3.6990                 2.1827
 Frc consts  --      2.2283                 2.4932                 1.4894
 IR Inten    --     14.9924               129.1296                 0.4429

                     19                     20                     21
                      A                      A                      A
 Frequencies --   1133.2754              1199.9483              1245.0480
 Red. masses --      2.0160                 1.6451                 1.2448
 Frc consts  --      1.5255                 1.3956                 1.1369
 IR Inten    --      3.6027                 2.7473                51.8258

                     22                     23                     24
                      A                      A                      A
 Frequencies --   1247.6778              1305.5720              1308.5255
 Red. masses --      1.3717                 1.2828                 1.2103
 Frc consts  --      1.2581                 1.2883                 1.2210
 IR Inten    --      1.2307                38.9818                 0.1336

                     25                     26                     27
                      A                      A                      A
 Frequencies --   1327.4439              1342.2841              1370.6138
 Red. masses --      1.0891                 1.0804                 1.4304
 Frc consts  --      1.1307                 1.1469                 1.5832
 IR Inten    --      0.2646                 0.4683                14.7427

                     28                     29                     30
                      A                      A                      A
 Frequencies --   1419.7116              1434.5595              1478.0104
 Red. masses --      1.6309                 1.2575                 1.4673
 Frc consts  --      1.9368                 1.5247                 1.8886
 IR Inten    --      0.6619                 1.2882                14.0269

                     31                     32                     33
                      A                      A                      A
 Frequencies --   1502.4870              1510.7893              1519.7776
 Red. masses --      1.0709                 1.0779                 1.0413
 Frc consts  --      1.4244                 1.4495                 1.4171
 IR Inten    --      0.1228                 1.2926                 6.7488

                     34                     35                     36
                      A                      A                      A
 Frequencies --   1523.6299              1535.8308              1553.4823
 Red. masses --      1.0814                 1.0929                 1.0881
 Frc consts  --      1.4791                 1.5189                 1.5472
 IR Inten    --      0.3436                 5.1282                 3.6896

                     37                     38                     39
                      A                      A                      A
 Frequencies --   2992.8094              3018.7493              3028.4106
 Red. masses --      1.0554                 1.1061                 1.0584
 Frc consts  --      5.5694                 5.9387                 5.7193
 IR Inten    --     91.8979                94.3307                31.4841

                     40                     41                     42
                      A                      A                      A
 Frequencies --   3038.3675              3044.2803              3052.4477
 Red. masses --      1.0594                 1.0592                 1.1005
 Frc consts  --      5.7620                 5.7834                 6.0415
 IR Inten    --     19.3266               151.1147                 1.2904

                     43                     44                     45
                      A                      A                      A
 Frequencies --   3052.8436              3072.2951              3087.8664
 Red. masses --      1.0362                 1.1045                 1.1059
 Frc consts  --      5.6897                 6.1426                 6.2126
 IR Inten    --     44.6590                 9.5690               195.3872

                     46                     47                     48
                      A                      A                      A
 Frequencies --   3115.8148              3121.4019              3741.3655
 Red. masses --      1.1031                 1.1021                 1.0666
 Frc consts  --      6.3097                 6.3265                 8.7966
 IR Inten    --    114.5993                71.9801                67.3412

 - Thermochemistry -
 -------------------
 Temperature   298.150 Kelvin.  Pressure   1.00000 Atm.
 Atom     1 has atomic number  6 and mass  12.00000

 Molecular mass:    88.08882 amu.
 Principal axes and moments of inertia in atomic units:
                           1         2         3
     Eigenvalues --   114.159601591.509571649.77366
           X            0.99997  -0.00713   0.00000
           Y            0.00713   0.99997  -0.00001
           Z           -0.00000   0.00001   1.00000
 This molecule is an asymmetric top.
 Rotational symmetry number  1.
 Rotational temperatures (Kelvin)      0.75871     0.05442     0.05250
 Rotational constants (GHZ):          15.80893     1.13398     1.09393
 Zero-point vibrational energy     436653.3 (Joules/Mol)
                                  104.36264 (Kcal/Mol)
 Warning -- explicit consideration of   9 degrees of freedom as
           vibrations may cause significant error
 Vibrational temperatures:    114.88   152.41   190.71   224.27   359.32
          (Kelvin)            415.75   451.01   519.00   711.84  1072.44
                             1123.57  1249.76  1304.60  1432.13  1456.46
                             1496.98  1538.89  1548.38  1630.53  1726.46
                             1791.35  1795.13  1878.43  1882.68  1909.90
                             1931.25  1972.01  2042.65  2064.01  2126.53
                             2161.74  2173.69  2186.62  2192.16  2209.72
                             2235.11  4305.99  4343.31  4357.21  4371.53
                             4380.04  4391.79  4392.36  4420.35  4442.75
                             4482.96  4491.00  5382.99

 Zero-point correction=                           0.166312 (Hartree/Particle)
 Thermal correction to Energy=                    0.174466
 Thermal correction to Enthalpy=                  0.175410
 Thermal correction to Gibbs Free Energy=         0.133979
 Sum of electronic and zero-point Energies=           -272.816569
 Sum of electronic and thermal Energies=              -272.808415
 Sum of electronic and thermal Enthalpies=            -272.807471
 Sum of electronic and thermal Free Energies=         -272.848902

                     E (Thermal)             CV                S
                      KCal/Mol        Cal/Mol-Kelvin    Cal/Mol-Kelvin
 Total                  109.479             27.928             87.199
 Electronic               0.000              0.000              0.000
 Translational            0.889              2.981             39.340
 Rotational               0.889              2.981             27.196
 Vibrational            107.702             21.966             20.662
 Vibration     1          0.600              1.963              3.895
 Vibration     2          0.605              1.944              3.342
 Vibration     3          0.613              1.921              2.909
 Vibration     4          0.620              1.896              2.599
 Vibration     5          0.663              1.763              1.732
 Vibration     6          0.686              1.694              1.480
 Vibration     7          0.701              1.648              1.344
 Vibration     8          0.735              1.553              1.119
 Vibration     9          0.850              1.262              0.671

 Optimization completed.
    -- Stationary point found.
 Normal termination of Gaussian 16 at Tue Mar  1 20:53:11 2022.

 ------------------------------------------
 #p b3lyp/6-31G(d) geom=allcheck guess=read
 ------------------------------------------

 Structure from the checkpoint file:  "135.n.pdb.xyz.mst.wat.chk"
 -------------
 135.n.pdb.xyz
 -------------
 Charge =  0 Multiplicity = 1

 SCF Done:  E(RB3LYP) =  -272.974797232     A.U. after   10 cycles

 1\1\GINC-PIRINEUS2\SP\RB3LYP\6-31G(d)\C5H12O1\UBATOR01\01-Mar-2022\0\\
 #p b3lyp/6-31G(d) geom=allcheck guess=read\\135.n.pdb.xyz\\0,1\C,0,-2.
 8158067678,0.0370606783,-0.2850626645\C,0,-1.5289978997,0.2245653841,0
 .5202541673\C,0,-0.2617273413,-0.0330287296,-0.3011927259\C,0,1.026944
 6592,0.1545460404,0.5039172696\C,0,2.2852700667,-0.1012341321,-0.31245
 03833\O,0,3.4168688701,0.1011080482,0.5344113631\H,0,-2.893173506,-0.9
 842966983,-0.6740335164\H,0,-3.7021919216,0.2278959783,0.3283184141\H,
 0,-2.8493179475,0.7202475763,-1.1409940826\H,0,-1.5389785278,-0.447524

 Normal termination of Gaussian 16 at Tue Mar  1 20:53:32 2022.
 Gaussian 16:  ES64L-G16RevA.03 25-Dec-2016

 ----------------------------------------------------------------------
 #p b3lyp/6-31G(d) scrf=(iefpcm,read,solvent=water) geom=allcheck guess
 =read
 ----------------------------------------------------------------------

 Structure from the checkpoint file:  "135.n.pdb.xyz.mst.wat.chk"
 -------------
 135.n.pdb.xyz
 -------------
 Charge =  0 Multiplicity = 1

                         Standard orientation:
 ---------------------------------------------------------------------
 Center     Atomic      Atomic             Coordinates (Angstroms)
 Number     Number       Type             X           Y           Z
 ---------------------------------------------------------------------
      1          6           0        3.178562    0.226791    0.000079
      2          6           0        1.856678   -0.542750   -0.000078
      3          6           0        0.627589    0.371825    0.000137
      4          6           0       -0.696145   -0.397454   -0.000188
      5          6           0       -1.916522    0.511359   -0.000161
      6          8           0       -3.085219   -0.308873    0.000184
      7          1           0        3.262008    0.868558    0.884176
      8          1           0        4.036492   -0.453127   -0.000106
      9          1           0        3.261965    0.869001   -0.883718
     10          1           0        1.816272   -1.201268    0.877242
     11          1           0        1.816231   -1.200758   -0.877730
     12          1           0        0.668160    1.030531   -0.878071
     13          1           0        0.668062    1.030227    0.878714
     14          1           0       -0.747182   -1.050716   -0.880515
     15          1           0       -0.747566   -1.050765    0.880018
     16          1           0       -1.898016    1.164498    0.885658
     17          1           0       -1.898534    1.165234   -0.886250
     18          1           0       -3.857111    0.280940    0.000382
 ---------------------------------------------------------------------

 SCF Done:  E(RB3LYP) =  -272.982833072     A.U. after    9 cycles

 The electronic state is 1-A.
 Alpha  occ. eigenvalues --  -19.13518 -10.22186 -10.17579 -10.17558 -10.17424
 Alpha  occ. eigenvalues --  -10.16897  -1.00469  -0.79577  -0.74140  -0.66386
 Alpha  occ. eigenvalues --   -0.59082  -0.57395  -0.49708  -0.47814  -0.44199
 Alpha  occ. eigenvalues --   -0.41871  -0.40688  -0.38845  -0.37081  -0.33979
 Alpha  occ. eigenvalues --   -0.33553  -0.32792  -0.31953  -0.31079  -0.26217
 Alpha virt. eigenvalues --    0.09509   0.09616   0.12155   0.12704   0.13924
 Alpha virt. eigenvalues --    0.16861   0.17451   0.17788   0.19395   0.19965
 Alpha virt. eigenvalues --    0.20616   0.21133   0.21165   0.23446   0.25858

 Mulliken charges:
               1
     1  C   -0.451433
     2  C   -0.247780
     3  C   -0.255849
     4  C   -0.267002
     5  C   -0.024671
     6  O   -0.679719
     7  H    0.144272
     8  H    0.144581
     9  H    0.144261
    10  H    0.133820
    11  H    0.133852
    12  H    0.133117
    13  H    0.133079
    14  H    0.136768
    15  H    0.136791
    16  H    0.124703
    17  H    0.124538
    18  H    0.436673
 Sum of Mulliken charges =  -0.00000

 Dipole moment (field-independent basis, Debye):
    X=             -0.1198    Y=              1.9325    Z=              0.0007  Tot=              1.9362
 Quadrupole moment (field-independent basis, Debye-Ang):
   XX=            -36.1987   YY=            -40.0961   ZZ=            -39.3604
   XY=             -6.6285   XZ=             -0.0028   YZ=              0.0006

 1\1\GINC-PIRINEUS2\SP\RB3LYP\6-31G(d)\C5H12O1\UBATOR01\01-Mar-2022\0\\
 #p b3lyp/6-31G(d) scrf=(iefpcm,read,solvent=water) geom=allcheck guess
 =read\\135.n.pdb.xyz\\0,1\C,0,-2.8158067678,0.0370606783,-0.2850626645
 \C,0,-1.5289978997,0.2245653841,0.5202541673\C,0,-0.2617273413,-0.0330
 287296,-0.3011927259\C,0,1.0269446592,0.1545460404,0.5039172696\C,0,2.
 2852700667,-0.1012341321,-0.3124503833\O,0,3.4168688701,0.1011080482,0
 .5344113631\H,0,-2.893173506,-0.9842966983,-0.6740335164\H,0,-3.702191
 9216,0.2278959783,0.3283184141\H,0,-2.8493179475,0.7202475763,-1.14099

 Normal termination of Gaussian 16 at Tue Mar  1 20:53:59 2022.
