 Gaussian 16, Revision A.03,

 ----------------------------------------------------------------------
 #p b3lyp/6-31G(d) opt=(MaxStep=10,MaxCycles=1000) freq scf=(MaxCycle=2
 000,NoVarAcc,NoIncFock) scrf=(iefpcm,read,solvent=water)
 ----------------------------------------------------------------------

 -------------
 136.n.pdb.xyz
 -------------
 Symbolic Z-matrix:
 Charge =  0 Multiplicity = 1

 SCF Done:  E(RB3LYP) =  -725.955055145     A.U. after   13 cycles
 SCF Done:  E(RB3LYP) =  -725.957938294     A.U. after   11 cycles
 SCF Done:  E(RB3LYP) =  -725.954504340     A.U. after   11 cycles
 SCF Done:  E(RB3LYP) =  -725.957994675     A.U. after   11 cycles
 SCF Done:  E(RB3LYP) =  -725.958785221     A.U. after   11 cycles
 SCF Done:  E(RB3LYP) =  -725.958748883     A.U. after   10 cycles
 SCF Done:  E(RB3LYP) =  -725.958580913     A.U. after   10 cycles
 SCF Done:  E(RB3LYP) =  -725.958824458     A.U. after   11 cycles
 SCF Done:  E(RB3LYP) =  -725.958640024     A.U. after   11 cycles
 SCF Done:  E(RB3LYP) =  -725.958852914     A.U. after   10 cycles
 SCF Done:  E(RB3LYP) =  -725.959091532     A.U. after    8 cycles
 SCF Done:  E(RB3LYP) =  -725.959116844     A.U. after    9 cycles
 SCF Done:  E(RB3LYP) =  -725.959090114     A.U. after    9 cycles
 SCF Done:  E(RB3LYP) =  -725.959078573     A.U. after    8 cycles
 SCF Done:  E(RB3LYP) =  -725.959092256     A.U. after    9 cycles
 SCF Done:  E(RB3LYP) =  -725.959092624     A.U. after    8 cycles
 SCF Done:  E(RB3LYP) =  -725.959092620     A.U. after    7 cycles
 Optimization completed.
    -- Stationary point found.
 Normal termination of Gaussian 16 at Wed Mar  2 00:53:08 2022.

 --------------------------------------------------------------------
 #P Geom=AllCheck Guess=TCheck SCRF=Check GenChk RB3LYP/6-31G(d) Freq
 --------------------------------------------------------------------

 Structure from the checkpoint file:  "136.n.pdb.xyz.mst.wat.chk"
 -------------
 136.n.pdb.xyz
 -------------
 Charge =  0 Multiplicity = 1

 SCF Done:  E(RB3LYP) =  -725.959092620     A.U. after    1 cycles

  Exact polarizability: 195.931  -6.584 161.810  -6.996 -10.612 129.677
 Approx polarizability: 207.374  -7.298 182.115  -7.855 -17.230 142.645

                      1                      2                      3
                      A                      A                      A
 Frequencies --     30.4303                59.0513                67.4579
 Red. masses --      7.4345                 2.8863                 1.8019
 Frc consts  --      0.0041                 0.0059                 0.0048
 IR Inten    --      1.4784                 0.3139                 0.1704

                      4                      5                      6
                      A                      A                      A
 Frequencies --     95.8125               124.2501               140.3404
 Red. masses --      3.6408                 6.3286                 1.8998
 Frc consts  --      0.0197                 0.0576                 0.0220
 IR Inten    --      0.3289                 1.6173                 0.8308

                      7                      8                      9
                      A                      A                      A
 Frequencies --    141.4820               155.3159               162.6496
 Red. masses --      6.0169                 2.1626                 2.3287
 Frc consts  --      0.0710                 0.0307                 0.0363
 IR Inten    --      8.2404                 0.5345                 1.2720

                     10                     11                     12
                      A                      A                      A
 Frequencies --    172.3758               232.5335               246.2452
 Red. masses --      2.0243                 3.5441                 1.7382
 Frc consts  --      0.0354                 0.1129                 0.0621
 IR Inten    --      1.4525                 6.3301                 1.2415

                     13                     14                     15
                      A                      A                      A
 Frequencies --    266.0650               284.9026               301.6765
 Red. masses --      1.5657                 4.6159                 2.3061
 Frc consts  --      0.0653                 0.2207                 0.1237
 IR Inten    --      0.7738                 9.4553                 1.1153

                     16                     17                     18
                      A                      A                      A
 Frequencies --    363.0348               390.8202               415.6772
 Red. masses --      4.3175                 9.2191                 7.8907
 Frc consts  --      0.3353                 0.8296                 0.8033
 IR Inten    --     13.3156                62.1222                 6.5950

                     19                     20                     21
                      A                      A                      A
 Frequencies --    431.7671               503.7673               536.4548
 Red. masses --      3.0447                 9.9051                 4.6886
 Frc consts  --      0.3344                 1.4810                 0.7950
 IR Inten    --      7.5135                22.5768                64.9158

                     22                     23                     24
                      A                      A                      A
 Frequencies --    622.1347               636.6446               667.2010
 Red. masses --      1.2790                 4.4586                 1.1683
 Frc consts  --      0.2917                 1.0647                 0.3064
 IR Inten    --     13.6553                 0.6997               272.3804

                     25                     26                     27
                      A                      A                      A
 Frequencies --    683.1795               728.9527               743.4855
 Red. masses --      3.3407                 5.2095                 1.1496
 Frc consts  --      0.9187                 1.6310                 0.3744
 IR Inten    --     20.2196                53.6645                 9.5648

                     28                     29                     30
                      A                      A                      A
 Frequencies --    746.3512               755.0450               764.8099
 Red. masses --      8.4252                 4.7324                 3.4373
 Frc consts  --      2.7651                 1.5896                 1.1846
 IR Inten    --     66.3301                 4.4813                 5.1952

                     31                     32                     33
                      A                      A                      A
 Frequencies --    779.3073               805.5229               904.2578
 Red. masses --      1.5757                 1.2508                 1.6522
 Frc consts  --      0.5638                 0.4782                 0.7960
 IR Inten    --      0.5172                14.0167                 4.0449

                     34                     35                     36
                      A                      A                      A
 Frequencies --    910.8162               962.8416               988.6526
 Red. masses --      1.8649                 2.2427                 1.8205
 Frc consts  --      0.9115                 1.2250                 1.0484
 IR Inten    --      4.0833                 1.3199                 3.6653

                     37                     38                     39
                      A                      A                      A
 Frequencies --   1010.1956              1042.9146              1050.1837
 Red. masses --      2.0849                 2.8686                 2.7555
 Frc consts  --      1.2536                 1.8383                 1.7905
 IR Inten    --      8.6771                 2.9900                 5.6611

                     40                     41                     42
                      A                      A                      A
 Frequencies --   1066.8906              1076.4943              1119.5321
 Red. masses --      2.8322                 2.2574                 2.0653
 Frc consts  --      1.8994                 1.5413                 1.5251
 IR Inten    --      0.4377                 0.9776                13.0112

                     43                     44                     45
                      A                      A                      A
 Frequencies --   1152.6527              1178.2933              1189.5550
 Red. masses --      2.9903                 2.2623                 2.0926
 Frc consts  --      2.3408                 1.8506                 1.7446
 IR Inten    --     16.5676                21.3528                29.6798

                     46                     47                     48
                      A                      A                      A
 Frequencies --   1244.9469              1271.0061              1297.6870
 Red. masses --      2.8446                 1.5047                 1.2877
 Frc consts  --      2.5976                 1.4322                 1.2776
 IR Inten    --     86.5353                36.7926                14.0181

                     49                     50                     51
                      A                      A                      A
 Frequencies --   1318.1520              1328.4141              1348.9982
 Red. masses --      1.3221                 1.2675                 1.1304
 Frc consts  --      1.3535                 1.3179                 1.2120
 IR Inten    --    122.4730                86.6329                29.1716

                     52                     53                     54
                      A                      A                      A
 Frequencies --   1367.8666              1375.2404              1391.6953
 Red. masses --      2.0998                 1.6228                 1.3416
 Frc consts  --      2.3149                 1.8083                 1.5309
 IR Inten    --    433.8410                96.6116                14.9665

                     55                     56                     57
                      A                      A                      A
 Frequencies --   1415.9192              1417.9190              1427.6875
 Red. masses --      2.2395                 1.6955                 1.2545
 Frc consts  --      2.6453                 2.0084                 1.5065
 IR Inten    --    139.2832                49.6583                 5.1716

                     58                     59                     60
                      A                      A                      A
 Frequencies --   1430.9156              1438.5569              1465.6429
 Red. masses --      1.2536                 2.6818                 2.2953
 Frc consts  --      1.5123                 3.2699                 2.9050
 IR Inten    --      1.6040               370.0009               152.6205

                     61                     62                     63
                      A                      A                      A
 Frequencies --   1502.4496              1504.1558              1506.1048
 Red. masses --      1.0698                 1.0678                 1.0443
 Frc consts  --      1.4228                 1.4234                 1.3957
 IR Inten    --      2.1127                 6.6870                 3.3395

                     64                     65                     66
                      A                      A                      A
 Frequencies --   1516.4124              1517.4539              1523.8991
 Red. masses --      1.0437                 1.0424                 1.0747
 Frc consts  --      1.4140                 1.4143                 1.4705
 IR Inten    --      0.8425                 7.2455                 1.7855

                     67                     68                     69
                      A                      A                      A
 Frequencies --   1533.1027              1541.5134              1748.1216
 Red. masses --      1.0847                 1.0906                 9.9007
 Frc consts  --      1.5022                 1.5270                17.8263
 IR Inten    --     21.4788                 0.3327               715.6798

                     70                     71                     72
                      A                      A                      A
 Frequencies --   1765.3850              1812.3004              3036.0104
 Red. masses --      7.0257                11.8875                 1.0594
 Frc consts  --     12.9009                23.0038                 5.7531
 IR Inten    --   1345.5155               219.3232                51.5526

                     73                     74                     75
                      A                      A                      A
 Frequencies --   3052.0005              3054.1931              3062.6051
 Red. masses --      1.0440                 1.0596                 1.0913
 Frc consts  --      5.7293                 5.8237                 6.0309
 IR Inten    --     40.6314                22.3651                25.2311

                     76                     77                     78
                      A                      A                      A
 Frequencies --   3071.7400              3072.2412              3086.2042
 Red. masses --      1.0760                 1.0357                 1.0637
 Frc consts  --      5.9816                 5.7597                 5.9690
 IR Inten    --    101.8780                29.0020                33.7684

                     79                     80                     81
                      A                      A                      A
 Frequencies --   3113.6835              3116.6085              3122.2474
 Red. masses --      1.0964                 1.0998                 1.1022
 Frc consts  --      6.2628                 6.2939                 6.3308
 IR Inten    --     40.2180                37.7960                71.2015

                     82                     83                     84
                      A                      A                      A
 Frequencies --   3131.0106              3135.9940              3138.8108
 Red. masses --      1.0994                 1.0987                 1.1014
 Frc consts  --      6.3499                 6.3660                 6.3931
 IR Inten    --      5.0882                84.2671                45.6843

                     85                     86                     87
                      A                      A                      A
 Frequencies --   3153.3161              3563.9439              3567.3195
 Red. masses --      1.1030                 1.0775                 1.0798
 Frc consts  --      6.4621                 8.0636                 8.0964
 IR Inten    --     55.2432               230.9668               124.6383

 - Thermochemistry -
 -------------------
 Temperature   298.150 Kelvin.  Pressure   1.00000 Atm.
 Atom     1 has atomic number  6 and mass  12.00000

 Molecular mass:   212.11609 amu.
 Principal axes and moments of inertia in atomic units:
                           1         2         3
     Eigenvalues --  1765.923044991.185175678.12848
           X            0.99995   0.00781   0.00659
           Y           -0.00820   0.99806   0.06171
           Z           -0.00609  -0.06176   0.99807
 This molecule is an asymmetric top.
 Rotational symmetry number  1.
 Warning -- assumption of classical behavior for rotation
           may cause significant error
 Rotational temperatures (Kelvin)      0.04905     0.01735     0.01525
 Rotational constants (GHZ):           1.02198     0.36159     0.31784
 Zero-point vibrational energy     689034.1 (Joules/Mol)
                                  164.68309 (Kcal/Mol)
 Warning -- explicit consideration of  21 degrees of freedom as
           vibrations may cause significant error
 Vibrational temperatures:     43.78    84.96    97.06   137.85   178.77
          (Kelvin)            201.92   203.56   223.46   234.02   248.01
                              334.56   354.29   382.81   409.91   434.05
                              522.33   562.30   598.07   621.22   724.81
                              771.84   895.11   915.99   959.95   982.94
                             1048.80  1069.71  1073.83  1086.34  1100.39
                             1121.25  1158.97  1301.03  1310.46  1385.31
                             1422.45  1453.45  1500.52  1510.98  1535.02
                             1548.84  1610.76  1658.41  1695.30  1711.50
                             1791.20  1828.69  1867.08  1896.53  1911.29
                             1940.91  1968.05  1978.66  2002.34  2037.19
                             2040.07  2054.12  2058.77  2069.76  2108.73
                             2161.69  2164.14  2166.95  2181.78  2183.28
                             2192.55  2205.79  2217.89  2515.16  2540.00
                             2607.50  4368.14  4391.15  4394.30  4406.41
                             4419.55  4420.27  4440.36  4479.90  4484.10
                             4492.22  4504.83  4512.00  4516.05  4536.92
                             5127.72  5132.58

 Zero-point correction=                           0.262439 (Hartree/Particle)
 Thermal correction to Energy=                    0.278120
 Thermal correction to Enthalpy=                  0.279065
 Thermal correction to Gibbs Free Energy=         0.219039
 Sum of electronic and zero-point Energies=           -725.696653
 Sum of electronic and thermal Energies=              -725.680972
 Sum of electronic and thermal Enthalpies=            -725.680028
 Sum of electronic and thermal Free Energies=         -725.740054

                     E (Thermal)             CV                S
                      KCal/Mol        Cal/Mol-Kelvin    Cal/Mol-Kelvin
 Total                  174.523             57.742            126.336
 Electronic               0.000              0.000              0.000
 Translational            0.889              2.981             41.959
 Rotational               0.889              2.981             32.282
 Vibrational            172.746             51.780             52.095
 Vibration     1          0.594              1.984              5.801
 Vibration     2          0.596              1.974              4.489
 Vibration     3          0.598              1.970              4.226
 Vibration     4          0.603              1.952              3.538
 Vibration     5          0.610              1.929              3.033
 Vibration     6          0.615              1.913              2.799
 Vibration     7          0.615              1.912              2.784
 Vibration     8          0.620              1.897              2.606
 Vibration     9          0.623              1.888              2.519
 Vibration    10          0.626              1.876              2.409
 Vibration    11          0.653              1.791              1.859
 Vibration    12          0.661              1.769              1.757
 Vibration    13          0.672              1.735              1.622
 Vibration    14          0.683              1.702              1.504
 Vibration    15          0.694              1.671              1.408
 Vibration    16          0.737              1.548              1.109
 Vibration    17          0.759              1.490              0.997
 Vibration    18          0.779              1.436              0.907
 Vibration    19          0.793              1.401              0.853
 Vibration    20          0.859              1.242              0.649
 Vibration    21          0.891              1.169              0.573

                           ! Non-Optimized Parameters !
 Normal termination of Gaussian 16 at Wed Mar  2 01:20:53 2022.

 ------------------------------------------
 #p b3lyp/6-31G(d) geom=allcheck guess=read
 ------------------------------------------

 Structure from the checkpoint file:  "136.n.pdb.xyz.mst.wat.chk"
 -------------
 136.n.pdb.xyz
 -------------
 Charge =  0 Multiplicity = 1

 SCF Done:  E(RB3LYP) =  -725.938448213     A.U. after   11 cycles
 Normal termination of Gaussian 16 at Wed Mar  2 01:22:59 2022.
 Gaussian 16:  ES64L-G16RevA.03 25-Dec-2016

 ----------------------------------------------------------------------
 #p b3lyp/6-31G(d) scrf=(iefpcm,read,solvent=water) geom=allcheck guess
 =read
 ----------------------------------------------------------------------

 Structure from the checkpoint file:  "136.n.pdb.xyz.mst.wat.chk"
 -------------
 136.n.pdb.xyz
 -------------
 Charge =  0 Multiplicity = 1

                         Standard orientation:
 ---------------------------------------------------------------------
 Center     Atomic      Atomic             Coordinates (Angstroms)
 Number     Number       Type             X           Y           Z
 ---------------------------------------------------------------------
      1          6           0       -4.903830   -0.737010   -0.241515
      2          6           0       -3.622874   -0.257608   -0.928206
      3          6           0       -2.393078   -0.338307   -0.017075
      4          6           0       -1.128481    0.160020   -0.723743
      5          6           0        0.181467    0.193542    0.115050
      6          6           0       -0.038318    0.828682    1.535601
      7          6           0       -0.603094    2.248664    1.551982
      8          6           0        1.196912    1.061493   -0.635567
      9          8           0        0.889498    2.114473   -1.174892
     10          7           0        2.515474    0.648336   -0.635724
     11          6           0        3.002497   -0.581878   -0.232796
     12          8           0        4.181544   -0.883499   -0.318381
     13          7           0        2.046421   -1.449923    0.262658
     14          6           0        0.688862   -1.223261    0.390066
     15          8           0       -0.042088   -2.125559    0.771261
     16          1           0       -5.765063   -0.672320   -0.913753
     17          1           0       -5.126387   -0.132900    0.645072
     18          1           0       -4.811121   -1.779052    0.083025
     19          1           0       -3.755318    0.777297   -1.269939
     20          1           0       -3.445591   -0.856855   -1.830547
     21          1           0       -2.245835   -1.367155    0.319945
     22          1           0       -2.573692    0.263724    0.881254
     23          1           0       -1.290424    1.181524   -1.077221
     24          1           0       -0.945972   -0.448589   -1.617890
     25          1           0        0.910692    0.803170    2.079833
     26          1           0       -0.717718    0.154575    2.061316
     27          1           0        0.058397    2.958248    1.048906
     28          1           0       -0.726101    2.572709    2.589607
     29          1           0       -1.582697    2.296253    1.068591
     30          1           0        3.190877    1.268606   -1.075272
     31          1           0        2.380675   -2.377469    0.511866
 ---------------------------------------------------------------------

 SCF Done:  E(RB3LYP) =  -725.957964531     A.U. after   11 cycles

 The electronic state is 1-A.
 Alpha  occ. eigenvalues --  -19.14657 -19.14578 -19.14438 -14.39140 -14.39124
 Alpha  occ. eigenvalues --  -10.34976 -10.31893 -10.31872 -10.23097 -10.20135
 Alpha  occ. eigenvalues --  -10.18870 -10.17656 -10.17633 -10.17331 -10.16932
 Alpha  occ. eigenvalues --   -1.08815  -1.06169  -1.05832  -0.96385  -0.92330
 Alpha  occ. eigenvalues --   -0.83616  -0.78406  -0.74196  -0.71323  -0.67483
 Alpha  occ. eigenvalues --   -0.65290  -0.63458  -0.62384  -0.58184  -0.56012
 Alpha  occ. eigenvalues --   -0.55101  -0.49656  -0.48844  -0.48145  -0.47005
 Alpha  occ. eigenvalues --   -0.45651  -0.44806  -0.44692  -0.43367  -0.42924
 Alpha  occ. eigenvalues --   -0.41120  -0.40599  -0.39515  -0.38841  -0.37847
 Alpha  occ. eigenvalues --   -0.36339  -0.35654  -0.35143  -0.33978  -0.32725
 Alpha  occ. eigenvalues --   -0.32580  -0.31820  -0.30811  -0.29443  -0.29354
 Alpha  occ. eigenvalues --   -0.28208  -0.26263
 Alpha virt. eigenvalues --   -0.04164  -0.00077   0.06505   0.08771   0.10216
 Alpha virt. eigenvalues --    0.11395   0.12179   0.12671   0.13750   0.14960
 Alpha virt. eigenvalues --    0.15790   0.16280   0.16993   0.17263   0.18075

 Mulliken charges:
               1
     1  C   -0.451439
     2  C   -0.252669
     3  C   -0.267671
     4  C   -0.283557
     5  C   -0.132999
     6  C   -0.279544
     7  C   -0.458814
     8  C    0.670802
     9  O   -0.535622
    10  N   -0.670934
    11  C    0.786929
    12  O   -0.540025
    13  N   -0.664210
    14  C    0.655281
    15  O   -0.528401
    16  H    0.145056
    17  H    0.144793
    18  H    0.144944
    19  H    0.133426
    20  H    0.134966
    21  H    0.156084
    22  H    0.139069
    23  H    0.166082
    24  H    0.153103
    25  H    0.162650
    26  H    0.177878
    27  H    0.164365
    28  H    0.158713
    29  H    0.160681
    30  H    0.405600
    31  H    0.405462
 Sum of Mulliken charges =  -0.00000

 Dipole moment (field-independent basis, Debye):
    X=             -0.0744    Y=              0.4245    Z=              0.8185  Tot=              0.9251
 Quadrupole moment (field-independent basis, Debye-Ang):
   XX=            -98.3827   YY=            -95.9828   ZZ=            -88.2117
   XY=              0.5400   XZ=              1.3495   YZ=              5.1931

 Normal termination of Gaussian 16 at Wed Mar  2 01:25:28 2022.
