 Gaussian 16, Revision A.03,

 ----------------------------------------------------------------------
 #p b3lyp/6-31G(d) opt=(MaxStep=10,MaxCycles=1000) freq scf=(MaxCycle=2
 000,NoVarAcc,NoIncFock) scrf=(iefpcm,read,solvent=water)
 ----------------------------------------------------------------------

 -------------
 139.n.pdb.xyz
 -------------
 Symbolic Z-matrix:
 Charge =  0 Multiplicity = 1

 SCF Done:  E(RB3LYP) =  -1028.87849412     A.U. after   12 cycles
 SCF Done:  E(RB3LYP) =  -1028.87970310     A.U. after   10 cycles
 SCF Done:  E(RB3LYP) =  -1028.87996297     A.U. after    9 cycles
 SCF Done:  E(RB3LYP) =  -1028.87999459     A.U. after    9 cycles
 SCF Done:  E(RB3LYP) =  -1028.87999541     A.U. after    7 cycles
 SCF Done:  E(RB3LYP) =  -1028.87999609     A.U. after    7 cycles
 SCF Done:  E(RB3LYP) =  -1028.88000516     A.U. after    9 cycles
 SCF Done:  E(RB3LYP) =  -1028.88001497     A.U. after    8 cycles
 SCF Done:  E(RB3LYP) =  -1028.88002354     A.U. after    7 cycles
 SCF Done:  E(RB3LYP) =  -1028.88005203     A.U. after   10 cycles
 SCF Done:  E(RB3LYP) =  -1028.88014753     A.U. after   10 cycles
 SCF Done:  E(RB3LYP) =  -1028.88018705     A.U. after    6 cycles
 SCF Done:  E(RB3LYP) =  -1028.88018750     A.U. after    9 cycles
 SCF Done:  E(RB3LYP) =  -1028.88018904     A.U. after    8 cycles
 SCF Done:  E(RB3LYP) =  -1028.88018743     A.U. after    8 cycles
 SCF Done:  E(RB3LYP) =  -1028.88018806     A.U. after    7 cycles
 SCF Done:  E(RB3LYP) =  -1028.88018805     A.U. after    7 cycles
 Optimization completed.
    -- Stationary point found.
 Normal termination of Gaussian 16 at Wed Mar  2 04:33:41 2022.

 --------------------------------------------------------------------
 #P Geom=AllCheck Guess=TCheck SCRF=Check GenChk RB3LYP/6-31G(d) Freq
 --------------------------------------------------------------------

 Structure from the checkpoint file:  "139.n.pdb.xyz.mst.wat.chk"
 -------------
 139.n.pdb.xyz
 -------------
 Charge =  0 Multiplicity = 1

 SCF Done:  E(RB3LYP) =  -1028.88018805     A.U. after    1 cycles

  Exact polarizability: 153.126   0.123 114.399   0.804  -0.005  45.317
 Approx polarizability: 174.508   0.136 141.345   1.220  -0.005  56.220

                      1                      2                      3
                      A                      A                      A
 Frequencies --     23.7026                81.1532               163.2267
 Red. masses --      6.1526                12.5065                12.1114
 Frc consts  --      0.0020                 0.0485                 0.1901
 IR Inten    --      0.0758                 1.5760                 3.4145

                      4                      5                      6
                      A                      A                      A
 Frequencies --    210.5169               276.8219               297.2662
 Red. masses --      9.8188                18.2289                 7.4011
 Frc consts  --      0.2564                 0.8230                 0.3853
 IR Inten    --      0.0863                 0.3200                 0.3618

                      7                      8                      9
                      A                      A                      A
 Frequencies --    385.9964               407.1688               418.6512
 Red. masses --      7.2617                 7.1334                 3.1576
 Frc consts  --      0.6375                 0.6968                 0.3261
 IR Inten    --      2.6303                 1.7176                 0.0672

                     10                     11                     12
                      A                      A                      A
 Frequencies --    496.3100               500.6571               576.2223
 Red. masses --      5.5206                 9.1951                12.4525
 Frc consts  --      0.8012                 1.3580                 2.4360
 IR Inten    --      3.0270                56.8752                 0.0684

                     13                     14                     15
                      A                      A                      A
 Frequencies --    593.3547               641.6020               704.0173
 Red. masses --      4.5910                 7.1968                10.7987
 Frc consts  --      0.9523                 1.7455                 3.1535
 IR Inten    --     14.2833                 1.2989                 0.0347

                     16                     17                     18
                      A                      A                      A
 Frequencies --    731.7251               789.5654               844.9844
 Red. masses --      4.3735                 8.9521                 1.2457
 Frc consts  --      1.3797                 3.2881                 0.5240
 IR Inten    --      4.7799                17.6246                 0.2876

                     19                     20                     21
                      A                      A                      A
 Frequencies --    849.0490               972.8014               978.2559
 Red. masses --      1.5575                 1.2890                 1.3437
 Frc consts  --      0.6615                 0.7187                 0.7576
 IR Inten    --     85.8394                 2.3282                 0.1355

                     22                     23                     24
                      A                      A                      A
 Frequencies --   1023.0910              1082.1941              1102.7855
 Red. masses --      4.7463                 4.5566                 2.9654
 Frc consts  --      2.9271                 3.1441                 2.1248
 IR Inten    --    124.7263               120.2937                98.2450

                     25                     26                     27
                      A                      A                      A
 Frequencies --   1127.5274              1142.6296              1178.9262
 Red. masses --      1.5939                11.6850                 4.4014
 Frc consts  --      1.1939                 8.9886                 3.6043
 IR Inten    --    102.5410               375.5211               248.4593

                     28                     29                     30
                      A                      A                      A
 Frequencies --   1202.2619              1328.4482              1335.9844
 Red. masses --      1.1332                 1.3347                 5.3027
 Frc consts  --      0.9650                 1.3878                 5.5763
 IR Inten    --      6.9870                 5.8881               523.1757

                     31                     32                     33
                      A                      A                      A
 Frequencies --   1353.9194              1442.5850              1537.0252
 Red. masses --      8.2731                 3.0424                 2.5037
 Frc consts  --      8.9352                 3.7303                 3.4849
 IR Inten    --      0.7689                29.0873                23.4770

                     34                     35                     36
                      A                      A                      A
 Frequencies --   1637.1483              1656.9298              3232.5836
 Red. masses --      7.4283                 5.8174                 1.0896
 Frc consts  --     11.7305                 9.4100                 6.7082
 IR Inten    --      9.4796                93.1667                 3.7457

                     37                     38                     39
                      A                      A                      A
 Frequencies --   3238.3073              3249.3663              3250.8155
 Red. masses --      1.0889                 1.0948                 1.0955
 Frc consts  --      6.7275                 6.8104                 6.8207
 IR Inten    --      1.5808                 8.7711                 0.2417

 - Thermochemistry -
 -------------------
 Temperature   298.150 Kelvin.  Pressure   1.00000 Atm.
 Atom     1 has atomic number  9 and mass  18.99840

 Molecular mass:   179.99536 amu.
 Principal axes and moments of inertia in atomic units:
                           1         2         3
     Eigenvalues --   640.258974080.922734402.07797
           X            1.00000  -0.00000   0.00005
           Y            0.00000   1.00000  -0.00003
           Z           -0.00005   0.00003   1.00000
 This molecule is an asymmetric top.
 Rotational symmetry number  1.
 Warning -- assumption of classical behavior for rotation
           may cause significant error
 Rotational temperatures (Kelvin)      0.13528     0.02122     0.01968
 Rotational constants (GHZ):           2.81877     0.44224     0.40997
 Zero-point vibrational energy     251608.0 (Joules/Mol)
                                   60.13576 (Kcal/Mol)
 Warning -- explicit consideration of  13 degrees of freedom as
           vibrations may cause significant error
 Vibrational temperatures:     34.10   116.76   234.85   302.89   398.28
          (Kelvin)            427.70   555.36   585.83   602.35   714.08
                              720.33   829.06   853.71   923.12  1012.92
                             1052.79  1136.01  1215.74  1221.59  1399.64
                             1407.49  1472.00  1557.04  1586.66  1622.26
                             1643.99  1696.21  1729.79  1911.34  1922.18
                             1947.99  2075.56  2211.44  2355.49  2383.95
                             4650.97  4659.20  4675.11  4677.20

 Zero-point correction=                           0.095832 (Hartree/Particle)
 Thermal correction to Energy=                    0.104923
 Thermal correction to Enthalpy=                  0.105867
 Thermal correction to Gibbs Free Energy=         0.059613
 Sum of electronic and zero-point Energies=          -1028.784356
 Sum of electronic and thermal Energies=             -1028.775265
 Sum of electronic and thermal Enthalpies=           -1028.774321
 Sum of electronic and thermal Free Energies=        -1028.820575

                     E (Thermal)             CV                S
                      KCal/Mol        Cal/Mol-Kelvin    Cal/Mol-Kelvin
 Total                   65.840             33.690             97.351
 Electronic               0.000              0.000              0.000
 Translational            0.889              2.981             41.470
 Rotational               0.889              2.981             30.820
 Vibrational             64.063             27.728             25.060
 Vibration     1          0.593              1.985              6.297
 Vibration     2          0.600              1.962              3.863
 Vibration     3          0.623              1.888              2.512
 Vibration     4          0.643              1.825              2.039
 Vibration     5          0.678              1.716              1.553
 Vibration     6          0.691              1.679              1.432
 Vibration     7          0.755              1.500              1.016
 Vibration     8          0.772              1.455              0.937
 Vibration     9          0.782              1.430              0.897
 Vibration    10          0.852              1.258              0.667
 Vibration    11          0.856              1.249              0.656
 Vibration    12          0.933              1.083              0.492
 Vibration    13          0.951              1.046              0.461

 Optimization completed.
    -- Stationary point found.
 Normal termination of Gaussian 16 at Wed Mar  2 04:39:52 2022.

 ------------------------------------------
 #p b3lyp/6-31G(d) geom=allcheck guess=read
 ------------------------------------------

 Structure from the checkpoint file:  "139.n.pdb.xyz.mst.wat.chk"
 -------------
 139.n.pdb.xyz
 -------------
 Charge =  0 Multiplicity = 1

 SCF Done:  E(RB3LYP) =  -1028.88142924     A.U. after   10 cycles
 Normal termination of Gaussian 16 at Wed Mar  2 04:40:28 2022.
 Gaussian 16:  ES64L-G16RevA.03 25-Dec-2016

 ----------------------------------------------------------------------
 #p b3lyp/6-31G(d) scrf=(iefpcm,read,solvent=water) geom=allcheck guess
 =read
 ----------------------------------------------------------------------

 Structure from the checkpoint file:  "139.n.pdb.xyz.mst.wat.chk"
 -------------
 139.n.pdb.xyz
 -------------
 Charge =  0 Multiplicity = 1

                         Standard orientation:
 ---------------------------------------------------------------------
 Center     Atomic      Atomic             Coordinates (Angstroms)
 Number     Number       Type             X           Y           Z
 ---------------------------------------------------------------------
      1          9           0       -2.792084   -1.039278   -0.688354
      2          6           0       -2.269557    0.000994    0.000965
      3          9           0       -2.749368   -0.097067    1.266282
      4          9           0       -2.787656    1.134439   -0.521571
      5          6           0       -0.769366    0.000947   -0.033300
      6          6           0       -0.075160   -1.211247   -0.026654
      7          6           0        1.317383   -1.216778   -0.011299
      8          6           0        1.996000    0.001216   -0.002611
      9         17           0        3.753624   -0.001201    0.015451
     10          6           0        1.318011    1.219258   -0.011723
     11          6           0       -0.075179    1.211699   -0.026788
     12          1           0       -0.616855   -2.149946   -0.040515
     13          1           0        1.867371   -2.149306   -0.009656
     14          1           0        1.866905    2.152686   -0.010418
     15          1           0       -0.619841    2.147606   -0.040823
 ---------------------------------------------------------------------

 SCF Done:  E(RB3LYP) =  -1028.87976711     A.U. after   10 cycles

 The electronic state is 1-A.
 Alpha  occ. eigenvalues -- -101.55947 -24.73186 -24.73063 -24.72559 -10.43872
 Alpha  occ. eigenvalues --  -10.26654 -10.22224 -10.21627 -10.21586 -10.21407
 Alpha  occ. eigenvalues --  -10.21406  -9.47583  -7.23970  -7.23020  -7.22976
 Alpha  occ. eigenvalues --   -1.30659  -1.22154  -1.21620  -0.90382  -0.85651
 Alpha  occ. eigenvalues --   -0.77584  -0.77178  -0.69482  -0.63846  -0.62220
 Alpha  occ. eigenvalues --   -0.58505  -0.58334  -0.57207  -0.50044  -0.48417
 Alpha  occ. eigenvalues --   -0.47162  -0.46037  -0.45925  -0.44723  -0.42704
 Alpha  occ. eigenvalues --   -0.41879  -0.41417  -0.40415  -0.40361  -0.37398
 Alpha  occ. eigenvalues --   -0.36962  -0.34521  -0.32320  -0.27447  -0.26136
 Alpha virt. eigenvalues --   -0.03475  -0.02335   0.02151   0.11514   0.11851
 Alpha virt. eigenvalues --    0.13323   0.14266   0.16757   0.19904   0.21005
 Alpha virt. eigenvalues --    0.21390   0.22693   0.27674   0.28055   0.30207

 Mulliken charges:
               1
     1  F   -0.274504
     2  C    0.788962
     3  F   -0.269876
     4  F   -0.273451
     5  C   -0.012597
     6  C   -0.159989
     7  C   -0.139270
     8  C   -0.061470
     9  Cl  -0.028143
    10  C   -0.139184
    11  C   -0.160279
    12  H    0.181127
    13  H    0.184101
    14  H    0.184092
    15  H    0.180483
 Sum of Mulliken charges =  -0.00000

 Dipole moment (field-independent basis, Debye):
    X=              0.8113    Y=              0.0179    Z=             -0.1297  Tot=              0.8218
 Quadrupole moment (field-independent basis, Debye-Ang):
   XX=            -77.3327   YY=            -59.0620   ZZ=            -69.5175
   XY=             -0.0611   XZ=              0.2523   YZ=             -0.0058

 Normal termination of Gaussian 16 at Wed Mar  2 04:41:11 2022.
