 Gaussian 16, Revision A.03,

 ----------------------------------------------------------------------
 #p b3lyp/6-31G(d) opt=(MaxStep=10,MaxCycles=1000) freq scf=(MaxCycle=2
 000,NoVarAcc,NoIncFock) scrf=(iefpcm,read,solvent=water)
 ----------------------------------------------------------------------

 ------------
 14.n.pdb.xyz
 ------------
 Symbolic Z-matrix:
 Charge =  0 Multiplicity = 1

 SCF Done:  E(RB3LYP) =  -867.048991813     A.U. after   12 cycles
 SCF Done:  E(RB3LYP) =  -867.051904297     A.U. after    9 cycles
 SCF Done:  E(RB3LYP) =  -867.050576668     A.U. after   10 cycles
 SCF Done:  E(RB3LYP) =  -867.053001772     A.U. after    9 cycles
 SCF Done:  E(RB3LYP) =  -867.051112855     A.U. after   11 cycles
 SCF Done:  E(RB3LYP) =  -867.053247019     A.U. after    9 cycles
 SCF Done:  E(RB3LYP) =  -867.053223209     A.U. after    9 cycles
 SCF Done:  E(RB3LYP) =  -867.053280389     A.U. after    8 cycles
 SCF Done:  E(RB3LYP) =  -867.053286258     A.U. after    8 cycles
 SCF Done:  E(RB3LYP) =  -867.053286021     A.U. after    7 cycles
 SCF Done:  E(RB3LYP) =  -867.053285787     A.U. after    8 cycles
 SCF Done:  E(RB3LYP) =  -867.053286988     A.U. after    7 cycles
 SCF Done:  E(RB3LYP) =  -867.053286136     A.U. after    8 cycles
 SCF Done:  E(RB3LYP) =  -867.053289475     A.U. after    7 cycles
 SCF Done:  E(RB3LYP) =  -867.053289412     A.U. after    6 cycles
 Optimization completed.
    -- Stationary point found.
 Normal termination of Gaussian 16 at Tue Mar  1 20:53:20 2022.

 --------------------------------------------------------------------
 #P Geom=AllCheck Guess=TCheck SCRF=Check GenChk RB3LYP/6-31G(d) Freq
 --------------------------------------------------------------------

 Structure from the checkpoint file:  "14.n.pdb.xyz.mst.wat.chk"
 ------------
 14.n.pdb.xyz
 ------------
 Charge =  0 Multiplicity = 1

 SCF Done:  E(RB3LYP) =  -867.053289412     A.U. after    1 cycles

  Exact polarizability: 302.210   3.912 230.751  -9.527   9.439 163.749
 Approx polarizability: 297.738   0.281 262.939 -10.993  10.478 176.834

                      1                      2                      3
                      A                      A                      A
 Frequencies --     14.6757                23.9980                32.3902
 Red. masses --      4.4290                 3.9779                 2.8939
 Frc consts  --      0.0006                 0.0013                 0.0018
 IR Inten    --      0.4272                 1.9717                 2.0522

                      4                      5                      6
                      A                      A                      A
 Frequencies --     35.9416                43.2416                51.7129
 Red. masses --      2.9404                 4.2031                 3.7108
 Frc consts  --      0.0022                 0.0046                 0.0058
 IR Inten    --      1.2784                 0.3966                 0.9795

                      7                      8                      9
                      A                      A                      A
 Frequencies --     62.1246                80.1738               112.6185
 Red. masses --      3.4510                 4.5492                 1.9140
 Frc consts  --      0.0078                 0.0172                 0.0143
 IR Inten    --      0.8438                 0.1316                 4.0800

                     10                     11                     12
                      A                      A                      A
 Frequencies --    121.6657               141.7569               144.7341
 Red. masses --      2.3031                 3.2497                 2.7715
 Frc consts  --      0.0201                 0.0385                 0.0342
 IR Inten    --      1.6225                 1.7618                 7.2754

                     13                     14                     15
                      A                      A                      A
 Frequencies --    172.1813               197.3944               224.4075
 Red. masses --      2.8499                 2.6405                 2.7379
 Frc consts  --      0.0498                 0.0606                 0.0812
 IR Inten    --      0.4311                 2.7215                 2.3030

                     16                     17                     18
                      A                      A                      A
 Frequencies --    228.0726               242.2774               262.9205
 Red. masses --      1.2571                 2.0655                 1.1445
 Frc consts  --      0.0385                 0.0714                 0.0466
 IR Inten    --      0.5873                 6.3416                 0.8818

                     19                     20                     21
                      A                      A                      A
 Frequencies --    293.8040               312.4457               331.3375
 Red. masses --      3.1022                 2.6024                 3.1573
 Frc consts  --      0.1578                 0.1497                 0.2042
 IR Inten    --      2.0965                14.4353                20.7829

                     22                     23                     24
                      A                      A                      A
 Frequencies --    366.3899               388.2155               391.2308
 Red. masses --      1.2496                 3.8222                 2.5302
 Frc consts  --      0.0988                 0.3394                 0.2282
 IR Inten    --    199.7201                32.4817                 6.2004

                     25                     26                     27
                      A                      A                      A
 Frequencies --    420.9480               427.5524               442.7088
 Red. masses --      2.6041                 3.1222                 2.7451
 Frc consts  --      0.2719                 0.3363                 0.3170
 IR Inten    --      5.6564                 0.5498                 5.4938

                     28                     29                     30
                      A                      A                      A
 Frequencies --    464.3534               489.2061               522.6496
 Red. masses --      3.3167                 2.4859                 3.1272
 Frc consts  --      0.4214                 0.3505                 0.5033
 IR Inten    --      3.4862                11.0692                29.0132

                     31                     32                     33
                      A                      A                      A
 Frequencies --    537.0237               554.4560               618.5039
 Red. masses --      2.8100                 2.7108                 3.8266
 Frc consts  --      0.4775                 0.4910                 0.8625
 IR Inten    --     19.2107                 4.7304                27.8139

                     34                     35                     36
                      A                      A                      A
 Frequencies --    651.9830               729.9587               790.8360
 Red. masses --      6.6333                 4.2498                 1.4123
 Frc consts  --      1.6613                 1.3342                 0.5204
 IR Inten    --      0.6080                 4.5594                 2.9841

                     37                     38                     39
                      A                      A                      A
 Frequencies --    792.1564               801.7636               833.3585
 Red. masses --      2.0018                 1.8181                 1.2905
 Frc consts  --      0.7401                 0.6886                 0.5281
 IR Inten    --     23.9583                85.6185                10.1368

                     40                     41                     42
                      A                      A                      A
 Frequencies --    842.8815               847.8717               863.9365
 Red. masses --      1.8876                 2.0327                 4.0821
 Frc consts  --      0.7901                 0.8610                 1.7951
 IR Inten    --     51.3766                22.9974                19.4406

                     43                     44                     45
                      A                      A                      A
 Frequencies --    900.8357               939.0981               943.6125
 Red. masses --      3.0656                 1.2465                 1.6477
 Frc consts  --      1.4657                 0.6477                 0.8644
 IR Inten    --     78.0065                 0.7171                12.9896

                     46                     47                     48
                      A                      A                      A
 Frequencies --    946.3924               958.0140               965.9472
 Red. masses --      2.3145                 1.6590                 1.3263
 Frc consts  --      1.2214                 0.8971                 0.7291
 IR Inten    --     30.0623                16.4338                 0.6616

                     49                     50                     51
                      A                      A                      A
 Frequencies --    967.2592               985.2219              1028.9118
 Red. masses --      1.4139                 1.7708                 2.9546
 Frc consts  --      0.7794                 1.0127                 1.8429
 IR Inten    --      2.4227                 0.5260                11.0579

                     52                     53                     54
                      A                      A                      A
 Frequencies --   1039.1788              1040.5629              1055.7863
 Red. masses --      3.1660                 3.9262                 1.6320
 Frc consts  --      2.0144                 2.5048                 1.0718
 IR Inten    --    123.4213                30.4661                 4.7211

                     55                     56                     57
                      A                      A                      A
 Frequencies --   1074.9652              1110.7226              1114.0922
 Red. masses --      2.9041                 2.2937                 2.5892
 Frc consts  --      1.9772                 1.6672                 1.8935
 IR Inten    --     76.6649                14.6247                68.4880

                     58                     59                     60
                      A                      A                      A
 Frequencies --   1125.2504              1143.1242              1147.5549
 Red. masses --      2.9250                 2.8831                 1.4308
 Frc consts  --      2.1821                 2.2197                 1.1101
 IR Inten    --    168.8942                82.7980                60.6306

                     61                     62                     63
                      A                      A                      A
 Frequencies --   1168.7179              1184.7897              1191.5044
 Red. masses --      2.0026                 1.2848                 2.0081
 Frc consts  --      1.6116                 1.0626                 1.6797
 IR Inten    --     12.0818                 9.1670                54.8667

                     64                     65                     66
                      A                      A                      A
 Frequencies --   1203.6885              1206.6162              1211.0458
 Red. masses --      1.1661                 1.9367                 1.5002
 Frc consts  --      0.9954                 1.6613                 1.2964
 IR Inten    --     43.4740                51.5514                51.9061

                     67                     68                     69
                      A                      A                      A
 Frequencies --   1238.5533              1247.9630              1267.9121
 Red. masses --      2.4666                 1.2802                 1.6484
 Frc consts  --      2.2294                 1.1748                 1.5613
 IR Inten    --      7.8282                60.7124                65.2452

                     70                     71                     72
                      A                      A                      A
 Frequencies --   1270.6352              1279.5416              1311.7044
 Red. masses --      1.1977                 2.9536                 1.1261
 Frc consts  --      1.1393                 2.8492                 1.1415
 IR Inten    --     54.3116               387.6733                28.9669

                     73                     74                     75
                      A                      A                      A
 Frequencies --   1323.0191              1333.9505              1344.3892
 Red. masses --      1.5015                 1.3461                 1.2919
 Frc consts  --      1.5485                 1.4113                 1.3757
 IR Inten    --      0.1118                61.9925                14.3371

                     76                     77                     78
                      A                      A                      A
 Frequencies --   1349.7242              1364.2622              1369.2103
 Red. masses --      1.4161                 2.0108                 1.5291
 Frc consts  --      1.5199                 2.2050                 1.6890
 IR Inten    --     34.6432                30.6749                 4.5326

                     79                     80                     81
                      A                      A                      A
 Frequencies --   1389.6065              1402.2502              1419.6019
 Red. masses --      1.3375                 1.3361                 1.2938
 Frc consts  --      1.5217                 1.5479                 1.5362
 IR Inten    --     34.1323                 8.7799                18.3709

                     82                     83                     84
                      A                      A                      A
 Frequencies --   1425.3297              1428.6445              1434.4641
 Red. masses --      1.2644                 1.3764                 1.2553
 Frc consts  --      1.5135                 1.6552                 1.5219
 IR Inten    --     31.9449                23.3153                13.4863

                     85                     86                     87
                      A                      A                      A
 Frequencies --   1464.3596              1471.5664              1490.1962
 Red. masses --      2.9721                 1.7258                 1.1156
 Frc consts  --      3.7549                 2.2019                 1.4597
 IR Inten    --      0.1041                11.0549                 4.0281

                     88                     89                     90
                      A                      A                      A
 Frequencies --   1499.0935              1499.5610              1508.9540
 Red. masses --      1.0748                 1.0952                 1.0465
 Frc consts  --      1.4231                 1.4511                 1.4039
 IR Inten    --     10.9891                 3.7093                 1.3668

                     91                     92                     93
                      A                      A                      A
 Frequencies --   1510.5553              1516.1658              1519.0567
 Red. masses --      1.0838                 1.0620                 1.1118
 Frc consts  --      1.4571                 1.4383                 1.5115
 IR Inten    --      6.3838                 4.8689                51.2241

                     94                     95                     96
                      A                      A                      A
 Frequencies --   1524.0877              1525.3064              1529.7570
 Red. masses --      1.1016                 1.0679                 1.0702
 Frc consts  --      1.5076                 1.4639                 1.4756
 IR Inten    --     25.1324                 2.8907                 8.5363

                     97                     98                     99
                      A                      A                      A
 Frequencies --   1533.5105              1539.7681              1559.4828
 Red. masses --      1.0778                 1.1809                 2.3775
 Frc consts  --      1.4933                 1.6496                 3.4066
 IR Inten    --      9.8368                17.3532               181.1669

                    100                    101                    102
                      A                      A                      A
 Frequencies --   1632.9814              1669.7838              2927.1902
 Red. masses --      6.5668                 5.9598                 1.0811
 Frc consts  --     10.3173                 9.7904                 5.4578
 IR Inten    --     17.5483                76.5134               148.2945

                    103                    104                    105
                      A                      A                      A
 Frequencies --   2951.8062              2998.8115              3017.3199
 Red. masses --      1.0731                 1.0822                 1.0548
 Frc consts  --      5.5090                 5.7340                 5.6583
 IR Inten    --    122.9927                84.5358                54.5612

                    106                    107                    108
                      A                      A                      A
 Frequencies --   3023.4405              3049.9546              3052.8920
 Red. masses --      1.0494                 1.0556                 1.0363
 Frc consts  --      5.6517                 5.7852                 5.6907
 IR Inten    --    101.7796                53.1225                44.2060

                    109                    110                    111
                      A                      A                      A
 Frequencies --   3060.8523              3067.9886              3076.8014
 Red. masses --      1.0368                 1.0651                 1.0956
 Frc consts  --      5.7233                 5.9066                 6.1108
 IR Inten    --     21.0622                30.6829               118.1747

                    112                    113                    114
                      A                      A                      A
 Frequencies --   3094.1722              3101.2475              3102.4686
 Red. masses --      1.0895                 1.1060                 1.0971
 Frc consts  --      6.1455                 6.2672                 6.2216
 IR Inten    --     19.7647               111.8420                 5.0824

                    115                    116                    117
                      A                      A                      A
 Frequencies --   3115.6571              3121.3847              3127.5567
 Red. masses --      1.1027                 1.1039                 1.1020
 Frc consts  --      6.3065                 6.3371                 6.3508
 IR Inten    --     61.9076                94.1660                45.5557

                    118                    119                    120
                      A                      A                      A
 Frequencies --   3133.7552              3137.2283              3149.2694
 Red. masses --      1.1016                 1.1012                 1.0996
 Frc consts  --      6.3738                 6.3857                 6.4253
 IR Inten    --     50.1911                85.3448                54.5132

                    121                    122                    123
                      A                      A                      A
 Frequencies --   3197.6578              3200.5160              3222.1594
 Red. masses --      1.0895                 1.0881                 1.0938
 Frc consts  --      6.5635                 6.5669                 6.6908
 IR Inten    --     30.7017                25.3988                19.7951

                    124                    125                    126
                      A                      A                      A
 Frequencies --   3241.9960              3477.3769              3713.2440
 Red. masses --      1.0915                 1.0742                 1.0657
 Frc consts  --      6.7592                 7.6532                 8.6577
 IR Inten    --     14.4798                 0.8182                88.5816

 - Thermochemistry -
 -------------------
 Temperature   298.150 Kelvin.  Pressure   1.00000 Atm.
 Atom     1 has atomic number  6 and mass  12.00000

 Molecular mass:   267.18344 amu.
 Principal axes and moments of inertia in atomic units:
                           1         2         3
     Eigenvalues --  1092.94121********************
           X            0.99998   0.00612  -0.00101
           Y           -0.00606   0.99890   0.04641
           Z            0.00129  -0.04641   0.99892
 This molecule is an asymmetric top.
 Rotational symmetry number  1.
 Warning -- assumption of classical behavior for rotation
           may cause significant error
 Rotational temperatures (Kelvin)      0.07925     0.00395     0.00388
 Rotational constants (GHZ):           1.65127     0.08228     0.08077
 Zero-point vibrational energy    1017534.3 (Joules/Mol)
                                  243.19653 (Kcal/Mol)
 Warning -- explicit consideration of  33 degrees of freedom as
           vibrations may cause significant error
 Vibrational temperatures:     21.12    34.53    46.60    51.71    62.21
          (Kelvin)             74.40    89.38   115.35   162.03   175.05
                              203.96   208.24   247.73   284.01   322.87
                              328.15   348.58   378.28   422.72   449.54
                              476.72   527.15   558.56   562.89   605.65
                              615.15   636.96   668.10   703.86   751.98
                              772.66   797.74   889.89   938.06  1050.25
                             1137.84  1139.74  1153.56  1199.02  1212.72
                             1219.90  1243.01  1296.10  1351.15  1357.65
                             1361.65  1378.37  1389.78  1391.67  1417.51
                             1480.37  1495.15  1497.14  1519.04  1546.64
                             1598.08  1602.93  1618.98  1644.70  1651.08
                             1681.52  1704.65  1714.31  1731.84  1736.05
                             1742.42  1782.00  1795.54  1824.24  1828.16
                             1840.98  1887.25  1903.53  1919.26  1934.28
                             1941.95  1962.87  1969.99  1999.33  2017.53
                             2042.49  2050.73  2055.50  2063.87  2106.89
                             2117.26  2144.06  2156.86  2157.53  2171.05
                             2173.35  2181.42  2185.58  2192.82  2194.58
                             2200.98  2206.38  2215.38  2243.75  2349.50
                             2402.45  4211.57  4246.99  4314.62  4341.25
                             4350.06  4388.20  4392.43  4403.88  4414.15
                             4426.83  4451.82  4462.00  4463.76  4482.74
                             4490.98  4499.86  4508.77  4513.77  4531.10
                             4600.72  4604.83  4635.97  4664.51  5003.17
                             5342.53

 Zero-point correction=                           0.387558 (Hartree/Particle)
 Thermal correction to Energy=                    0.409066
 Thermal correction to Enthalpy=                  0.410011
 Thermal correction to Gibbs Free Energy=         0.333318
 Sum of electronic and zero-point Energies=           -866.665731
 Sum of electronic and thermal Energies=              -866.644223
 Sum of electronic and thermal Enthalpies=            -866.643279
 Sum of electronic and thermal Free Energies=         -866.719972

                     E (Thermal)             CV                S
                      KCal/Mol        Cal/Mol-Kelvin    Cal/Mol-Kelvin
 Total                  256.693             78.251            161.414
 Electronic               0.000              0.000              0.000
 Translational            0.889              2.981             42.647
 Rotational               0.889              2.981             34.637
 Vibrational            254.916             72.289             84.130
 Vibration     1          0.593              1.986              7.249
 Vibration     2          0.593              1.985              6.272
 Vibration     3          0.594              1.983              5.677
 Vibration     4          0.594              1.982              5.471
 Vibration     5          0.595              1.980              5.105
 Vibration     6          0.596              1.977              4.751
 Vibration     7          0.597              1.972              4.389
 Vibration     8          0.600              1.963              3.887
 Vibration     9          0.607              1.939              3.223
 Vibration    10          0.609              1.931              3.074
 Vibration    11          0.615              1.911              2.780
 Vibration    12          0.616              1.908              2.740
 Vibration    13          0.626              1.877              2.412
 Vibration    14          0.637              1.844              2.157
 Vibration    15          0.649              1.804              1.923
 Vibration    16          0.651              1.798              1.894
 Vibration    17          0.658              1.776              1.786
 Vibration    18          0.670              1.741              1.642
 Vibration    19          0.689              1.685              1.452
 Vibration    20          0.701              1.650              1.349
 Vibration    21          0.714              1.613              1.254
 Vibration    22          0.739              1.541              1.095
 Vibration    23          0.756              1.495              1.007
 Vibration    24          0.759              1.489              0.995
 Vibration    25          0.783              1.425              0.889
 Vibration    26          0.789              1.410              0.867
 Vibration    27          0.802              1.377              0.818
 Vibration    28          0.822              1.329              0.754
 Vibration    29          0.845              1.274              0.686
 Vibration    30          0.878              1.200              0.604
 Vibration    31          0.892              1.168              0.572
 Vibration    32          0.910              1.130              0.535
 Vibration    33          0.978              0.993              0.419

                           ! Non-Optimized Parameters !
 Normal termination of Gaussian 16 at Tue Mar  1 21:33:23 2022.

 ------------------------------------------
 #p b3lyp/6-31G(d) geom=allcheck guess=read
 ------------------------------------------

 Structure from the checkpoint file:  "14.n.pdb.xyz.mst.wat.chk"
 ------------
 14.n.pdb.xyz
 ------------
 Charge =  0 Multiplicity = 1

 SCF Done:  E(RB3LYP) =  -867.034214214     A.U. after   11 cycles
 Normal termination of Gaussian 16 at Tue Mar  1 21:35:59 2022.
 Gaussian 16:  ES64L-G16RevA.03 25-Dec-2016

 ----------------------------------------------------------------------
 #p b3lyp/6-31G(d) scrf=(iefpcm,read,solvent=water) geom=allcheck guess
 =read
 ----------------------------------------------------------------------

 Structure from the checkpoint file:  "14.n.pdb.xyz.mst.wat.chk"
 ------------
 14.n.pdb.xyz
 ------------
 Charge =  0 Multiplicity = 1

                         Standard orientation:
 ---------------------------------------------------------------------
 Center     Atomic      Atomic             Coordinates (Angstroms)
 Number     Number       Type             X           Y           Z
 ---------------------------------------------------------------------
      1          6           0        7.968682    0.188066    0.292847
      2          8           0        7.165211   -0.949235    0.561477
      3          6           0        5.785875   -0.636148    0.705819
      4          6           0        5.084177   -0.378478   -0.637514
      5          6           0        3.614812   -0.074278   -0.462352
      6          6           0        3.167158    1.236098   -0.226684
      7          6           0        1.820298    1.517612   -0.028768
      8          6           0        0.876880    0.481862   -0.059856
      9          8           0       -0.425856    0.845297    0.144559
     10          6           0       -1.434812   -0.164825    0.057630
     11          6           0       -2.771070    0.554644    0.194890
     12          8           0       -2.910971    1.531538   -0.832039
     13          6           0       -3.933979   -0.426632    0.097641
     14          7           0       -5.210777    0.220878    0.400466
     15          6           0       -6.362387   -0.697373    0.353660
     16          6           0       -6.705005   -1.059660   -1.094628
     17          6           0       -7.555080   -0.034493    1.044053
     18          6           0        1.297772   -0.831314   -0.290396
     19          6           0        2.656422   -1.092668   -0.487575
     20          1           0        9.006148   -0.150463    0.263772
     21          1           0        7.858273    0.944943    1.082109
     22          1           0        7.721382    0.652879   -0.669683
     23          1           0        5.329620   -1.499008    1.199792
     24          1           0        5.666771    0.235201    1.366797
     25          1           0        5.215949   -1.265189   -1.265616
     26          1           0        5.580492    0.455027   -1.144541
     27          1           0        3.885358    2.050370   -0.205698
     28          1           0        1.479400    2.532686    0.145261
     29          1           0       -1.299219   -0.905554    0.853168
     30          1           0       -1.371567   -0.671006   -0.912708
     31          1           0       -2.789993    1.041421    1.183014
     32          1           0       -2.105082    2.076763   -0.803914
     33          1           0       -3.966392   -0.816960   -0.924592
     34          1           0       -3.728304   -1.285102    0.763574
     35          1           0       -5.146250    0.587257    1.350094
     36          1           0       -6.131052   -1.635679    0.893540
     37          1           0       -6.974480   -0.159950   -1.658097
     38          1           0       -7.551158   -1.752745   -1.124314
     39          1           0       -5.864613   -1.539680   -1.604108
     40          1           0       -7.814341    0.904807    0.543641
     41          1           0       -8.429498   -0.690192    1.016443
     42          1           0       -7.334842    0.188317    2.094097
     43          1           0        0.582386   -1.643504   -0.319008
     44          1           0        2.970928   -2.116063   -0.670852
 ---------------------------------------------------------------------

 SCF Done:  E(RB3LYP) =  -867.051158697     A.U. after   10 cycles

 The electronic state is 1-A.
 Alpha  occ. eigenvalues --  -19.18408 -19.14992 -19.14130 -14.31201 -10.25085
 Alpha  occ. eigenvalues --  -10.23954 -10.23783 -10.22924 -10.22242 -10.20876
 Alpha  occ. eigenvalues --  -10.20501 -10.19338 -10.19169 -10.19158 -10.18992
 Alpha  occ. eigenvalues --  -10.18848 -10.18454 -10.17018 -10.16763  -1.07041
 Alpha  occ. eigenvalues --   -1.02955  -1.01448  -0.89986  -0.85728  -0.79202
 Alpha  occ. eigenvalues --   -0.77590  -0.75319  -0.74543  -0.72015  -0.68764
 Alpha  occ. eigenvalues --   -0.68035  -0.66170  -0.61652  -0.60781  -0.58856
 Alpha  occ. eigenvalues --   -0.57629  -0.56547  -0.53878  -0.51994  -0.49644
 Alpha  occ. eigenvalues --   -0.48947  -0.48155  -0.47773  -0.46601  -0.46191
 Alpha  occ. eigenvalues --   -0.45196  -0.44709  -0.44282  -0.43321  -0.42179
 Alpha  occ. eigenvalues --   -0.42047  -0.40157  -0.39956  -0.38998  -0.38526
 Alpha  occ. eigenvalues --   -0.38049  -0.37482  -0.37276  -0.36820  -0.36216
 Alpha  occ. eigenvalues --   -0.35390  -0.34640  -0.33733  -0.33117  -0.32747
 Alpha  occ. eigenvalues --   -0.32221  -0.31882  -0.31120  -0.27138  -0.25871
 Alpha  occ. eigenvalues --   -0.25515  -0.22369  -0.21851
 Alpha virt. eigenvalues --   -0.00593   0.00738   0.08592   0.08950   0.09805
 Alpha virt. eigenvalues --    0.09974   0.11005   0.11427   0.12343   0.12784
 Alpha virt. eigenvalues --    0.13496   0.13864   0.15277   0.15301   0.15335

 Mulliken charges:
               1
     1  C   -0.214762
     2  O   -0.492628
     3  C   -0.024317
     4  C   -0.372448
     5  C    0.151670
     6  C   -0.202765
     7  C   -0.197816
     8  C    0.374699
     9  O   -0.552981
    10  C   -0.054469
    11  C    0.102707
    12  O   -0.675180
    13  C   -0.123457
    14  N   -0.604715
    15  C    0.071153
    16  C   -0.448068
    17  C   -0.465803
    18  C   -0.208040
    19  C   -0.213262
    20  H    0.164746
    21  H    0.144342
    22  H    0.148480
    23  H    0.150902
    24  H    0.134256
    25  H    0.156424
    26  H    0.159066
    27  H    0.146690
    28  H    0.149716
    29  H    0.160281
    30  H    0.158509
    31  H    0.134400
    32  H    0.431432
    33  H    0.152915
    34  H    0.126707
    35  H    0.325547
    36  H    0.109318
    37  H    0.143810
    38  H    0.145648
    39  H    0.150745
    40  H    0.147463
    41  H    0.150910
    42  H    0.148501
    43  H    0.161639
    44  H    0.148034
 Sum of Mulliken charges =  -0.00000

 Dipole moment (field-independent basis, Debye):
    X=              0.5916    Y=             -0.8200    Z=              1.8035  Tot=              2.0675
 Quadrupole moment (field-independent basis, Debye-Ang):
   XX=           -119.9500   YY=           -112.7228   ZZ=           -117.3061
   XY=             22.2107   XZ=            -13.6214   YZ=              3.1783

 Normal termination of Gaussian 16 at Tue Mar  1 21:39:22 2022.
