 Gaussian 16, Revision A.03,

 ----------------------------------------------------------------------
 #p b3lyp/6-31G(d) opt=(MaxStep=10,MaxCycles=1000) freq scf=(MaxCycle=2
 000,NoVarAcc,NoIncFock) scrf=(iefpcm,read,solvent=water)
 ----------------------------------------------------------------------

 -------------
 140.n.pdb.xyz
 -------------
 Symbolic Z-matrix:
 Charge =  0 Multiplicity = 1

 SCF Done:  E(RB3LYP) =  -312.286942844     A.U. after   11 cycles
 SCF Done:  E(RB3LYP) =  -312.287559405     A.U. after    9 cycles
 SCF Done:  E(RB3LYP) =  -312.287714185     A.U. after    9 cycles
 SCF Done:  E(RB3LYP) =  -312.287782241     A.U. after    8 cycles
 SCF Done:  E(RB3LYP) =  -312.287776034     A.U. after    8 cycles
 SCF Done:  E(RB3LYP) =  -312.287771356     A.U. after    7 cycles
 SCF Done:  E(RB3LYP) =  -312.287781905     A.U. after    8 cycles
 SCF Done:  E(RB3LYP) =  -312.287782087     A.U. after    6 cycles
 SCF Done:  E(RB3LYP) =  -312.287776013     A.U. after    8 cycles
 SCF Done:  E(RB3LYP) =  -312.287775897     A.U. after    6 cycles
 SCF Done:  E(RB3LYP) =  -312.287783574     A.U. after    8 cycles
 SCF Done:  E(RB3LYP) =  -312.287774565     A.U. after    8 cycles
 Optimization completed.
    -- Stationary point found.
 Normal termination of Gaussian 16 at Tue Mar  1 04:15:56 2022.

 --------------------------------------------------------------------
 #P Geom=AllCheck Guess=TCheck SCRF=Check GenChk RB3LYP/6-31G(d) Freq
 --------------------------------------------------------------------

 Structure from the checkpoint file:  "140.n.pdb.xyz.mst.wat.chk"
 -------------
 140.n.pdb.xyz
 -------------
 Charge =  0 Multiplicity = 1

 SCF Done:  E(RB3LYP) =  -312.287774565     A.U. after    1 cycles

  Exact polarizability:  95.950   0.054  83.908   0.167  -0.069  83.190
 Approx polarizability:  93.930   0.110  86.221   0.603   0.296  88.926

                      1                      2                      3
                      A                      A                      A
 Frequencies --     25.4493                72.3785               165.9580
 Red. masses --      1.7553                 1.8275                 1.0413
 Frc consts  --      0.0007                 0.0056                 0.0169
 IR Inten    --      5.5003                 0.1909                 1.2057

                      4                      5                      6
                      A                      A                      A
 Frequencies --    219.8816               229.2758               242.3960
 Red. masses --      2.2659                 1.2760                 1.1595
 Frc consts  --      0.0645                 0.0395                 0.0401
 IR Inten    --      1.3140                 1.6137                 0.2452

                      7                      8                      9
                      A                      A                      A
 Frequencies --    299.1737               342.2403               355.0696
 Red. masses --      1.4066                 2.0752                 2.0643
 Frc consts  --      0.0742                 0.1432                 0.1533
 IR Inten    --      5.2818                 0.1698                 0.1596

                     10                     11                     12
                      A                      A                      A
 Frequencies --    374.3473               431.4904               449.3860
 Red. masses --      2.1665                 3.6101                 2.6624
 Frc consts  --      0.1789                 0.3960                 0.3168
 IR Inten    --      2.1459                 1.3983                 9.8651

                     13                     14                     15
                      A                      A                      A
 Frequencies --    516.0907               721.0879               795.1294
 Red. masses --      2.3240                 3.3098                 1.1817
 Frc consts  --      0.3647                 1.0140                 0.4402
 IR Inten    --      4.1372                 6.2653                 5.3927

                     16                     17                     18
                      A                      A                      A
 Frequencies --    845.8107               926.2930               934.2604
 Red. masses --      2.4962                 1.5392                 1.6705
 Frc consts  --      1.0522                 0.7781                 0.8591
 IR Inten    --     26.4915                 0.9737                19.5191

                     19                     20                     21
                      A                      A                      A
 Frequencies --    994.1737              1031.4549              1067.6381
 Red. masses --      1.2156                 2.0425                 1.4743
 Frc consts  --      0.7079                 1.2803                 0.9901
 IR Inten    --      0.5750                 0.4629                11.3070

                     22                     23                     24
                      A                      A                      A
 Frequencies --   1076.1805              1120.2430              1182.5270
 Red. masses --      2.0241                 4.3174                 1.2882
 Frc consts  --      1.3812                 3.1922                 1.0613
 IR Inten    --     51.3607               114.4642                 4.2981

                     25                     26                     27
                      A                      A                      A
 Frequencies --   1193.3520              1215.0934              1238.9789
 Red. masses --      2.1043                 1.5169                 2.0985
 Frc consts  --      1.7656                 1.3195                 1.8979
 IR Inten    --    108.2469                46.8714                14.0786

                     28                     29                     30
                      A                      A                      A
 Frequencies --   1293.8512              1322.4882              1372.4836
 Red. masses --      2.6017                 1.3704                 1.6294
 Frc consts  --      2.5661                 1.4121                 1.8084
 IR Inten    --     23.4523                 8.9528                 2.2429

                     31                     32                     33
                      A                      A                      A
 Frequencies --   1418.2648              1426.6526              1436.4784
 Red. masses --      1.3044                 1.2774                 1.2343
 Frc consts  --      1.5458                 1.5319                 1.5006
 IR Inten    --     18.0701                 6.2582                11.2407

                     34                     35                     36
                      A                      A                      A
 Frequencies --   1488.2800              1497.2113              1500.3329
 Red. masses --      1.1250                 1.0517                 1.0679
 Frc consts  --      1.4682                 1.3890                 1.4163
 IR Inten    --      3.6256                 4.7142                 0.1173

                     37                     38                     39
                      A                      A                      A
 Frequencies --   1503.1251              1516.1360              1520.6245
 Red. masses --      1.0497                 1.0428                 1.0519
 Frc consts  --      1.3973                 1.4123                 1.4330
 IR Inten    --      0.0679                 1.4243                 6.5618

                     40                     41                     42
                      A                      A                      A
 Frequencies --   1527.7141              1531.0591              1533.7262
 Red. masses --      1.0724                 1.0592                 1.0553
 Frc consts  --      1.4747                 1.4628                 1.4626
 IR Inten    --      5.4188                11.8895                12.9325

                     43                     44                     45
                      A                      A                      A
 Frequencies --   1542.1610              3032.4099              3051.5923
 Red. masses --      1.0556                 1.0335                 1.0592
 Frc consts  --      1.4791                 5.5991                 5.8116
 IR Inten    --      7.9047                74.0616                55.4072

                     46                     47                     48
                      A                      A                      A
 Frequencies --   3063.5017              3065.1973              3076.1956
 Red. masses --      1.0362                 1.0372                 1.0394
 Frc consts  --      5.7296                 5.7413                 5.7950
 IR Inten    --     31.0763                24.8723                 4.1256

                     49                     50                     51
                      A                      A                      A
 Frequencies --   3085.1484              3087.5064              3127.6542
 Red. masses --      1.1011                 1.1031                 1.1023
 Frc consts  --      6.1747                 6.1957                 6.3533
 IR Inten    --    104.5558                50.5220                54.6436

                     52                     53                     54
                      A                      A                      A
 Frequencies --   3131.5094              3134.4379              3136.9876
 Red. masses --      1.1029                 1.1016                 1.1010
 Frc consts  --      6.3720                 6.3768                 6.3835
 IR Inten    --    101.7355                26.2075                75.9876

                     55                     56                     57
                      A                      A                      A
 Frequencies --   3139.5473              3143.3571              3152.2304
 Red. masses --      1.1015                 1.1016                 1.1008
 Frc consts  --      6.3966                 6.4130                 6.4446
 IR Inten    --     19.4918                63.7185                48.2526

 - Thermochemistry -
 -------------------
 Temperature   298.150 Kelvin.  Pressure   1.00000 Atm.
 Atom     1 has atomic number  6 and mass  12.00000

 Molecular mass:   102.10447 amu.
 Principal axes and moments of inertia in atomic units:
                           1         2         3
     Eigenvalues --   430.318031083.055791089.40194
           X            0.99991  -0.01333   0.00079
           Y            0.00137   0.16126   0.98691
           Z            0.01328   0.98682  -0.16126
 This molecule is an asymmetric top.
 Rotational symmetry number  1.
 Rotational temperatures (Kelvin)      0.20128     0.07997     0.07951
 Rotational constants (GHZ):           4.19397     1.66634     1.65663
 Zero-point vibrational energy     507953.7 (Joules/Mol)
                                  121.40384 (Kcal/Mol)
 Warning -- explicit consideration of  13 degrees of freedom as
           vibrations may cause significant error
 Vibrational temperatures:     36.62   104.14   238.78   316.36   329.88
          (Kelvin)            348.75   430.44   492.41   510.87   538.60
                              620.82   646.57   742.54  1037.48  1144.01
                             1216.93  1332.73  1344.19  1430.39  1484.03
                             1536.09  1548.38  1611.78  1701.39  1716.97
                             1748.25  1782.61  1861.56  1902.77  1974.70
                             2040.57  2052.63  2066.77  2141.30  2154.15
                             2158.64  2162.66  2181.38  2187.84  2198.04
                             2202.85  2206.69  2218.83  4362.96  4390.56
                             4407.70  4410.14  4425.96  4438.84  4442.23
                             4500.00  4505.54  4509.76  4513.43  4517.11
                             4522.59  4535.36

 Zero-point correction=                           0.193469 (Hartree/Particle)
 Thermal correction to Energy=                    0.203034
 Thermal correction to Enthalpy=                  0.203978
 Thermal correction to Gibbs Free Energy=         0.159014
 Sum of electronic and zero-point Energies=           -312.094305
 Sum of electronic and thermal Energies=              -312.084741
 Sum of electronic and thermal Enthalpies=            -312.083797
 Sum of electronic and thermal Free Energies=         -312.128761

                     E (Thermal)             CV                S
                      KCal/Mol        Cal/Mol-Kelvin    Cal/Mol-Kelvin
 Total                  127.406             34.268             94.635
 Electronic               0.000              0.000              0.000
 Translational            0.889              2.981             39.780
 Rotational               0.889              2.981             27.720
 Vibrational            125.628             28.307             27.135
 Vibration     1          0.593              1.985              6.156
 Vibration     2          0.598              1.967              4.088
 Vibration     3          0.624              1.884              2.481
 Vibration     4          0.647              1.811              1.960
 Vibration     5          0.652              1.796              1.885
 Vibration     6          0.659              1.775              1.785
 Vibration     7          0.692              1.675              1.422
 Vibration     8          0.721              1.591              1.202
 Vibration     9          0.731              1.565              1.144
 Vibration    10          0.745              1.525              1.062
 Vibration    11          0.793              1.402              0.854
 Vibration    12          0.808              1.362              0.798
 Vibration    13          0.871              1.214              0.619

                           ! Non-Optimized Parameters !
 Normal termination of Gaussian 16 at Tue Mar  1 04:22:02 2022.

 ------------------------------------------
 #p b3lyp/6-31G(d) geom=allcheck guess=read
 ------------------------------------------

 Structure from the checkpoint file:  "140.n.pdb.xyz.mst.wat.chk"
 -------------
 140.n.pdb.xyz
 -------------
 Charge =  0 Multiplicity = 1

 SCF Done:  E(RB3LYP) =  -312.285577533     A.U. after    9 cycles
 Normal termination of Gaussian 16 at Tue Mar  1 04:22:36 2022.
 Gaussian 16:  ES64L-G16RevA.03 25-Dec-2016

 ----------------------------------------------------------------------
 #p b3lyp/6-31G(d) scrf=(iefpcm,read,solvent=water) geom=allcheck guess
 =read
 ----------------------------------------------------------------------

 Structure from the checkpoint file:  "140.n.pdb.xyz.mst.wat.chk"
 -------------
 140.n.pdb.xyz
 -------------
 Charge =  0 Multiplicity = 1

                         Standard orientation:
 ---------------------------------------------------------------------
 Center     Atomic      Atomic             Coordinates (Angstroms)
 Number     Number       Type             X           Y           Z
 ---------------------------------------------------------------------
      1          6           0        2.560046   -0.023354   -0.185205
      2          6           0        1.190965   -0.092118   -0.863543
      3          6           0       -0.028762    0.010511    0.071802
      4          6           0       -0.058543   -1.155523    1.066850
      5          6           0       -0.059498    1.360655    0.798300
      6          8           0       -1.140121   -0.088384   -0.852761
      7          6           0       -2.445192   -0.037553   -0.301961
      8          1           0        3.356628   -0.126433   -0.928060
      9          1           0        2.711197    0.929879    0.330347
     10          1           0        2.687177   -0.823946    0.549290
     11          1           0        1.106146    0.710864   -1.605457
     12          1           0        1.101039   -1.035130   -1.414799
     13          1           0       -0.090205   -2.110287    0.532924
     14          1           0       -0.928196   -1.101134    1.726640
     15          1           0        0.834594   -1.145400    1.696468
     16          1           0       -0.940148    1.452306    1.440029
     17          1           0       -0.073541    2.182219    0.074962
     18          1           0        0.822764    1.478543    1.433898
     19          1           0       -2.651327    0.914860    0.202226
     20          1           0       -3.136725   -0.141879   -1.141193
     21          1           0       -2.632532   -0.853094    0.407358
 ---------------------------------------------------------------------

 SCF Done:  E(RB3LYP) =  -312.287473288     A.U. after    9 cycles

 The electronic state is 1-A.
 Alpha  occ. eigenvalues --  -19.13954 -10.23673 -10.21747 -10.17476 -10.17117
 Alpha  occ. eigenvalues --  -10.16881 -10.16862  -1.01830  -0.80057  -0.72685
 Alpha  occ. eigenvalues --   -0.68675  -0.68525  -0.61853  -0.53623  -0.48433
 Alpha  occ. eigenvalues --   -0.45872  -0.45607  -0.44231  -0.41337  -0.39945
 Alpha  occ. eigenvalues --   -0.39851  -0.37847  -0.37052  -0.35254  -0.34924
 Alpha  occ. eigenvalues --   -0.32898  -0.32615  -0.29381  -0.24988
 Alpha virt. eigenvalues --    0.08257   0.11639   0.12900   0.13015   0.13986
 Alpha virt. eigenvalues --    0.14844   0.16052   0.16586   0.17455   0.17874
 Alpha virt. eigenvalues --    0.19373   0.20755   0.21183   0.22519   0.22776

 Mulliken charges:
               1
     1  C   -0.466182
     2  C   -0.261176
     3  C    0.336970
     4  C   -0.477836
     5  C   -0.477230
     6  O   -0.527808
     7  C   -0.212875
     8  H    0.150148
     9  H    0.152628
    10  H    0.152251
    11  H    0.135931
    12  H    0.136085
    13  H    0.149566
    14  H    0.152517
    15  H    0.155491
    16  H    0.152291
    17  H    0.149251
    18  H    0.155640
    19  H    0.142867
    20  H    0.158230
    21  H    0.143240
 Sum of Mulliken charges =  -0.00000

 Dipole moment (field-independent basis, Debye):
    X=             -0.0303    Y=              0.1590    Z=              1.6127  Tot=              1.6208
 Quadrupole moment (field-independent basis, Debye-Ang):
   XX=            -42.5501   YY=            -45.9769   ZZ=            -47.5644
   XY=             -0.1190   XZ=             -1.3969   YZ=             -0.1548

 Normal termination of Gaussian 16 at Tue Mar  1 04:23:16 2022.
