 Gaussian 16, Revision A.03,

 ----------------------------------------------------------------------
 #p b3lyp/6-31G(d) opt=(MaxStep=10,MaxCycles=1000) freq scf=(MaxCycle=2
 000,NoVarAcc,NoIncFock) scrf=(iefpcm,read,solvent=water)
 ----------------------------------------------------------------------

 -------------
 141.n.pdb.xyz
 -------------
 Symbolic Z-matrix:
 Charge =  0 Multiplicity = 1

 SCF Done:  E(RB3LYP) =  -1754.33555571     A.U. after   13 cycles
 SCF Done:  E(RB3LYP) =  -1754.34152586     A.U. after   10 cycles
 SCF Done:  E(RB3LYP) =  -1754.34501463     A.U. after   11 cycles
 SCF Done:  E(RB3LYP) =  -1754.34634967     A.U. after   10 cycles
 SCF Done:  E(RB3LYP) =  -1754.34657343     A.U. after   10 cycles
 SCF Done:  E(RB3LYP) =  -1754.34666575     A.U. after   10 cycles
 SCF Done:  E(RB3LYP) =  -1754.34674024     A.U. after    9 cycles
 SCF Done:  E(RB3LYP) =  -1754.34680308     A.U. after   10 cycles
 SCF Done:  E(RB3LYP) =  -1754.34684308     A.U. after   10 cycles
 SCF Done:  E(RB3LYP) =  -1754.34684764     A.U. after   10 cycles
 SCF Done:  E(RB3LYP) =  -1754.34792250     A.U. after   10 cycles
 SCF Done:  E(RB3LYP) =  -1754.34790952     A.U. after   10 cycles
 SCF Done:  E(RB3LYP) =  -1754.34793459     A.U. after   10 cycles
 SCF Done:  E(RB3LYP) =  -1754.34792302     A.U. after   10 cycles
 SCF Done:  E(RB3LYP) =  -1754.34793731     A.U. after   10 cycles
 SCF Done:  E(RB3LYP) =  -1754.34793721     A.U. after    7 cycles
 SCF Done:  E(RB3LYP) =  -1754.34793731     A.U. after    7 cycles
 Optimization completed.
    -- Stationary point found.
 Normal termination of Gaussian 16 at Tue Mar  1 11:55:35 2022.

 --------------------------------------------------------------------
 #P Geom=AllCheck Guess=TCheck SCRF=Check GenChk RB3LYP/6-31G(d) Freq
 --------------------------------------------------------------------

 Structure from the checkpoint file:  "141.n.pdb.xyz.mst.wat.chk"
 -------------
 141.n.pdb.xyz
 -------------
 Charge =  0 Multiplicity = 1

 SCF Done:  E(RB3LYP) =  -1754.34793731     A.U. after    1 cycles

  Exact polarizability: 358.756 -14.320 319.936  50.571 -10.254 239.692
 Approx polarizability: 358.784 -13.707 360.144  56.267  -7.031 267.477

                      1                      2                      3
                      A                      A                      A
 Frequencies --      8.8707                15.2551                17.2297
 Red. masses --      6.9732                 6.3401                 5.7898
 Frc consts  --      0.0003                 0.0009                 0.0010
 IR Inten    --      1.0146                 1.1122                 5.1979

                      4                      5                      6
                      A                      A                      A
 Frequencies --     22.0119                36.4658                42.5971
 Red. masses --     16.2237                 4.4769                 4.2164
 Frc consts  --      0.0046                 0.0035                 0.0045
 IR Inten    --      0.7161                 1.9949                 0.5240

                      7                      8                      9
                      A                      A                      A
 Frequencies --     63.8182                66.5574                84.0564
 Red. masses --      4.0544                 3.7180                 3.0427
 Frc consts  --      0.0097                 0.0097                 0.0127
 IR Inten    --      0.1690                 2.0465                 0.8484

                     10                     11                     12
                      A                      A                      A
 Frequencies --    101.8595               109.4994               120.7931
 Red. masses --      3.5277                 7.6837                 2.4511
 Frc consts  --      0.0216                 0.0543                 0.0211
 IR Inten    --      0.4653                 2.8091                 0.3727

                     13                     14                     15
                      A                      A                      A
 Frequencies --    128.3821               137.8473               152.9634
 Red. masses --      2.7940                 4.1742                 3.7718
 Frc consts  --      0.0271                 0.0467                 0.0520
 IR Inten    --      1.7738                 1.1502                 3.4653

                     16                     17                     18
                      A                      A                      A
 Frequencies --    161.6355               179.4122               198.5461
 Red. masses --      2.1243                 3.5901                 6.3437
 Frc consts  --      0.0327                 0.0681                 0.1473
 IR Inten    --      2.1186                 1.6163                 6.3279

                     19                     20                     21
                      A                      A                      A
 Frequencies --    203.7824               224.0039               252.6714
 Red. masses --      4.2113                 3.4790                 3.7752
 Frc consts  --      0.1030                 0.1029                 0.1420
 IR Inten    --      0.8636                 3.7170                 4.0937

                     22                     23                     24
                      A                      A                      A
 Frequencies --    277.5041               296.2465               301.3678
 Red. masses --      6.6284                 3.2651                 2.6799
 Frc consts  --      0.3007                 0.1688                 0.1434
 IR Inten    --      5.7505                 1.1635                 1.5125

                     25                     26                     27
                      A                      A                      A
 Frequencies --    324.4664               328.4444               342.2748
 Red. masses --      2.8337                 7.3655                 6.5339
 Frc consts  --      0.1758                 0.4681                 0.4510
 IR Inten    --     16.6740                 3.8313                 8.5807

                     28                     29                     30
                      A                      A                      A
 Frequencies --    362.1716               390.4435               404.8281
 Red. masses --      4.8317                 2.3402                 3.8082
 Frc consts  --      0.3734                 0.2102                 0.3677
 IR Inten    --      2.8487                12.1338                 2.2969

                     31                     32                     33
                      A                      A                      A
 Frequencies --    429.4278               449.1543               505.2858
 Red. masses --      5.0706                 6.5159                14.1735
 Frc consts  --      0.5509                 0.7745                 2.1321
 IR Inten    --      6.0713                16.6049                 0.3143

                     34                     35                     36
                      A                      A                      A
 Frequencies --    509.2809               529.0193               530.7029
 Red. masses --      4.1862                 5.0740                 4.0947
 Frc consts  --      0.6397                 0.8366                 0.6795
 IR Inten    --      8.3610                 1.4812                 5.9033

                     37                     38                     39
                      A                      A                      A
 Frequencies --    560.7286               576.4676               607.5055
 Red. masses --      3.7873                 3.1667                 7.2492
 Frc consts  --      0.7016                 0.6200                 1.5763
 IR Inten    --      9.3299                10.0283                 2.9705

                     40                     41                     42
                      A                      A                      A
 Frequencies --    622.1356               638.9645               659.5013
 Red. masses --      6.6757                 3.0433                 2.2518
 Frc consts  --      1.5223                 0.7321                 0.5770
 IR Inten    --      1.3153                 9.6590                 8.8214

                     43                     44                     45
                      A                      A                      A
 Frequencies --    680.7952               681.2202               691.3728
 Red. masses --      5.7017                 6.2034                 8.0311
 Frc consts  --      1.5570                 1.6961                 2.2618
 IR Inten    --     18.7550                 7.6882                58.7489

                     46                     47                     48
                      A                      A                      A
 Frequencies --    739.9152               746.0297               761.6951
 Red. masses --      2.7973                 1.0876                 2.3837
 Frc consts  --      0.9023                 0.3567                 0.8148
 IR Inten    --      1.1592                 8.6504                 8.1201

                     49                     50                     51
                      A                      A                      A
 Frequencies --    792.5320               801.0028               811.2131
 Red. masses --      1.9139                 1.8880                 1.4920
 Frc consts  --      0.7083                 0.7137                 0.5785
 IR Inten    --      8.7745                31.0036                39.1967

                     52                     53                     54
                      A                      A                      A
 Frequencies --    815.4490               838.6432               862.9691
 Red. masses --      3.2158                10.3249                 1.5948
 Frc consts  --      1.2599                 4.2785                 0.6997
 IR Inten    --     53.4644                73.0445                44.9143

                     55                     56                     57
                      A                      A                      A
 Frequencies --    870.1692               879.7012               909.9957
 Red. masses --      2.0581                 1.5062                 1.4689
 Frc consts  --      0.9182                 0.6868                 0.7167
 IR Inten    --     10.3436                27.2464                 1.8839

                     58                     59                     60
                      A                      A                      A
 Frequencies --    921.9382               944.9085               971.8961
 Red. masses --      1.4552                 2.1127                 2.2314
 Frc consts  --      0.7287                 1.1114                 1.2418
 IR Inten    --      2.7725                 2.4009                17.6829

                     61                     62                     63
                      A                      A                      A
 Frequencies --    985.1455               994.1706              1004.9803
 Red. masses --      5.8676                 2.6289                 4.1199
 Frc consts  --      3.3551                 1.5309                 2.4516
 IR Inten    --     12.1623               101.9994                75.5028

                     64                     65                     66
                      A                      A                      A
 Frequencies --   1021.9852              1032.7723              1052.0518
 Red. masses --      2.3369                 2.3309                 3.0159
 Frc consts  --      1.4381                 1.4648                 1.9667
 IR Inten    --      4.6807                18.0613                60.3551

                     67                     68                     69
                      A                      A                      A
 Frequencies --   1056.4629              1064.6764              1084.2212
 Red. masses --      2.5237                 2.4169                 2.6704
 Frc consts  --      1.6596                 1.6142                 1.8495
 IR Inten    --     47.2832                69.3631                15.6429

                     70                     71                     72
                      A                      A                      A
 Frequencies --   1100.2045              1105.9419              1115.9861
 Red. masses --      1.8378                 2.1085                 1.8084
 Frc consts  --      1.3107                 1.5195                 1.3270
 IR Inten    --     12.2143                13.5465                85.4385

                     73                     74                     75
                      A                      A                      A
 Frequencies --   1125.9006              1150.0923              1150.8900
 Red. masses --      2.2305                 3.9679                 3.1641
 Frc consts  --      1.6659                 3.0923                 2.4693
 IR Inten    --     39.2176               274.0047               123.7659

                     76                     77                     78
                      A                      A                      A
 Frequencies --   1165.7997              1172.1508              1178.1803
 Red. masses --      3.6036                 2.8474                 2.3227
 Frc consts  --      2.8856                 2.3050                 1.8996
 IR Inten    --     11.6203                85.4563                66.5072

                     79                     80                     81
                      A                      A                      A
 Frequencies --   1194.7832              1197.3275              1213.0268
 Red. masses --      2.5440                 1.5917                 2.0547
 Frc consts  --      2.1396                 1.3444                 1.7813
 IR Inten    --    359.7383                61.7167                37.4576

                     82                     83                     84
                      A                      A                      A
 Frequencies --   1233.6774              1239.6294              1253.5928
 Red. masses --      1.4808                 1.9724                 1.2211
 Frc consts  --      1.3278                 1.7858                 1.1306
 IR Inten    --      5.2598                13.1528                13.1680

                     85                     86                     87
                      A                      A                      A
 Frequencies --   1262.6347              1271.4943              1280.5578
 Red. masses --      1.2685                 1.3354                 1.8977
 Frc consts  --      1.1915                 1.2720                 1.8335
 IR Inten    --     10.2596                 4.8037                15.7308

                     88                     89                     90
                      A                      A                      A
 Frequencies --   1289.8164              1295.6798              1301.9168
 Red. masses --      1.3832                 1.5591                 1.5613
 Frc consts  --      1.3558                 1.5421                 1.5592
 IR Inten    --     71.2160                34.1334               133.4269

                     91                     92                     93
                      A                      A                      A
 Frequencies --   1312.9026              1325.8336              1327.2420
 Red. masses --      1.4997                 1.6706                 2.2657
 Frc consts  --      1.5231                 1.7302                 2.3516
 IR Inten    --    185.3080               152.5815               248.6682

                     94                     95                     96
                      A                      A                      A
 Frequencies --   1331.3827              1339.6739              1348.9478
 Red. masses --      1.1940                 2.9255                 1.4221
 Frc consts  --      1.2470                 3.0934                 1.5247
 IR Inten    --     25.4580                10.6796                 1.7625

                     97                     98                     99
                      A                      A                      A
 Frequencies --   1355.0518              1362.7754              1373.7957
 Red. masses --      1.3730                 1.4089                 1.4037
 Frc consts  --      1.4853                 1.5417                 1.5609
 IR Inten    --     22.6895                 6.2104                53.0841

                    100                    101                    102
                      A                      A                      A
 Frequencies --   1382.8749              1387.4084              1403.3007
 Red. masses --      1.3471                 1.8756                 1.4792
 Frc consts  --      1.5178                 2.1272                 1.7162
 IR Inten    --     44.9431               214.4777               121.9947

                    103                    104                    105
                      A                      A                      A
 Frequencies --   1421.7322              1423.8646              1426.7170
 Red. masses --      1.4463                 1.4811                 1.5775
 Frc consts  --      1.7224                 1.7692                 1.8919
 IR Inten    --     31.3244                50.3336                 6.8083

                    106                    107                    108
                      A                      A                      A
 Frequencies --   1449.4000              1477.1438              1485.4040
 Red. masses --      1.4957                 2.1187                 4.9174
 Frc consts  --      1.8513                 2.7237                 6.3926
 IR Inten    --     15.9854               156.3754               301.7655

                    109                    110                    111
                      A                      A                      A
 Frequencies --   1489.6419              1494.6854              1502.9833
 Red. masses --      1.1069                 1.1570                 1.0898
 Frc consts  --      1.4472                 1.5229                 1.4504
 IR Inten    --      5.5161                19.4960                13.0800

                    112                    113                    114
                      A                      A                      A
 Frequencies --   1507.5318              1515.2761              1517.9738
 Red. masses --      1.4009                 1.1091                 1.1191
 Frc consts  --      1.8759                 1.5004                 1.5193
 IR Inten    --    450.1268                 9.8986                11.0846

                    115                    116                    117
                      A                      A                      A
 Frequencies --   1523.6393              1528.8144              1531.2229
 Red. masses --      1.1464                 1.0881                 1.1123
 Frc consts  --      1.5680                 1.4984                 1.5366
 IR Inten    --    149.6954                 8.7166                16.0599

                    118                    119                    120
                      A                      A                      A
 Frequencies --   1540.4787              1548.0528              1549.3182
 Red. masses --      1.3071                 1.6801                 1.1438
 Frc consts  --      1.8276                 2.3722                 1.6176
 IR Inten    --     79.3472               206.8519                20.7281

                    121                    122                    123
                      A                      A                      A
 Frequencies --   1591.5096              1663.5488              1741.0118
 Red. masses --      7.1587                 6.4670                10.3787
 Frc consts  --     10.6832                10.5444                18.5352
 IR Inten    --    201.7808               540.7741               709.9133

                    124                    125                    126
                      A                      A                      A
 Frequencies --   2931.7897              2969.4770              2985.6465
 Red. masses --      1.0720                 1.0733                 1.0722
 Frc consts  --      5.4291                 5.5759                 5.6313
 IR Inten    --    144.4598               119.2677               122.6129

                    127                    128                    129
                      A                      A                      A
 Frequencies --   3039.0765              3044.3203              3047.4421
 Red. masses --      1.0605                 1.0597                 1.0628
 Frc consts  --      5.7710                 5.7863                 5.8155
 IR Inten    --     80.9097                11.2432                19.8982

                    130                    131                    132
                      A                      A                      A
 Frequencies --   3050.5295              3054.4918              3063.2514
 Red. masses --      1.0624                 1.0738                 1.0659
 Frc consts  --      5.8248                 5.9027                 5.8928
 IR Inten    --    122.0038                66.6567                86.4878

                    133                    134                    135
                      A                      A                      A
 Frequencies --   3070.5640              3072.3419              3080.4866
 Red. masses --      1.0935                 1.0684                 1.0918
 Frc consts  --      6.0747                 5.9418                 6.1045
 IR Inten    --     40.7095                24.3569                27.6824

                    136                    137                    138
                      A                      A                      A
 Frequencies --   3080.9988              3083.0802              3088.2595
 Red. masses --      1.0936                 1.1036                 1.0691
 Frc consts  --      6.1165                 6.1807                 6.0077
 IR Inten    --     69.8953                56.3614                23.1292

                    139                    140                    141
                      A                      A                      A
 Frequencies --   3097.1460              3105.1712              3119.4078
 Red. masses --      1.1029                 1.0939                 1.0891
 Frc consts  --      6.2330                 6.2144                 6.2442
 IR Inten    --    151.8353                68.1858                56.4438

                    142                    143                    144
                      A                      A                      A
 Frequencies --   3129.0502              3136.3732              3146.6345
 Red. masses --      1.1015                 1.0961                 1.1043
 Frc consts  --      6.3541                 6.3529                 6.4419
 IR Inten    --     44.7942                20.5842                54.5155

                    145                    146                    147
                      A                      A                      A
 Frequencies --   3189.2435              3282.7655              3283.2059
 Red. masses --      1.0917                 1.0923                 1.0920
 Frc consts  --      6.5426                 6.9352                 6.9355
 IR Inten    --      6.1206                 0.1575                 3.0423

 - Thermochemistry -
 -------------------
 Temperature   298.150 Kelvin.  Pressure   1.00000 Atm.
 Atom     1 has atomic number  9 and mass  18.99840

 Molecular mass:   404.15907 amu.
 Principal axes and moments of inertia in atomic units:
                           1         2         3
     Eigenvalues --  5098.03255********************
           X            1.00000   0.00035  -0.00162
           Y           -0.00037   0.99995  -0.01008
           Z            0.00162   0.01008   0.99995
 This molecule is an asymmetric top.
 Rotational symmetry number  1.
 Warning -- assumption of classical behavior for rotation
           may cause significant error
 Rotational temperatures (Kelvin)      0.01699     0.00203     0.00194
 Rotational constants (GHZ):           0.35401     0.04240     0.04044
 Zero-point vibrational energy    1098311.1 (Joules/Mol)
                                  262.50264 (Kcal/Mol)
 Warning -- explicit consideration of  39 degrees of freedom as
           vibrations may cause significant error
 Vibrational temperatures:     12.76    21.95    24.79    31.67    52.47
          (Kelvin)             61.29    91.82    95.76   120.94   146.55
                              157.55   173.79   184.71   198.33   220.08
                              232.56   258.13   285.66   293.20   322.29
                              363.54   399.27   426.23   433.60   466.83
                              472.56   492.46   521.08   561.76   582.46
                              617.85   646.23   726.99   732.74   761.14
                              763.56   806.76   829.41   874.06   895.11
                              919.33   948.88   979.51   980.12   994.73
                             1064.57  1073.37  1095.91  1140.28  1152.46
                             1167.15  1173.25  1206.62  1241.62  1251.98
                             1265.69  1309.28  1326.46  1359.51  1398.34
                             1417.40  1430.39  1445.94  1470.41  1485.93
                             1513.67  1520.01  1531.83  1559.95  1582.95
                             1591.20  1605.66  1619.92  1654.73  1655.87
                             1677.33  1686.46  1695.14  1719.03  1722.69
                             1745.28  1774.99  1783.55  1803.64  1816.65
                             1829.40  1842.44  1855.76  1864.19  1873.17
                             1888.97  1907.58  1909.61  1915.56  1927.49
                             1940.84  1949.62  1960.73  1976.59  1989.65
                             1996.17  2019.04  2045.56  2048.62  2052.73
                             2085.36  2125.28  2137.17  2143.26  2150.52
                             2162.46  2169.00  2180.14  2184.03  2192.18
                             2199.62  2203.09  2216.41  2227.30  2229.12
                             2289.83  2393.48  2504.93  4218.19  4272.42
                             4295.68  4372.55  4380.10  4384.59  4389.03
                             4394.73  4407.34  4417.86  4420.41  4432.13
                             4432.87  4435.86  4443.32  4456.10  4467.65
                             4488.13  4502.01  4512.54  4527.31  4588.61
                             4723.17  4723.80

 Zero-point correction=                           0.418325 (Hartree/Particle)
 Thermal correction to Energy=                    0.444321
 Thermal correction to Enthalpy=                  0.445265
 Thermal correction to Gibbs Free Energy=         0.356008
 Sum of electronic and zero-point Energies=          -1753.929613
 Sum of electronic and thermal Energies=             -1753.903617
 Sum of electronic and thermal Enthalpies=           -1753.902673
 Sum of electronic and thermal Free Energies=        -1753.991929

                     E (Thermal)             CV                S
                      KCal/Mol        Cal/Mol-Kelvin    Cal/Mol-Kelvin
 Total                  278.815             96.186            187.856
 Electronic               0.000              0.000              0.000
 Translational            0.889              2.981             43.881
 Rotational               0.889              2.981             37.513
 Vibrational            277.038             90.224            106.462
 Vibration     1          0.593              1.987              8.249
 Vibration     2          0.593              1.986              7.172
 Vibration     3          0.593              1.986              6.930
 Vibration     4          0.593              1.985              6.444
 Vibration     5          0.594              1.982              5.442
 Vibration     6          0.595              1.980              5.134
 Vibration     7          0.597              1.972              4.335
 Vibration     8          0.598              1.970              4.253
 Vibration     9          0.601              1.960              3.794
 Vibration    10          0.604              1.948              3.418
 Vibration    11          0.606              1.942              3.278
 Vibration    12          0.609              1.932              3.088
 Vibration    13          0.611              1.925              2.970
 Vibration    14          0.614              1.916              2.834
 Vibration    15          0.619              1.899              2.635
 Vibration    16          0.622              1.889              2.531
 Vibration    17          0.629              1.868              2.335
 Vibration    18          0.637              1.842              2.147
 Vibration    19          0.639              1.835              2.099
 Vibration    20          0.649              1.805              1.926
 Vibration    21          0.664              1.758              1.712
 Vibration    22          0.678              1.715              1.549
 Vibration    23          0.690              1.681              1.438
 Vibration    24          0.693              1.671              1.409
 Vibration    25          0.709              1.627              1.287
 Vibration    26          0.712              1.619              1.268
 Vibration    27          0.721              1.591              1.202
 Vibration    28          0.736              1.550              1.113
 Vibration    29          0.758              1.491              0.998
 Vibration    30          0.770              1.460              0.945
 Vibration    31          0.791              1.406              0.861
 Vibration    32          0.808              1.363              0.798
 Vibration    33          0.861              1.238              0.645
 Vibration    34          0.864              1.229              0.635
 Vibration    35          0.884              1.186              0.589
 Vibration    36          0.886              1.182              0.586
 Vibration    37          0.916              1.116              0.522
 Vibration    38          0.933              1.082              0.492
 Vibration    39          0.966              1.016              0.437

                           ! Non-Optimized Parameters !
 Normal termination of Gaussian 16 at Tue Mar  1 13:24:04 2022.

 ------------------------------------------
 #p b3lyp/6-31G(d) geom=allcheck guess=read
 ------------------------------------------

 Structure from the checkpoint file:  "141.n.pdb.xyz.mst.wat.chk"
 -------------
 141.n.pdb.xyz
 -------------
 Charge =  0 Multiplicity = 1

 SCF Done:  E(RB3LYP) =  -1754.33771790     A.U. after   12 cycles
 Normal termination of Gaussian 16 at Tue Mar  1 13:29:07 2022.
 Gaussian 16:  ES64L-G16RevA.03 25-Dec-2016

 ----------------------------------------------------------------------
 #p b3lyp/6-31G(d) scrf=(iefpcm,read,solvent=water) geom=allcheck guess
 =read
 ----------------------------------------------------------------------

 Structure from the checkpoint file:  "141.n.pdb.xyz.mst.wat.chk"
 -------------
 141.n.pdb.xyz
 -------------
 Charge =  0 Multiplicity = 1

                         Standard orientation:
 ---------------------------------------------------------------------
 Center     Atomic      Atomic             Coordinates (Angstroms)
 Number     Number       Type             X           Y           Z
 ---------------------------------------------------------------------
      1          9           0       -6.560909   -1.762016   -1.821560
      2          6           0       -6.035794   -1.771713   -0.576684
      3          9           0       -7.078046   -1.743026    0.286183
      4          9           0       -5.413427   -2.955548   -0.408830
      5          6           0       -5.112460   -0.602170   -0.358070
      6          6           0       -3.895860   -0.791545    0.268200
      7          6           0       -3.065777    0.341270    0.488323
      8          7           0       -3.467070    1.577190    0.106372
      9          6           0       -4.635940    1.697056   -0.486692
     10         17           0       -5.087518    3.344397   -0.963414
     11          6           0       -5.528299    0.672955   -0.766493
     12          7           0       -1.847615    0.218429    1.080039
     13          6           0       -1.005726    1.365931    1.403892
     14          6           0        0.435765    1.148669    0.923399
     15          7           0        0.862758   -0.254453    1.082504
     16          6           0        2.300114   -0.371497    1.321875
     17          6           0        3.134210    0.043249    0.108192
     18          6           0        4.637287   -0.107185    0.356868
     19          6           0        5.466043    0.304075   -0.866696
     20          7           0        6.900506    0.184726   -0.667457
     21          6           0        7.669078    1.108784    0.165683
     22          6           0        9.131255    0.738982   -0.154411
     23          6           0        9.048893   -0.728544   -0.599954
     24          6           0        7.616603   -0.888074   -1.097607
     25          8           0        7.167656   -1.828478   -1.758716
     26          6           0        0.057549   -0.950353    2.081953
     27          6           0       -1.376145   -1.080904    1.568112
     28          1           0       -3.589369   -1.778907    0.578177
     29          1           0       -6.470471    0.852140   -1.261163
     30          1           0       -1.431192    2.250358    0.936398
     31          1           0       -1.019523    1.524992    2.488270
     32          1           0        0.526707    1.435858   -0.129144
     33          1           0        1.083191    1.826970    1.503605
     34          1           0        2.607630    0.230515    2.198671
     35          1           0        2.511769   -1.419000    1.563146
     36          1           0        2.912535    1.084819   -0.153601
     37          1           0        2.832651   -0.567368   -0.751887
     38          1           0        4.929116    0.502212    1.220467
     39          1           0        4.873245   -1.148236    0.609137
     40          1           0        5.217331   -0.333227   -1.719170
     41          1           0        5.240836    1.340480   -1.142261
     42          1           0        7.433773    0.961863    1.226926
     43          1           0        7.424848    2.143518   -0.091206
     44          1           0        9.493914    1.359450   -0.978607
     45          1           0        9.789385    0.896306    0.701785
     46          1           0        9.194004   -1.422102    0.236631
     47          1           0        9.762107   -1.003255   -1.379840
     48          1           0        0.071960   -0.456814    3.069095
     49          1           0        0.463944   -1.954760    2.223275
     50          1           0       -1.394870   -1.801817    0.743856
     51          1           0       -2.030361   -1.460774    2.363535
 ---------------------------------------------------------------------

 SCF Done:  E(RB3LYP) =  -1754.34614791     A.U. after   11 cycles

 The electronic state is 1-A.
 Alpha  occ. eigenvalues -- -101.55294 -24.73604 -24.73262 -24.72999 -19.11180
 Alpha  occ. eigenvalues --  -14.36815 -14.36032 -14.34348 -14.32695 -10.44280
 Alpha  occ. eigenvalues --  -10.29144 -10.28076 -10.28018 -10.23452 -10.22380
 Alpha  occ. eigenvalues --  -10.22009 -10.21928 -10.21599 -10.21357 -10.20973
 Alpha  occ. eigenvalues --  -10.20749 -10.20706 -10.20571 -10.18972 -10.18876
 Alpha  occ. eigenvalues --  -10.18308 -10.18030  -9.46978  -7.23344  -7.22426
 Alpha  occ. eigenvalues --   -7.22370  -1.31098  -1.22532  -1.22070  -1.02794
 Alpha  occ. eigenvalues --   -0.99610  -0.95088  -0.94218  -0.91508  -0.85467
 Alpha  occ. eigenvalues --   -0.84058  -0.81077  -0.78210  -0.77410  -0.76046
 Alpha  occ. eigenvalues --   -0.72731  -0.72033  -0.71241  -0.69260  -0.66530
 Alpha  occ. eigenvalues --   -0.64712  -0.63353  -0.62165  -0.60598  -0.59064
 Alpha  occ. eigenvalues --   -0.58899  -0.58413  -0.57620  -0.54357  -0.53067
 Alpha  occ. eigenvalues --   -0.52026  -0.51747  -0.50516  -0.50256  -0.49554
 Alpha  occ. eigenvalues --   -0.48307  -0.47482  -0.46993  -0.46547  -0.46476
 Alpha  occ. eigenvalues --   -0.45686  -0.45212  -0.44447  -0.44142  -0.43028
 Alpha  occ. eigenvalues --   -0.42545  -0.42336  -0.42113  -0.41668  -0.41287
 Alpha  occ. eigenvalues --   -0.40711  -0.40382  -0.40068  -0.39733  -0.39449
 Alpha  occ. eigenvalues --   -0.39078  -0.38465  -0.38041  -0.37275  -0.36874
 Alpha  occ. eigenvalues --   -0.35850  -0.35320  -0.35078  -0.34552  -0.33788
 Alpha  occ. eigenvalues --   -0.33353  -0.32933  -0.32524  -0.32240  -0.31126
 Alpha  occ. eigenvalues --   -0.28497  -0.28116  -0.25079  -0.23774  -0.21946
 Alpha  occ. eigenvalues --   -0.20855
 Alpha virt. eigenvalues --   -0.04355  -0.00910   0.02568   0.02985   0.08317
 Alpha virt. eigenvalues --    0.08967   0.09949   0.10819   0.11361   0.11681
 Alpha virt. eigenvalues --    0.11991   0.12443   0.12835   0.13350   0.13812

 Mulliken charges:
               1
     1  F   -0.271302
     2  C    0.799611
     3  F   -0.266875
     4  F   -0.268747
     5  C    0.014293
     6  C   -0.237143
     7  C    0.553693
     8  N   -0.538962
     9  C    0.120146
    10  Cl  -0.044433
    11  C   -0.189675
    12  N   -0.489758
    13  C   -0.178852
    14  C   -0.116298
    15  N   -0.433878
    16  C   -0.116413
    17  C   -0.272392
    18  C   -0.268843
    19  C   -0.145577
    20  N   -0.414628
    21  C   -0.123473
    22  C   -0.299464
    23  C   -0.373175
    24  C    0.591752
    25  O   -0.608541
    26  C   -0.161890
    27  C   -0.117978
    28  H    0.181522
    29  H    0.183504
    30  H    0.196369
    31  H    0.168873
    32  H    0.157711
    33  H    0.136534
    34  H    0.120049
    35  H    0.145952
    36  H    0.149830
    37  H    0.143243
    38  H    0.148134
    39  H    0.147705
    40  H    0.165381
    41  H    0.157097
    42  H    0.162917
    43  H    0.165683
    44  H    0.166549
    45  H    0.162532
    46  H    0.181853
    47  H    0.174753
    48  H    0.139682
    49  H    0.168785
    50  H    0.169214
    51  H    0.164931
 Sum of Mulliken charges =  -0.00000

 Dipole moment (field-independent basis, Debye):
    X=              5.2430    Y=              2.0983    Z=              6.1511  Tot=              8.3503
 Quadrupole moment (field-independent basis, Debye-Ang):
   XX=           -170.6627   YY=           -175.9799   ZZ=           -164.8052
   XY=             35.1717   XZ=             17.9735   YZ=             -8.6257

 Normal termination of Gaussian 16 at Tue Mar  1 13:35:24 2022.
