 Gaussian 16, Revision A.03,

 ----------------------------------------------------------------------
 #p b3lyp/6-31G(d) opt=(MaxStep=10,MaxCycles=1000) freq scf=(MaxCycle=2
 000,NoVarAcc,NoIncFock) scrf=(iefpcm,read,solvent=water)
 ----------------------------------------------------------------------

 -------------
 142.n.pdb.xyz
 -------------
 Symbolic Z-matrix:
 Charge =  0 Multiplicity = 1

 SCF Done:  E(RB3LYP) =  -1294.74708514     A.U. after   13 cycles
 SCF Done:  E(RB3LYP) =  -1294.75236696     A.U. after   10 cycles
 SCF Done:  E(RB3LYP) =  -1294.75381505     A.U. after   11 cycles
 SCF Done:  E(RB3LYP) =  -1294.75564818     A.U. after   10 cycles
 SCF Done:  E(RB3LYP) =  -1294.75611637     A.U. after   10 cycles
 SCF Done:  E(RB3LYP) =  -1294.75632179     A.U. after   10 cycles
 SCF Done:  E(RB3LYP) =  -1294.75666497     A.U. after   10 cycles
 SCF Done:  E(RB3LYP) =  -1294.75685875     A.U. after   10 cycles
 SCF Done:  E(RB3LYP) =  -1294.75692515     A.U. after    9 cycles
 SCF Done:  E(RB3LYP) =  -1294.75694816     A.U. after    9 cycles
 SCF Done:  E(RB3LYP) =  -1294.75695893     A.U. after    8 cycles
 SCF Done:  E(RB3LYP) =  -1294.75695980     A.U. after    7 cycles
 SCF Done:  E(RB3LYP) =  -1294.75696135     A.U. after    8 cycles
 SCF Done:  E(RB3LYP) =  -1294.75696012     A.U. after    8 cycles
 SCF Done:  E(RB3LYP) =  -1294.75696050     A.U. after    7 cycles
 SCF Done:  E(RB3LYP) =  -1294.75696139     A.U. after    8 cycles
 SCF Done:  E(RB3LYP) =  -1294.75696053     A.U. after    8 cycles
 Optimization completed.
    -- Stationary point found.
 Normal termination of Gaussian 16 at Tue Mar  1 18:00:40 2022.

 --------------------------------------------------------------------
 #P Geom=AllCheck Guess=TCheck SCRF=Check GenChk RB3LYP/6-31G(d) Freq
 --------------------------------------------------------------------

 Structure from the checkpoint file:  "142.n.pdb.xyz.mst.wat.chk"
 -------------
 142.n.pdb.xyz
 -------------
 Charge =  0 Multiplicity = 1

 SCF Done:  E(RB3LYP) =  -1294.75696053     A.U. after    1 cycles

  Exact polarizability: 369.116 -23.665 283.681  -3.222   4.452 217.536
 Approx polarizability: 365.858 -23.580 321.529  -5.278   7.994 246.375

                      1                      2                      3
                      A                      A                      A
 Frequencies --     10.5720                18.2885                18.8719
 Red. masses --      6.5518                 5.7014                 8.4801
 Frc consts  --      0.0004                 0.0011                 0.0018
 IR Inten    --      0.9687                 0.8565                 2.3882

                      4                      5                      6
                      A                      A                      A
 Frequencies --     22.5373                36.0962                48.9039
 Red. masses --      5.4951                 4.0655                 3.4514
 Frc consts  --      0.0016                 0.0031                 0.0049
 IR Inten    --      2.7416                 2.9944                 0.1819

                      7                      8                      9
                      A                      A                      A
 Frequencies --     54.3636                77.5860                83.7875
 Red. masses --      3.9157                 3.7070                 6.1415
 Frc consts  --      0.0068                 0.0131                 0.0254
 IR Inten    --      0.3449                 1.2180                 0.0719

                     10                     11                     12
                      A                      A                      A
 Frequencies --    100.9680               120.7973               131.7536
 Red. masses --      2.0258                 3.1912                 5.5706
 Frc consts  --      0.0122                 0.0274                 0.0570
 IR Inten    --      0.3169                 2.1187                 1.4811

                     13                     14                     15
                      A                      A                      A
 Frequencies --    146.1682               155.5010               158.8263
 Red. masses --      3.2802                 3.1743                 2.1743
 Frc consts  --      0.0413                 0.0452                 0.0323
 IR Inten    --      3.1699                 6.5037                 3.4329

                     16                     17                     18
                      A                      A                      A
 Frequencies --    185.6236               203.1942               222.6004
 Red. masses --      4.6136                 3.3791                 3.2257
 Frc consts  --      0.0937                 0.0822                 0.0942
 IR Inten    --      1.5717                 1.1526                 9.7441

                     19                     20                     21
                      A                      A                      A
 Frequencies --    253.3878               265.1424               280.5009
 Red. masses --      2.4973                 3.2765                 3.8526
 Frc consts  --      0.0945                 0.1357                 0.1786
 IR Inten    --      4.3379                 8.9598                 5.1002

                     22                     23                     24
                      A                      A                      A
 Frequencies --    302.7690               321.3386               326.0123
 Red. masses --      2.7192                 2.7572                 7.3127
 Frc consts  --      0.1469                 0.1677                 0.4579
 IR Inten    --     11.8751                14.7623                 9.4071

                     25                     26                     27
                      A                      A                      A
 Frequencies --    344.1747               381.1783               393.4217
 Red. masses --      6.1950                 3.4565                 4.6299
 Frc consts  --      0.4324                 0.2959                 0.4222
 IR Inten    --      0.4697                 1.5733                 3.2018

                     28                     29                     30
                      A                      A                      A
 Frequencies --    414.0791               451.0062               463.9555
 Red. masses --      2.3673                 4.1850                 3.9732
 Frc consts  --      0.2391                 0.5015                 0.5039
 IR Inten    --      2.4127                12.7469                 3.1723

                     31                     32                     33
                      A                      A                      A
 Frequencies --    485.9986               500.2063               518.7503
 Red. masses --      4.0166                 3.4115                 3.6537
 Frc consts  --      0.5590                 0.5029                 0.5793
 IR Inten    --     11.6239                 2.2895                 7.3919

                     34                     35                     36
                      A                      A                      A
 Frequencies --    527.7249               561.2836               578.0769
 Red. masses --      7.2392                 3.2762                 3.3898
 Frc consts  --      1.1878                 0.6081                 0.6674
 IR Inten    --      5.6804                 5.6624                 8.4124

                     37                     38                     39
                      A                      A                      A
 Frequencies --    584.5488               638.8414               651.5053
 Red. masses --      9.0666                 3.0206                 2.4817
 Frc consts  --      1.8253                 0.7263                 0.6206
 IR Inten    --      3.9994                 9.7544                 2.3300

                     40                     41                     42
                      A                      A                      A
 Frequencies --    668.5676               680.4085               691.1202
 Red. masses --      9.6743                 5.7841                 6.5150
 Frc consts  --      2.5478                 1.5777                 1.8335
 IR Inten    --     41.9763                12.6971                22.1139

                     43                     44                     45
                      A                      A                      A
 Frequencies --    747.8772               748.9289               754.2821
 Red. masses --      1.1464                 4.9807                 2.9503
 Frc consts  --      0.3778                 1.6460                 0.9890
 IR Inten    --      8.5283                 9.5063                 3.3232

                     46                     47                     48
                      A                      A                      A
 Frequencies --    762.3959               795.3190               810.7030
 Red. masses --      2.3564                 1.3109                 4.0624
 Frc consts  --      0.8070                 0.4886                 1.5731
 IR Inten    --      9.1551                 0.2562                 5.7639

                     49                     50                     51
                      A                      A                      A
 Frequencies --    821.7227               834.3364               869.4293
 Red. masses --      1.3503                 3.1975                 1.8301
 Frc consts  --      0.5372                 1.3114                 0.8151
 IR Inten    --     40.3217                24.2681                 5.0774

                     52                     53                     54
                      A                      A                      A
 Frequencies --    869.7730               876.5781               910.6345
 Red. masses --      1.8105                 1.6363                 1.4782
 Frc consts  --      0.8070                 0.7408                 0.7222
 IR Inten    --      4.3237                51.8258                 2.7302

                     55                     56                     57
                      A                      A                      A
 Frequencies --    926.7278               945.8309               972.5654
 Red. masses --      1.4975                 2.0526                 2.2544
 Frc consts  --      0.7577                 1.0819                 1.2563
 IR Inten    --      2.1438                 1.7116                11.6669

                     58                     59                     60
                      A                      A                      A
 Frequencies --    979.6253               980.1558               996.8158
 Red. masses --      3.2780                 1.5006                 5.7608
 Frc consts  --      1.8535                 0.8494                 3.3726
 IR Inten    --     73.1455                20.5586               185.1717

                     61                     62                     63
                      A                      A                      A
 Frequencies --   1008.3431              1026.3546              1037.4309
 Red. masses --      2.9402                 1.9614                 2.7968
 Frc consts  --      1.7613                 1.2174                 1.7735
 IR Inten    --     15.2777                18.4046                 5.5713

                     64                     65                     66
                      A                      A                      A
 Frequencies --   1055.5416              1061.4698              1081.5536
 Red. masses --      2.8759                 2.7338                 2.1623
 Frc consts  --      1.8879                 1.8148                 1.4903
 IR Inten    --      8.8504                 1.8545                16.3364

                     67                     68                     69
                      A                      A                      A
 Frequencies --   1084.9536              1096.0642              1104.7879
 Red. masses --      1.9955                 2.2313                 1.9936
 Frc consts  --      1.3840                 1.5794                 1.4337
 IR Inten    --      4.9740                 4.3145                 1.2213

                     70                     71                     72
                      A                      A                      A
 Frequencies --   1114.1388              1116.1864              1127.7360
 Red. masses --      2.1091                 2.9890                 1.6480
 Frc consts  --      1.5425                 2.1941                 1.2349
 IR Inten    --     18.2386                73.9636                12.1661

                     73                     74                     75
                      A                      A                      A
 Frequencies --   1147.1573              1148.2203              1161.4196
 Red. masses --      7.3351                 2.4865                 2.3286
 Frc consts  --      5.6872                 1.9315                 1.8506
 IR Inten    --    265.5272               163.1733                90.7000

                     76                     77                     78
                      A                      A                      A
 Frequencies --   1175.2870              1181.7869              1192.6933
 Red. masses --      2.7796                 6.4793                 1.6791
 Frc consts  --      2.2621                 5.3316                 1.4073
 IR Inten    --     93.7956               311.8177                24.6425

                     79                     80                     81
                      A                      A                      A
 Frequencies --   1204.7558              1233.9294              1235.9614
 Red. masses --      1.6584                 1.5087                 2.3849
 Frc consts  --      1.4182                 1.3534                 2.1465
 IR Inten    --     18.8068                 5.6045                10.5257

                     82                     83                     84
                      A                      A                      A
 Frequencies --   1237.5653              1253.9597              1269.4914
 Red. masses --      1.1122                 1.2248                 1.5957
 Frc consts  --      1.0037                 1.1347                 1.5152
 IR Inten    --     15.3024                 5.6769               104.4597

                     85                     86                     87
                      A                      A                      A
 Frequencies --   1281.1348              1286.8330              1301.4379
 Red. masses --      1.4590                 1.6988                 1.4216
 Frc consts  --      1.4109                 1.6575                 1.4187
 IR Inten    --    164.7274                71.1177                36.6086

                     88                     89                     90
                      A                      A                      A
 Frequencies --   1309.5384              1321.3613              1325.8169
 Red. masses --      1.4846                 1.8346                 4.8447
 Frc consts  --      1.5000                 1.8872                 5.0175
 IR Inten    --     83.4800               202.0640                17.6351

                     91                     92                     93
                      A                      A                      A
 Frequencies --   1326.2375              1330.2852              1340.6849
 Red. masses --      1.7704                 1.5076                 1.1650
 Frc consts  --      1.8347                 1.5719                 1.2337
 IR Inten    --     85.7493               161.6018                 0.5040

                     94                     95                     96
                      A                      A                      A
 Frequencies --   1351.5215              1354.6650              1356.3442
 Red. masses --      1.3682                 1.4908                 1.3534
 Frc consts  --      1.4725                 1.6119                 1.4669
 IR Inten    --     98.8899               186.2674                30.3988

                     97                     98                     99
                      A                      A                      A
 Frequencies --   1363.4199              1377.6590              1381.5248
 Red. masses --      1.4237                 1.4449                 1.3473
 Frc consts  --      1.5593                 1.6157                 1.5151
 IR Inten    --     43.7564                25.9676                30.1691

                    100                    101                    102
                      A                      A                      A
 Frequencies --   1397.3936              1409.1034              1421.6803
 Red. masses --      1.7419                 1.6676                 1.4437
 Frc consts  --      2.0040                 1.9508                 1.7192
 IR Inten    --      8.9156                45.8343                20.7689

                    103                    104                    105
                      A                      A                      A
 Frequencies --   1431.5934              1433.2611              1449.3425
 Red. masses --      1.3863                 1.5960                 1.5344
 Frc consts  --      1.6740                 1.9317                 1.8990
 IR Inten    --     41.0844                 5.4155                 2.6985

                    106                    107                    108
                      A                      A                      A
 Frequencies --   1479.0090              1485.1276              1488.3627
 Red. masses --      1.9848                 3.0007                 1.1457
 Frc consts  --      2.5581                 3.8995                 1.4953
 IR Inten    --    151.8900               766.4266                10.7297

                    109                    110                    111
                      A                      A                      A
 Frequencies --   1495.4812              1501.5381              1507.1993
 Red. masses --      1.1527                 1.0977                 1.0864
 Frc consts  --      1.5189                 1.4582                 1.4540
 IR Inten    --     17.9687                 0.8718                 1.0273

                    112                    113                    114
                      A                      A                      A
 Frequencies --   1510.9636              1511.6012              1517.2366
 Red. masses --      1.1174                 1.1082                 1.1329
 Frc consts  --      1.5030                 1.4919                 1.5366
 IR Inten    --      2.0108                10.2278                 3.9154

                    115                    116                    117
                      A                      A                      A
 Frequencies --   1519.6604              1521.2926              1534.0874
 Red. masses --      1.1196                 1.2898                 1.9009
 Frc consts  --      1.5234                 1.7588                 2.6357
 IR Inten    --     10.8932                33.7176                98.8701

                    118                    119                    120
                      A                      A                      A
 Frequencies --   1536.4666              1551.2427              1613.8671
 Red. masses --      1.1086                 1.1425                 7.0242
 Frc consts  --      1.5419                 1.6199                10.7791
 IR Inten    --      8.3601                26.1934                97.5629

                    121                    122                    123
                      A                      A                      A
 Frequencies --   1665.0956              1741.2316              2940.5070
 Red. masses --      5.7294                10.3560                 1.0722
 Frc consts  --      9.3592                18.4993                 5.4623
 IR Inten    --    294.3072               713.7116                45.5521

                    124                    125                    126
                      A                      A                      A
 Frequencies --   2944.6288              2950.4216              3013.2508
 Red. masses --      1.0734                 1.0719                 1.0735
 Frc consts  --      5.4835                 5.4977                 5.7430
 IR Inten    --     47.4438               303.3673                93.6712

                    127                    128                    129
                      A                      A                      A
 Frequencies --   3018.5111              3043.6448              3049.0443
 Red. masses --      1.0727                 1.0656                 1.0606
 Frc consts  --      5.7587                 5.8162                 5.8094
 IR Inten    --    129.9333                48.4741                27.7706

                    130                    131                    132
                      A                      A                      A
 Frequencies --   3053.4924              3059.4889              3070.1005
 Red. masses --      1.0612                 1.0659                 1.0881
 Frc consts  --      5.8296                 5.8786                 6.0426
 IR Inten    --     30.5303               123.1375                48.3715

                    133                    134                    135
                      A                      A                      A
 Frequencies --   3070.9500              3081.0290              3090.1301
 Red. masses --      1.0688                 1.0998                 1.0697
 Frc consts  --      5.9385                 6.1510                 6.0180
 IR Inten    --     25.9438                 0.5798                22.4943

                    136                    137                    138
                      A                      A                      A
 Frequencies --   3100.3352              3105.2104              3105.9975
 Red. masses --      1.1038                 1.0887                 1.0924
 Frc consts  --      6.2511                 6.1850                 6.2094
 IR Inten    --    129.5102                88.9751                61.9806

                    139                    140                    141
                      A                      A                      A
 Frequencies --   3127.5663              3134.1691              3137.9383
 Red. masses --      1.0877                 1.0988                 1.0957
 Frc consts  --      6.2684                 6.3595                 6.3568
 IR Inten    --     59.1912                39.7411                21.3752

                    142                    143                    144
                      A                      A                      A
 Frequencies --   3148.6560              3161.0699              3186.2279
 Red. masses --      1.1041                 1.0899                 1.0893
 Frc consts  --      6.4491                 6.4166                 6.5156
 IR Inten    --     53.6921                30.1110                18.0447

                    145                    146                    147
                      A                      A                      A
 Frequencies --   3188.8172              3252.4108              3279.7201
 Red. masses --      1.0902                 1.0938                 1.0899
 Frc consts  --      6.5315                 6.8169                 6.9071
 IR Inten    --     48.5620                 6.2776                 3.9640

 - Thermochemistry -
 -------------------
 Temperature   298.150 Kelvin.  Pressure   1.00000 Atm.
 Atom     1 has atomic number  9 and mass  18.99840

 Molecular mass:   370.19805 amu.
 Principal axes and moments of inertia in atomic units:
                           1         2         3
     Eigenvalues --  2266.48449********************
           X            0.99998  -0.00325   0.00473
           Y            0.00330   0.99994  -0.01060
           Z           -0.00470   0.01062   0.99993
 This molecule is an asymmetric top.
 Rotational symmetry number  1.
 Warning -- assumption of classical behavior for rotation
           may cause significant error
 Rotational temperatures (Kelvin)      0.03822     0.00200     0.00196
 Rotational constants (GHZ):           0.79627     0.04173     0.04083
 Zero-point vibrational energy    1124995.4 (Joules/Mol)
                                  268.88036 (Kcal/Mol)
 Warning -- explicit consideration of  37 degrees of freedom as
           vibrations may cause significant error
 Vibrational temperatures:     15.21    26.31    27.15    32.43    51.93
          (Kelvin)             70.36    78.22   111.63   120.55   145.27
                              173.80   189.56   210.30   223.73   228.52
                              267.07   292.35   320.27   364.57   381.48
                              403.58   435.62   462.33   469.06   495.19
                              548.43   566.05   595.77   648.90   667.53
                              699.24   719.69   746.37   759.28   807.56
                              831.72   841.04   919.15   937.37   961.92
                              978.96   994.37  1076.03  1077.54  1085.24
                             1096.92  1144.29  1166.42  1182.28  1200.42
                             1250.91  1251.41  1261.20  1310.20  1333.35
                             1360.84  1399.30  1409.46  1410.23  1434.20
                             1450.78  1476.70  1492.63  1518.69  1527.22
                             1556.11  1561.01  1576.99  1589.54  1603.00
                             1605.94  1622.56  1650.50  1652.03  1671.02
                             1690.98  1700.33  1716.02  1733.37  1775.35
                             1778.27  1780.58  1804.17  1826.51  1843.27
                             1851.47  1872.48  1884.13  1901.14  1907.55
                             1908.16  1913.98  1928.95  1944.54  1949.06
                             1951.48  1961.66  1982.14  1987.71  2010.54
                             2027.39  2045.48  2059.74  2062.14  2085.28
                             2127.96  2136.77  2141.42  2151.66  2160.38
                             2168.52  2173.94  2174.86  2182.97  2186.45
                             2188.80  2207.21  2210.63  2231.89  2321.99
                             2395.70  2505.24  4230.73  4236.66  4245.00
                             4335.40  4342.96  4379.13  4386.89  4393.29
                             4401.92  4417.19  4418.41  4432.91  4446.01
                             4460.69  4467.71  4468.84  4499.87  4509.37
                             4514.79  4530.21  4548.07  4584.27  4588.00
                             4679.49  4718.79

 Zero-point correction=                           0.428488 (Hartree/Particle)
 Thermal correction to Energy=                    0.453088
 Thermal correction to Enthalpy=                  0.454032
 Thermal correction to Gibbs Free Energy=         0.368572
 Sum of electronic and zero-point Energies=          -1294.328472
 Sum of electronic and thermal Energies=             -1294.303873
 Sum of electronic and thermal Enthalpies=           -1294.302929
 Sum of electronic and thermal Free Energies=        -1294.388388

                     E (Thermal)             CV                S
                      KCal/Mol        Cal/Mol-Kelvin    Cal/Mol-Kelvin
 Total                  284.317             92.088            179.864
 Electronic               0.000              0.000              0.000
 Translational            0.889              2.981             43.619
 Rotational               0.889              2.981             36.714
 Vibrational            282.539             86.126             99.531
 Vibration     1          0.593              1.987              7.901
 Vibration     2          0.593              1.986              6.812
 Vibration     3          0.593              1.986              6.749
 Vibration     4          0.593              1.985              6.397
 Vibration     5          0.594              1.982              5.463
 Vibration     6          0.595              1.978              4.861
 Vibration     7          0.596              1.976              4.652
 Vibration     8          0.599              1.964              3.951
 Vibration     9          0.601              1.960              3.800
 Vibration    10          0.604              1.948              3.436
 Vibration    11          0.609              1.932              3.088
 Vibration    12          0.612              1.922              2.920
 Vibration    13          0.617              1.907              2.722
 Vibration    14          0.620              1.897              2.604
 Vibration    15          0.621              1.893              2.564
 Vibration    16          0.632              1.859              2.271
 Vibration    17          0.639              1.835              2.104
 Vibration    18          0.648              1.807              1.938
 Vibration    19          0.665              1.757              1.707
 Vibration    20          0.671              1.737              1.628
 Vibration    21          0.680              1.710              1.531
 Vibration    22          0.694              1.668              1.402
 Vibration    23          0.707              1.633              1.303
 Vibration    24          0.710              1.623              1.280
 Vibration    25          0.723              1.587              1.193
 Vibration    26          0.751              1.510              1.034
 Vibration    27          0.761              1.484              0.987
 Vibration    28          0.778              1.440              0.912
 Vibration    29          0.810              1.359              0.793
 Vibration    30          0.821              1.330              0.755
 Vibration    31          0.842              1.281              0.694
 Vibration    32          0.856              1.250              0.658
 Vibration    33          0.874              1.208              0.613
 Vibration    34          0.883              1.189              0.592
 Vibration    35          0.917              1.115              0.521
 Vibration    36          0.935              1.079              0.489
 Vibration    37          0.941              1.065              0.477

 Optimization completed.
    -- Stationary point found.
 Normal termination of Gaussian 16 at Tue Mar  1 19:15:09 2022.

 ------------------------------------------
 #p b3lyp/6-31G(d) geom=allcheck guess=read
 ------------------------------------------

 Structure from the checkpoint file:  "142.n.pdb.xyz.mst.wat.chk"
 -------------
 142.n.pdb.xyz
 -------------
 Charge =  0 Multiplicity = 1

 SCF Done:  E(RB3LYP) =  -1294.74678335     A.U. after   11 cycles
 Normal termination of Gaussian 16 at Tue Mar  1 19:19:11 2022.
 Gaussian 16:  ES64L-G16RevA.03 25-Dec-2016

 ----------------------------------------------------------------------
 #p b3lyp/6-31G(d) scrf=(iefpcm,read,solvent=water) geom=allcheck guess
 =read
 ----------------------------------------------------------------------

 Structure from the checkpoint file:  "142.n.pdb.xyz.mst.wat.chk"
 -------------
 142.n.pdb.xyz
 -------------
 Charge =  0 Multiplicity = 1

                         Standard orientation:
 ---------------------------------------------------------------------
 Center     Atomic      Atomic             Coordinates (Angstroms)
 Number     Number       Type             X           Y           Z
 ---------------------------------------------------------------------
      1          9           0       -7.494141   -0.908993    1.399913
      2          6           0       -7.005870   -0.895168    0.136608
      3          9           0       -8.049353   -0.625144   -0.677777
      4          9           0       -6.593486   -2.150251   -0.138990
      5          6           0       -5.906524    0.119258   -0.016476
      6          6           0       -4.586231   -0.293077   -0.020998
      7          6           0       -3.567405    0.690053   -0.117298
      8          7           0       -3.878280    1.998519   -0.235837
      9          6           0       -5.166404    2.361218   -0.231245
     10          6           0       -6.231094    1.476624   -0.119967
     11          7           0       -2.226368    0.365469   -0.064345
     12          6           0       -1.230211    1.349927   -0.502547
     13          6           0        0.118200    1.093045    0.159058
     14          7           0        0.575974   -0.272412   -0.101470
     15          6           0        1.913239   -0.527037    0.443637
     16          6           0        3.028222    0.183841   -0.326101
     17          6           0        4.416436   -0.164904    0.218761
     18          6           0        5.530018    0.563068   -0.543400
     19          7           0        6.866263    0.252121   -0.065930
     20          6           0        7.374948    0.696894    1.230957
     21          6           0        8.881216    0.380888    1.146174
     22          6           0        8.958666   -0.766689    0.128212
     23          6           0        7.703168   -0.596742   -0.719842
     24          8           0        7.467422   -1.141465   -1.801771
     25          6           0       -0.402799   -1.203854    0.456351
     26          6           0       -1.774269   -1.021051   -0.188982
     27          1           0       -4.359966   -1.346649    0.037333
     28          1           0       -5.354839    3.427482   -0.329772
     29          1           0       -7.256612    1.821487   -0.130581
     30          1           0       -1.592669    2.341914   -0.244629
     31          1           0       -1.114590    1.304054   -1.596007
     32          1           0        0.038333    1.281927    1.246171
     33          1           0        0.841853    1.803019   -0.247017
     34          1           0        2.080444   -1.608795    0.392357
     35          1           0        1.964981   -0.249607    1.513424
     36          1           0        2.960952   -0.095761   -1.384287
     37          1           0        2.886461    1.270074   -0.278096
     38          1           0        4.468285    0.094272    1.282899
     39          1           0        4.586399   -1.246159    0.147507
     40          1           0        5.380242    1.647176   -0.479332
     41          1           0        5.509923    0.280770   -1.598669
     42          1           0        6.888288    0.148761    2.047609
     43          1           0        7.170017    1.761842    1.373691
     44          1           0        9.300820    0.125972    2.120683
     45          1           0        9.417704    1.254174    0.765270
     46          1           0        8.909031   -1.749900    0.610795
     47          1           0        9.852516   -0.753651   -0.498501
     48          1           0       -0.063511   -2.227450    0.272213
     49          1           0       -0.501538   -1.075642    1.550462
     50          1           0       -2.473873   -1.685855    0.315794
     51          1           0       -1.728176   -1.315893   -1.247808
 ---------------------------------------------------------------------

 SCF Done:  E(RB3LYP) =  -1294.75551935     A.U. after   11 cycles

 The electronic state is 1-A.
 Alpha  occ. eigenvalues --  -24.73355 -24.73075 -24.72751 -19.11171 -14.36035
 Alpha  occ. eigenvalues --  -14.35983 -14.33182 -14.32742 -10.43928 -10.28076
 Alpha  occ. eigenvalues --  -10.26983 -10.22964 -10.22652 -10.21998 -10.21976
 Alpha  occ. eigenvalues --  -10.21573 -10.21253 -10.20925 -10.20676 -10.20525
 Alpha  occ. eigenvalues --  -10.20399 -10.19643 -10.18954 -10.18873 -10.18340
 Alpha  occ. eigenvalues --  -10.18088  -1.30855  -1.22287  -1.21826  -1.02795
 Alpha  occ. eigenvalues --   -0.98070  -0.94222  -0.93675  -0.90639  -0.83272
 Alpha  occ. eigenvalues --   -0.81102  -0.78292  -0.77111  -0.76540  -0.72420
 Alpha  occ. eigenvalues --   -0.71663  -0.71235  -0.68874  -0.65912  -0.64234
 Alpha  occ. eigenvalues --   -0.63027  -0.62038  -0.60575  -0.58771  -0.58668
 Alpha  occ. eigenvalues --   -0.58328  -0.57937  -0.55140  -0.53046  -0.51075
 Alpha  occ. eigenvalues --   -0.50555  -0.50311  -0.48832  -0.48373  -0.47921
 Alpha  occ. eigenvalues --   -0.47036  -0.46468  -0.46286  -0.45903  -0.45730
 Alpha  occ. eigenvalues --   -0.45127  -0.44861  -0.43990  -0.43723  -0.42782
 Alpha  occ. eigenvalues --   -0.42226  -0.41898  -0.41459  -0.40786  -0.40483
 Alpha  occ. eigenvalues --   -0.40155  -0.39435  -0.39027  -0.38545  -0.38243
 Alpha  occ. eigenvalues --   -0.38060  -0.37347  -0.36276  -0.35874  -0.35685
 Alpha  occ. eigenvalues --   -0.35180  -0.34800  -0.33706  -0.33458  -0.32762
 Alpha  occ. eigenvalues --   -0.32390  -0.30583  -0.29081  -0.26672  -0.25060
 Alpha  occ. eigenvalues --   -0.23785  -0.22355  -0.21037
 Alpha virt. eigenvalues --   -0.03813  -0.00404   0.03011   0.08794   0.09123
 Alpha virt. eigenvalues --    0.10016   0.10956   0.11127   0.11457   0.11969
 Alpha virt. eigenvalues --    0.12632   0.12883   0.13323   0.13792   0.13927

 Mulliken charges:
               1
     1  F   -0.268779
     2  C    0.794386
     3  F   -0.272910
     4  F   -0.271075
     5  C    0.012238
     6  C   -0.241627
     7  C    0.544741
     8  N   -0.547129
     9  C    0.037814
    10  C   -0.207562
    11  N   -0.502414
    12  C   -0.133064
    13  C   -0.139324
    14  N   -0.433617
    15  C   -0.109256
    16  C   -0.275148
    17  C   -0.269591
    18  C   -0.145708
    19  N   -0.414506
    20  C   -0.123595
    21  C   -0.299222
    22  C   -0.372992
    23  C    0.590830
    24  O   -0.607809
    25  C   -0.127285
    26  C   -0.141171
    27  H    0.174046
    28  H    0.161399
    29  H    0.166719
    30  H    0.180219
    31  H    0.147315
    32  H    0.124002
    33  H    0.161094
    34  H    0.145816
    35  H    0.119855
    36  H    0.144400
    37  H    0.148489
    38  H    0.148744
    39  H    0.147991
    40  H    0.156823
    41  H    0.166047
    42  H    0.163217
    43  H    0.165624
    44  H    0.162442
    45  H    0.166597
    46  H    0.181711
    47  H    0.174662
    48  H    0.158968
    49  H    0.125970
    50  H    0.176352
    51  H    0.155274
 Sum of Mulliken charges =  -0.00000

 Dipole moment (field-independent basis, Debye):
    X=              2.8211    Y=              1.9790    Z=              4.8203  Tot=              5.9254
 Quadrupole moment (field-independent basis, Debye-Ang):
   XX=           -166.9824   YY=           -149.1252   ZZ=           -160.1078
   XY=             13.1273   XZ=             36.8077   YZ=             -5.3053

 Normal termination of Gaussian 16 at Tue Mar  1 19:24:41 2022.
