 Gaussian 16, Revision A.03,

 ----------------------------------------------------------------------
 #p b3lyp/6-31G(d) opt=(MaxStep=10,MaxCycles=1000) freq scf=(MaxCycle=2
 000,NoVarAcc,NoIncFock) scrf=(iefpcm,read,solvent=water)
 ----------------------------------------------------------------------

 -------------
 143.n.pdb.xyz
 -------------
 Symbolic Z-matrix:
 Charge =  0 Multiplicity = 1

 SCF Done:  E(RB3LYP) =  -1433.02557622     A.U. after   13 cycles
 SCF Done:  E(RB3LYP) =  -1433.02930882     A.U. after   11 cycles
 SCF Done:  E(RB3LYP) =  -1433.03143412     A.U. after   11 cycles
 SCF Done:  E(RB3LYP) =  -1433.03205120     A.U. after   10 cycles
 SCF Done:  E(RB3LYP) =  -1433.03233952     A.U. after   11 cycles
 SCF Done:  E(RB3LYP) =  -1433.03324641     A.U. after   10 cycles
 SCF Done:  E(RB3LYP) =  -1433.03337104     A.U. after    9 cycles
 SCF Done:  E(RB3LYP) =  -1433.03341312     A.U. after    9 cycles
 SCF Done:  E(RB3LYP) =  -1433.03341613     A.U. after    8 cycles
 SCF Done:  E(RB3LYP) =  -1433.03341675     A.U. after    7 cycles
 SCF Done:  E(RB3LYP) =  -1433.03341718     A.U. after    7 cycles
 SCF Done:  E(RB3LYP) =  -1433.03341756     A.U. after    7 cycles
 Optimization completed.
    -- Stationary point found.
 Normal termination of Gaussian 16 at Tue Mar  1 17:26:07 2022.

 --------------------------------------------------------------------
 #P Geom=AllCheck Guess=TCheck SCRF=Check GenChk RB3LYP/6-31G(d) Freq
 --------------------------------------------------------------------

 Structure from the checkpoint file:  "143.n.pdb.xyz.mst.wat.chk"
 -------------
 143.n.pdb.xyz
 -------------
 Charge =  0 Multiplicity = 1

 SCF Done:  E(RB3LYP) =  -1433.03341756     A.U. after    1 cycles

  Exact polarizability: 267.915  -7.934 206.318   1.433   1.319  77.921
 Approx polarizability: 274.116 -10.597 243.538   2.895  -0.083  91.676

                      1                      2                      3
                      A                      A                      A
 Frequencies --     39.0292                46.0849                99.6655
 Red. masses --      5.0735                 4.4776                 6.9970
 Frc consts  --      0.0046                 0.0056                 0.0409
 IR Inten    --      1.1688                12.0681                 5.7670

                      4                      5                      6
                      A                      A                      A
 Frequencies --    121.4734               173.6291               178.7561
 Red. masses --      6.0457                 6.1702                 6.9479
 Frc consts  --      0.0526                 0.1096                 0.1308
 IR Inten    --      2.3064                 0.3944                 4.2240

                      7                      8                      9
                      A                      A                      A
 Frequencies --    185.9435               237.2923               257.2154
 Red. masses --      2.4091                 8.2589                 4.0840
 Frc consts  --      0.0491                 0.2740                 0.1592
 IR Inten    --      6.3151                 0.7459                 3.1817

                     10                     11                     12
                      A                      A                      A
 Frequencies --    289.4982               349.7132               392.1128
 Red. masses --      7.9260                 7.4148                 8.4124
 Frc consts  --      0.3914                 0.5343                 0.7621
 IR Inten    --      2.0060                 1.1744                10.8115

                     13                     14                     15
                      A                      A                      A
 Frequencies --    425.6902               442.6020               451.3840
 Red. masses --      1.1075                 6.5776                 3.6621
 Frc consts  --      0.1182                 0.7592                 0.4396
 IR Inten    --    131.1555                24.9964                 6.5395

                     16                     17                     18
                      A                      A                      A
 Frequencies --    494.3507               560.0116               591.6863
 Red. masses --      6.9905                 4.1179                 1.6372
 Frc consts  --      1.0065                 0.7609                 0.3377
 IR Inten    --     22.6196                 1.9954               248.5586

                     19                     20                     21
                      A                      A                      A
 Frequencies --    666.1998               689.8544               707.4846
 Red. masses --      6.9766                 4.1654                 4.9767
 Frc consts  --      1.8243                 1.1679                 1.4677
 IR Inten    --     15.5184                 9.6156                 1.9690

                     22                     23                     24
                      A                      A                      A
 Frequencies --    751.1311               756.9949               800.2399
 Red. masses --      3.0388                 7.7478                 3.5418
 Frc consts  --      1.0101                 2.6159                 1.3363
 IR Inten    --     72.2717               106.2949                38.8040

                     25                     26                     27
                      A                      A                      A
 Frequencies --    845.9444               867.9054               876.9433
 Red. masses --      1.3873                 3.7556                 1.3426
 Frc consts  --      0.5850                 1.6667                 0.6083
 IR Inten    --     42.0876                34.0842                21.4755

                     28                     29                     30
                      A                      A                      A
 Frequencies --    892.8495               940.8875               976.3346
 Red. masses --      2.1229                 3.3324                 1.2749
 Frc consts  --      0.9971                 1.7381                 0.7160
 IR Inten    --      7.7359                16.7575                 1.3536

                     31                     32                     33
                      A                      A                      A
 Frequencies --   1005.0803              1054.0871              1065.7824
 Red. masses --      3.1208                 4.4289                 2.7868
 Frc consts  --      1.8575                 2.8994                 1.8651
 IR Inten    --     26.3357                88.7346                14.9785

                     34                     35                     36
                      A                      A                      A
 Frequencies --   1097.5794              1115.0797              1122.7048
 Red. masses --      3.7012                 2.7337                 1.7178
 Frc consts  --      2.6271                 2.0027                 1.2757
 IR Inten    --     77.3695                10.2475                20.4923

                     37                     38                     39
                      A                      A                      A
 Frequencies --   1165.0035              1215.3311              1248.0393
 Red. masses --      1.3271                 1.1490                 1.2144
 Frc consts  --      1.0612                 0.9999                 1.1145
 IR Inten    --      8.3816                24.6688                16.7488

                     40                     41                     42
                      A                      A                      A
 Frequencies --   1265.2885              1278.1924              1314.3574
 Red. masses --      1.8030                 1.7235                 2.9525
 Frc consts  --      1.7007                 1.6590                 3.0052
 IR Inten    --      9.8029                35.1582                49.8563

                     43                     44                     45
                      A                      A                      A
 Frequencies --   1333.4350              1353.6873              1365.3783
 Red. masses --      1.4612                 1.8388                 2.0830
 Frc consts  --      1.5308                 1.9853                 2.2880
 IR Inten    --     37.9957                 0.3962               386.9587

                     46                     47                     48
                      A                      A                      A
 Frequencies --   1433.1860              1477.9550              1508.9627
 Red. masses --      3.8635                 1.6279                 2.5147
 Frc consts  --      4.6756                 2.0951                 3.3737
 IR Inten    --     92.5655               187.8116                77.8986

                     49                     50                     51
                      A                      A                      A
 Frequencies --   1524.1027              1543.1348              1579.7745
 Red. masses --      1.1249                 1.1381                 3.1568
 Frc consts  --      1.5395                 1.5967                 4.6418
 IR Inten    --     45.6903                77.4430               940.4318

                     52                     53                     54
                      A                      A                      A
 Frequencies --   1632.7190              1644.3724              1690.3143
 Red. masses --      3.4536                 6.0367                 4.7364
 Frc consts  --      5.4244                 9.6173                 7.9732
 IR Inten    --    233.7626               368.4768               347.7858

                     55                     56                     57
                      A                      A                      A
 Frequencies --   3034.7999              3044.3532              3104.4177
 Red. masses --      1.0723                 1.0692                 1.0935
 Frc consts  --      5.8188                 5.8384                 6.2088
 IR Inten    --    107.4697                93.5508                82.9079

                     58                     59                     60
                      A                      A                      A
 Frequencies --   3128.0307              3240.4012              3253.4942
 Red. masses --      1.0976                 1.0912                 1.0926
 Frc consts  --      6.3274                 6.7508                 6.8143
 IR Inten    --     72.7702                 6.1912                 0.0236

                     61                     62                     63
                      A                      A                      A
 Frequencies --   3262.7280              3557.5914              3603.9579
 Red. masses --      1.0925                 1.0774                 1.0768
 Frc consts  --      6.8523                 8.0343                 8.2400
 IR Inten    --     32.7716                56.5429               156.5967

 - Thermochemistry -
 -------------------
 Temperature   298.150 Kelvin.  Pressure   1.00000 Atm.
 Atom     1 has atomic number 17 and mass  34.96885

 Molecular mass:   229.01735 amu.
 Principal axes and moments of inertia in atomic units:
                           1         2         3
     Eigenvalues --  1808.707466650.650198426.02460
           X            0.99992   0.01236  -0.00195
           Y           -0.01236   0.99992   0.00153
           Z            0.00197  -0.00151   1.00000
 This molecule is an asymmetric top.
 Rotational symmetry number  1.
 Warning -- assumption of classical behavior for rotation
           may cause significant error
 Rotational temperatures (Kelvin)      0.04789     0.01302     0.01028
 Rotational constants (GHZ):           0.99781     0.27136     0.21419
 Zero-point vibrational energy     456807.4 (Joules/Mol)
                                  109.17958 (Kcal/Mol)
 Warning -- explicit consideration of  18 degrees of freedom as
           vibrations may cause significant error
 Vibrational temperatures:     56.15    66.31   143.40   174.77   249.81
          (Kelvin)            257.19   267.53   341.41   370.08   416.52
                              503.16   564.16   612.47   636.81   649.44
                              711.26   805.73   851.30   958.51   992.55
                             1017.91  1080.71  1089.15  1151.37  1217.13
                             1248.72  1261.73  1284.61  1353.73  1404.73
                             1446.09  1516.60  1533.42  1579.17  1604.35
                             1615.32  1676.18  1748.59  1795.65  1820.47
                             1839.03  1891.07  1918.52  1947.65  1964.47
                             2062.03  2126.45  2171.06  2192.84  2220.23
                             2272.94  2349.12  2365.89  2431.99  4366.40
                             4380.15  4466.56  4500.54  4662.21  4681.05
                             4694.34  5118.58  5185.29

 Zero-point correction=                           0.173989 (Hartree/Particle)
 Thermal correction to Energy=                    0.186480
 Thermal correction to Enthalpy=                  0.187424
 Thermal correction to Gibbs Free Energy=         0.133459
 Sum of electronic and zero-point Energies=          -1432.859429
 Sum of electronic and thermal Energies=             -1432.846937
 Sum of electronic and thermal Enthalpies=           -1432.845993
 Sum of electronic and thermal Free Energies=        -1432.899958

                     E (Thermal)             CV                S
                      KCal/Mol        Cal/Mol-Kelvin    Cal/Mol-Kelvin
 Total                  117.018             46.782            113.579
 Electronic               0.000              0.000              0.000
 Translational            0.889              2.981             42.188
 Rotational               0.889              2.981             32.983
 Vibrational            115.241             40.820             38.408
 Vibration     1          0.594              1.981              5.308
 Vibration     2          0.595              1.979              4.979
 Vibration     3          0.604              1.949              3.461
 Vibration     4          0.609              1.931              3.077
 Vibration     5          0.627              1.875              2.396
 Vibration     6          0.629              1.868              2.341
 Vibration     7          0.632              1.859              2.268
 Vibration     8          0.656              1.784              1.823
 Vibration     9          0.667              1.751              1.681
 Vibration    10          0.686              1.693              1.477
 Vibration    11          0.727              1.576              1.167
 Vibration    12          0.760              1.487              0.992
 Vibration    13          0.788              1.414              0.873
 Vibration    14          0.802              1.377              0.818
 Vibration    15          0.810              1.358              0.792
 Vibration    16          0.850              1.263              0.672
 Vibration    17          0.916              1.118              0.524
 Vibration    18          0.949              1.049              0.464

 Optimization completed.
    -- Stationary point found.
 Normal termination of Gaussian 16 at Tue Mar  1 17:39:55 2022.

 ------------------------------------------
 #p b3lyp/6-31G(d) geom=allcheck guess=read
 ------------------------------------------

 Structure from the checkpoint file:  "143.n.pdb.xyz.mst.wat.chk"
 -------------
 143.n.pdb.xyz
 -------------
 Charge =  0 Multiplicity = 1

 SCF Done:  E(RB3LYP) =  -1433.01849440     A.U. after   12 cycles
 Normal termination of Gaussian 16 at Tue Mar  1 17:41:14 2022.
 Gaussian 16:  ES64L-G16RevA.03 25-Dec-2016

 ----------------------------------------------------------------------
 #p b3lyp/6-31G(d) scrf=(iefpcm,read,solvent=water) geom=allcheck guess
 =read
 ----------------------------------------------------------------------

 Structure from the checkpoint file:  "143.n.pdb.xyz.mst.wat.chk"
 -------------
 143.n.pdb.xyz
 -------------
 Charge =  0 Multiplicity = 1

                         Standard orientation:
 ---------------------------------------------------------------------
 Center     Atomic      Atomic             Coordinates (Angstroms)
 Number     Number       Type             X           Y           Z
 ---------------------------------------------------------------------
      1         17           0        4.406779   -1.198400    0.036369
      2          6           0        2.726308   -0.675610    0.008136
      3          6           0        2.436429    0.685239    0.014572
      4          6           0        1.105745    1.085609   -0.006910
      5         17           0        0.767691    2.814772    0.009824
      6          6           0        0.040592    0.160686   -0.039130
      7          7           0       -1.269085    0.622891   -0.067251
      8          6           0       -2.440572   -0.103112   -0.055764
      9          7           0       -2.556267   -1.389684    0.007450
     10          6           0       -4.006547   -1.657090   -0.050686
     11          6           0       -4.691104   -0.297715    0.220169
     12          7           0       -3.620420    0.633966   -0.168986
     13          6           0        0.379291   -1.204709   -0.042939
     14          6           0        1.705824   -1.619903   -0.019137
     15          1           0        3.225136    1.425509    0.037306
     16          1           0       -1.389659    1.626863   -0.123827
     17          1           0       -4.293842   -2.421531    0.676245
     18          1           0       -4.270282   -2.037822   -1.046432
     19          1           0       -5.591785   -0.141942   -0.376846
     20          1           0       -4.949530   -0.181102    1.280174
     21          1           0       -3.624640    1.541549    0.288292
     22          1           0       -0.427333   -1.923372   -0.064946
     23          1           0        1.940559   -2.677045   -0.023593
 ---------------------------------------------------------------------

 SCF Done:  E(RB3LYP) =  -1433.03199803     A.U. after   11 cycles

 The electronic state is 1-A.
 Alpha  occ. eigenvalues -- -101.56425-101.55576 -14.38010 -14.34504 -14.29971
 Alpha  occ. eigenvalues --  -10.28762 -10.26314 -10.25827 -10.25559 -10.21601
 Alpha  occ. eigenvalues --  -10.21405 -10.20779 -10.20661 -10.19904  -9.48043
 Alpha  occ. eigenvalues --   -9.47196  -7.24426  -7.23585  -7.23464  -7.23460
 Alpha  occ. eigenvalues --   -7.22625  -7.22601  -1.00651  -0.94414  -0.89913
 Alpha  occ. eigenvalues --   -0.87542  -0.85398  -0.82754  -0.75884  -0.75122
 Alpha  occ. eigenvalues --   -0.71651  -0.64065  -0.62617  -0.60803  -0.57731
 Alpha  occ. eigenvalues --   -0.55038  -0.53886  -0.49473  -0.48215  -0.47620
 Alpha  occ. eigenvalues --   -0.45718  -0.44093  -0.43563  -0.42989  -0.41270
 Alpha  occ. eigenvalues --   -0.39797  -0.39054  -0.38514  -0.37753  -0.36882
 Alpha  occ. eigenvalues --   -0.36526  -0.33173  -0.33010  -0.31999  -0.29465
 Alpha  occ. eigenvalues --   -0.26839  -0.26147  -0.22851  -0.21265
 Alpha virt. eigenvalues --   -0.02068  -0.01612   0.00414   0.04645   0.06010
 Alpha virt. eigenvalues --    0.09044   0.11160   0.13310   0.14109   0.14773
 Alpha virt. eigenvalues --    0.15312   0.16430   0.17126   0.17689   0.18877

 Mulliken charges:
               1
     1  Cl  -0.041823
     2  C   -0.072751
     3  C   -0.144224
     4  C   -0.152667
     5  Cl  -0.016458
     6  C    0.384726
     7  N   -0.794581
     8  C    0.724786
     9  N   -0.570977
    10  C   -0.149857
    11  C   -0.146346
    12  N   -0.649156
    13  C   -0.163582
    14  C   -0.152930
    15  H    0.189664
    16  H    0.391510
    17  H    0.153365
    18  H    0.151215
    19  H    0.161973
    20  H    0.158236
    21  H    0.375782
    22  H    0.188048
    23  H    0.176047
 Sum of Mulliken charges =  -0.00000

 Dipole moment (field-independent basis, Debye):
    X=             -4.7698    Y=              2.9920    Z=              1.0203  Tot=              5.7223
 Quadrupole moment (field-independent basis, Debye-Ang):
   XX=            -84.3631   YY=            -91.7532   ZZ=            -97.3246
   XY=             -4.4407   XZ=             -4.4304   YZ=              1.3623

 Normal termination of Gaussian 16 at Tue Mar  1 17:42:42 2022.
