 Gaussian 16, Revision A.03,

 ----------------------------------------------------------------------
 #p b3lyp/6-31G(d) opt=(MaxStep=10,MaxCycles=1000) freq scf=(MaxCycle=2
 000,NoVarAcc,NoIncFock) scrf=(iefpcm,read,solvent=water)
 ----------------------------------------------------------------------

 -------------
 144.n.pdb.xyz
 -------------
 Symbolic Z-matrix:
 Charge =  0 Multiplicity = 1

 SCF Done:  E(RB3LYP) =  -350.201828789     A.U. after   12 cycles
 SCF Done:  E(RB3LYP) =  -350.203222248     A.U. after    9 cycles
 SCF Done:  E(RB3LYP) =  -350.203280855     A.U. after    9 cycles
 SCF Done:  E(RB3LYP) =  -350.203284515     A.U. after    8 cycles
 SCF Done:  E(RB3LYP) =  -350.203285437     A.U. after    7 cycles
 SCF Done:  E(RB3LYP) =  -350.203286950     A.U. after    7 cycles
 SCF Done:  E(RB3LYP) =  -350.203288143     A.U. after    7 cycles
 SCF Done:  E(RB3LYP) =  -350.203289142     A.U. after    7 cycles
 SCF Done:  E(RB3LYP) =  -350.203289521     A.U. after    7 cycles
 SCF Done:  E(RB3LYP) =  -350.203288528     A.U. after    8 cycles
 SCF Done:  E(RB3LYP) =  -350.203254462     A.U. after    9 cycles
 SCF Done:  E(RB3LYP) =  -350.203292275     A.U. after   10 cycles
 SCF Done:  E(RB3LYP) =  -350.203251259     A.U. after   10 cycles
 SCF Done:  E(RB3LYP) =  -350.203292087     A.U. after   10 cycles
 SCF Done:  E(RB3LYP) =  -350.203292326     A.U. after    7 cycles
 SCF Done:  E(RB3LYP) =  -350.203292326     A.U. after    6 cycles
 SCF Done:  E(RB3LYP) =  -350.203292327     A.U. after    5 cycles
 Optimization completed.
    -- Stationary point found.
 Normal termination of Gaussian 16 at Tue Mar  1 20:31:04 2022.

 --------------------------------------------------------------------
 #P Geom=AllCheck Guess=TCheck SCRF=Check GenChk RB3LYP/6-31G(d) Freq
 --------------------------------------------------------------------

 Structure from the checkpoint file:  "144.n.pdb.xyz.mst.wat.chk"
 -------------
 144.n.pdb.xyz
 -------------
 Charge =  0 Multiplicity = 1

 SCF Done:  E(RB3LYP) =  -350.203292327     A.U. after    1 cycles

  Exact polarizability: 164.698  -0.590 142.636   0.461   0.120  64.657
 Approx polarizability: 176.590  -0.760 161.380   0.383   0.135  72.900

                      1                      2                      3
                      A                      A                      A
 Frequencies --     18.6649                73.8196               136.1307
 Red. masses --      1.0262                 1.0232                 2.5826
 Frc consts  --      0.0002                 0.0033                 0.0282
 IR Inten    --      0.3873                 0.3753                 1.1184

                      4                      5                      6
                      A                      A                      A
 Frequencies --    145.7860               205.6392               263.7799
 Red. masses --      1.1020                 2.7294                 2.4340
 Frc consts  --      0.0138                 0.0680                 0.0998
 IR Inten    --      0.4119                 3.2597                 0.5338

                      7                      8                      9
                      A                      A                      A
 Frequencies --    275.8293               319.8083               431.7462
 Red. masses --      2.4589                 3.2246                 2.8729
 Frc consts  --      0.1102                 0.1943                 0.3155
 IR Inten    --      0.8980                 0.3494                 0.1534

                     10                     11                     12
                      A                      A                      A
 Frequencies --    451.0178               469.1135               558.0177
 Red. masses --      2.8726                 3.8191                 3.3774
 Frc consts  --      0.3443                 0.4952                 0.6196
 IR Inten    --      4.4073                 0.3434                 2.3397

                     13                     14                     15
                      A                      A                      A
 Frequencies --    560.4517               722.3279               724.3721
 Red. masses --      3.9132                 3.3018                 4.3638
 Frc consts  --      0.7242                 1.0150                 1.3491
 IR Inten    --      1.2088                 0.3271                 0.0667

                     16                     17                     18
                      A                      A                      A
 Frequencies --    759.6940               833.8557               904.9840
 Red. masses --      4.1920                 1.2421                 1.2769
 Frc consts  --      1.4254                 0.5088                 0.6162
 IR Inten    --      0.1513                30.5437                 3.1590

                     19                     20                     21
                      A                      A                      A
 Frequencies --    939.3265               959.6737              1003.4489
 Red. masses --      2.7346                 1.2785                 1.6666
 Frc consts  --      1.4216                 0.6937                 0.9887
 IR Inten    --      0.4420                 0.1365                 0.4812

                     22                     23                     24
                      A                      A                      A
 Frequencies --   1015.5550              1046.1121              1051.1861
 Red. masses --      1.4913                 1.4628                 1.4383
 Frc consts  --      0.9062                 0.9432                 0.9364
 IR Inten    --     22.3516                 2.7274                10.0410

                     25                     26                     27
                      A                      A                      A
 Frequencies --   1071.9808              1081.3739              1149.2294
 Red. masses --      1.5190                 1.5969                 1.7270
 Frc consts  --      1.0284                 1.1002                 1.3439
 IR Inten    --     15.1969                 0.4347                 5.3596

                     28                     29                     30
                      A                      A                      A
 Frequencies --   1174.8837              1237.3731              1277.8309
 Red. masses --      1.7073                 1.9635                 3.8336
 Frc consts  --      1.3885                 1.7712                 3.6881
 IR Inten    --      2.6553                 4.0697                 1.5924

                     31                     32                     33
                      A                      A                      A
 Frequencies --   1316.0167              1345.4547              1425.4337
 Red. masses --      1.3999                 6.8551                 1.2988
 Frc consts  --      1.4284                 7.3114                 1.5548
 IR Inten    --      0.6052                 0.1135                 0.7776

                     34                     35                     36
                      A                      A                      A
 Frequencies --   1430.2989              1434.4124              1447.0533
 Red. masses --      1.2922                 1.2646                 2.4185
 Frc consts  --      1.5575                 1.5330                 2.9837
 IR Inten    --      0.7418                 0.1188                 0.5454

                     37                     38                     39
                      A                      A                      A
 Frequencies --   1493.7411              1497.6914              1500.8266
 Red. masses --      1.0457                 1.0584                 1.0663
 Frc consts  --      1.3747                 1.3988                 1.4151
 IR Inten    --      5.2240                 8.4764                 2.3517

                     40                     41                     42
                      A                      A                      A
 Frequencies --   1503.5369              1507.2789              1516.0777
 Red. masses --      1.0508                 1.1073                 1.1839
 Frc consts  --      1.3996                 1.4822                 1.6032
 IR Inten    --     10.4657                 0.8304                31.1173

                     43                     44                     45
                      A                      A                      A
 Frequencies --   1546.0891              1629.4146              1670.7372
 Red. masses --      2.7085                 5.5536                 6.1290
 Frc consts  --      3.8146                 8.6874                10.0798
 IR Inten    --     40.0512                 4.1880                 8.0998

                     46                     47                     48
                      A                      A                      A
 Frequencies --   3045.5095              3049.7588              3054.1335
 Red. masses --      1.0385                 1.0385                 1.0394
 Frc consts  --      5.6750                 5.6909                 5.7123
 IR Inten    --     67.1976                48.7768                47.3997

                     49                     50                     51
                      A                      A                      A
 Frequencies --   3092.1362              3098.2266              3108.8137
 Red. masses --      1.1006                 1.1005                 1.0979
 Frc consts  --      6.1999                 6.2237                 6.2520
 IR Inten    --     55.2112                13.9712                34.9135

                     52                     53                     54
                      A                      A                      A
 Frequencies --   3135.3689              3136.9915              3140.1105
 Red. masses --      1.1005                 1.1024                 1.1005
 Frc consts  --      6.3739                 6.3920                 6.3931
 IR Inten    --     42.0444                36.3161                31.3776

                     55                     56                     57
                      A                      A                      A
 Frequencies --   3178.7198              3181.2682              3198.6584
 Red. masses --      1.0896                 1.0870                 1.0941
 Frc consts  --      6.4867                 6.4813                 6.5955
 IR Inten    --     56.7221                18.3144                46.9531

 - Thermochemistry -
 -------------------
 Temperature   298.150 Kelvin.  Pressure   1.00000 Atm.
 Atom     1 has atomic number  6 and mass  12.00000

 Molecular mass:   120.09390 amu.
 Principal axes and moments of inertia in atomic units:
                           1         2         3
     Eigenvalues --   614.216671410.036061990.86009
           X            1.00000   0.00179   0.00022
           Y           -0.00179   1.00000   0.00003
           Z           -0.00022  -0.00003   1.00000
 This molecule is an asymmetric top.
 Rotational symmetry number  1.
 Warning -- assumption of classical behavior for rotation
           may cause significant error
 Rotational temperatures (Kelvin)      0.14102     0.06143     0.04351
 Rotational constants (GHZ):           2.93828     1.27993     0.90651
 Zero-point vibrational energy     481776.7 (Joules/Mol)
                                  115.14739 (Kcal/Mol)
 Warning -- explicit consideration of  13 degrees of freedom as
           vibrations may cause significant error
 Vibrational temperatures:     26.85   106.21   195.86   209.75   295.87
          (Kelvin)            379.52   396.86   460.13   621.19   648.91
                              674.95   802.86   806.36  1039.27  1042.21
                             1093.03  1199.73  1302.07  1351.48  1380.76
                             1443.74  1461.16  1505.12  1512.42  1542.34
                             1555.86  1653.48  1690.40  1780.30  1838.51
                             1893.45  1935.81  2050.88  2057.88  2063.80
                             2081.99  2149.16  2154.84  2159.35  2163.25
                             2168.64  2181.30  2224.48  2344.36  2403.82
                             4381.81  4387.92  4394.22  4448.89  4457.66
                             4472.89  4511.10  4513.43  4517.92  4573.47
                             4577.14  4602.16

 Zero-point correction=                           0.183499 (Hartree/Particle)
 Thermal correction to Energy=                    0.193210
 Thermal correction to Enthalpy=                  0.194154
 Thermal correction to Gibbs Free Energy=         0.147679
 Sum of electronic and zero-point Energies=           -350.019793
 Sum of electronic and thermal Energies=              -350.010083
 Sum of electronic and thermal Enthalpies=            -350.009139
 Sum of electronic and thermal Free Energies=         -350.055613

                     E (Thermal)             CV                S
                      KCal/Mol        Cal/Mol-Kelvin    Cal/Mol-Kelvin
 Total                  121.241             35.266             97.814
 Electronic               0.000              0.000              0.000
 Translational            0.889              2.981             40.264
 Rotational               0.889              2.981             28.935
 Vibrational            119.463             29.305             28.615
 Vibration     1          0.593              1.986              6.771
 Vibration     2          0.599              1.966              4.049
 Vibration     3          0.614              1.917              2.858
 Vibration     4          0.617              1.907              2.727
 Vibration     5          0.640              1.832              2.082
 Vibration     6          0.670              1.739              1.637
 Vibration     7          0.677              1.718              1.559
 Vibration     8          0.706              1.636              1.311
 Vibration     9          0.793              1.401              0.853
 Vibration    10          0.810              1.359              0.793
 Vibration    11          0.826              1.319              0.740
 Vibration    12          0.914              1.122              0.528
 Vibration    13          0.916              1.117              0.523

                           ! Non-Optimized Parameters !
 Normal termination of Gaussian 16 at Tue Mar  1 20:38:43 2022.

 ------------------------------------------
 #p b3lyp/6-31G(d) geom=allcheck guess=read
 ------------------------------------------

 Structure from the checkpoint file:  "144.n.pdb.xyz.mst.wat.chk"
 -------------
 144.n.pdb.xyz
 -------------
 Charge =  0 Multiplicity = 1

 SCF Done:  E(RB3LYP) =  -350.201901045     A.U. after   10 cycles
 Normal termination of Gaussian 16 at Tue Mar  1 20:39:26 2022.
 Gaussian 16:  ES64L-G16RevA.03 25-Dec-2016

 ----------------------------------------------------------------------
 #p b3lyp/6-31G(d) scrf=(iefpcm,read,solvent=water) geom=allcheck guess
 =read
 ----------------------------------------------------------------------

 Structure from the checkpoint file:  "144.n.pdb.xyz.mst.wat.chk"
 -------------
 144.n.pdb.xyz
 -------------
 Charge =  0 Multiplicity = 1

                         Standard orientation:
 ---------------------------------------------------------------------
 Center     Atomic      Atomic             Coordinates (Angstroms)
 Number     Number       Type             X           Y           Z
 ---------------------------------------------------------------------
      1          6           0        3.110864    0.364769    0.008628
      2          6           0        1.640623    0.024903   -0.007468
      3          6           0        0.667492    1.034077   -0.006054
      4          6           0       -0.702245    0.755741   -0.000466
      5          6           0       -1.700955    1.885732   -0.001124
      6          6           0       -1.131333   -0.589359    0.002556
      7          6           0       -2.598226   -0.937553    0.005924
      8          6           0       -0.163264   -1.597660   -0.001283
      9          6           0        1.201502   -1.301694   -0.007724
     10          1           0        3.442831    0.656369    1.012220
     11          1           0        3.718565   -0.489923   -0.301087
     12          1           0        3.336567    1.202607   -0.658439
     13          1           0        0.983383    2.074715   -0.010315
     14          1           0       -2.362946    1.840850    0.871287
     15          1           0       -2.348511    1.854216   -0.885376
     16          1           0       -1.192854    2.853005    0.009853
     17          1           0       -3.110388   -0.549009   -0.882509
     18          1           0       -3.114567   -0.511231    0.874146
     19          1           0       -2.740826   -2.020897    0.028047
     20          1           0       -0.486628   -2.635479   -0.002221
     21          1           0        1.928624   -2.108956   -0.013555
 ---------------------------------------------------------------------

 SCF Done:  E(RB3LYP) =  -350.203170802     A.U. after   10 cycles

 The electronic state is 1-A.
 Alpha  occ. eigenvalues --  -10.19165 -10.19158 -10.18981 -10.18226 -10.18048
 Alpha  occ. eigenvalues --  -10.17944 -10.17764 -10.17756 -10.17751  -0.85602
 Alpha  occ. eigenvalues --   -0.78544  -0.75849  -0.71436  -0.68322  -0.64712
 Alpha  occ. eigenvalues --   -0.59199  -0.55604  -0.48045  -0.47272  -0.43901
 Alpha  occ. eigenvalues --   -0.42977  -0.41142  -0.40379  -0.39742  -0.39414
 Alpha  occ. eigenvalues --   -0.38900  -0.38127  -0.36442  -0.33535  -0.32890
 Alpha  occ. eigenvalues --   -0.32702  -0.24138  -0.22800
 Alpha virt. eigenvalues --    0.00454   0.00467   0.10010   0.10991   0.12695
 Alpha virt. eigenvalues --    0.13694   0.14160   0.14457   0.15765   0.16849
 Alpha virt. eigenvalues --    0.18015   0.19521   0.19899   0.22048   0.23926

 Mulliken charges:
               1
     1  C   -0.534221
     2  C    0.170407
     3  C   -0.264951
     4  C    0.124594
     5  C   -0.539477
     6  C    0.116318
     7  C   -0.539011
     8  C   -0.209053
     9  C   -0.209221
    10  H    0.168638
    11  H    0.161892
    12  H    0.163943
    13  H    0.130208
    14  H    0.166290
    15  H    0.166379
    16  H    0.162763
    17  H    0.165659
    18  H    0.165308
    19  H    0.162076
    20  H    0.136490
    21  H    0.134968
 Sum of Mulliken charges =  -0.00000

 Dipole moment (field-independent basis, Debye):
    X=             -0.3485    Y=              0.3706    Z=              0.0336  Tot=              0.5098
 Quadrupole moment (field-independent basis, Debye-Ang):
   XX=            -48.9305   YY=            -50.8465   ZZ=            -57.3840
   XY=              0.0600   XZ=              0.0906   YZ=              0.0107

 Normal termination of Gaussian 16 at Tue Mar  1 20:40:18 2022.
