 Gaussian 16, Revision A.03,

 ----------------------------------------------------------------------
 #p b3lyp/6-31G(d) opt=(MaxStep=10,MaxCycles=1000) freq scf=(MaxCycle=2
 000,NoVarAcc,NoIncFock) scrf=(iefpcm,read,solvent=water)
 ----------------------------------------------------------------------

 -------------
 146.n.pdb.xyz
 -------------
 Symbolic Z-matrix:
 Charge =  0 Multiplicity = 1

 SCF Done:  E(RB3LYP) =  -530.144763168     A.U. after   12 cycles
 SCF Done:  E(RB3LYP) =  -530.146129645     A.U. after   10 cycles
 SCF Done:  E(RB3LYP) =  -530.146280489     A.U. after    9 cycles
 SCF Done:  E(RB3LYP) =  -530.146332720     A.U. after    9 cycles
 SCF Done:  E(RB3LYP) =  -530.146359358     A.U. after    9 cycles
 SCF Done:  E(RB3LYP) =  -530.146383713     A.U. after    9 cycles
 SCF Done:  E(RB3LYP) =  -530.146384216     A.U. after    9 cycles
 SCF Done:  E(RB3LYP) =  -530.146382588     A.U. after    9 cycles
 SCF Done:  E(RB3LYP) =  -530.146380656     A.U. after    9 cycles
 SCF Done:  E(RB3LYP) =  -530.146384624     A.U. after    9 cycles
 SCF Done:  E(RB3LYP) =  -530.146403328     A.U. after   12 cycles
 SCF Done:  E(RB3LYP) =  -530.146403029     A.U. after    7 cycles
 SCF Done:  E(RB3LYP) =  -530.146400229     A.U. after    9 cycles
 SCF Done:  E(RB3LYP) =  -530.146404909     A.U. after    9 cycles
 SCF Done:  E(RB3LYP) =  -530.146407110     A.U. after    9 cycles
 SCF Done:  E(RB3LYP) =  -530.146406972     A.U. after    8 cycles
 SCF Done:  E(RB3LYP) =  -530.146407548     A.U. after    7 cycles
 Optimization completed.
    -- Stationary point found.
 Normal termination of Gaussian 16 at Wed Mar  2 00:10:26 2022.

 --------------------------------------------------------------------
 #P Geom=AllCheck Guess=TCheck SCRF=Check GenChk RB3LYP/6-31G(d) Freq
 --------------------------------------------------------------------

 Structure from the checkpoint file:  "146.n.pdb.xyz.mst.wat.chk"
 -------------
 146.n.pdb.xyz
 -------------
 Charge =  0 Multiplicity = 1

 SCF Done:  E(RB3LYP) =  -530.146407548     A.U. after    1 cycles

  Exact polarizability:  78.910  11.094  56.060  -2.649   2.196  39.265
 Approx polarizability:  82.174  12.793  63.005  -2.527   2.545  45.249

                      1                      2                      3
                      A                      A                      A
 Frequencies --     38.4013                63.7285                98.2989
 Red. masses --      4.6980                 2.1010                 5.1046
 Frc consts  --      0.0041                 0.0050                 0.0291
 IR Inten    --      1.6753                 4.1083                 3.9092

                      4                      5                      6
                      A                      A                      A
 Frequencies --    152.4420               297.3203               346.1547
 Red. masses --      5.3366                 4.6859                 8.0062
 Frc consts  --      0.0731                 0.2441                 0.5652
 IR Inten    --      4.2293                 0.7837                 1.2880

                      7                      8                      9
                      A                      A                      A
 Frequencies --    355.1623               495.9857               525.1060
 Red. masses --      3.3304                 4.9054                 7.8759
 Frc consts  --      0.2475                 0.7110                 1.2795
 IR Inten    --      1.0401                 4.4484                 3.9279

                     10                     11                     12
                      A                      A                      A
 Frequencies --    578.1357               656.2093               710.7568
 Red. masses --      4.4932                 8.0937                 1.4676
 Frc consts  --      0.8848                 2.0534                 0.4368
 IR Inten    --      9.2185                36.3137                 3.1124

                     13                     14                     15
                      A                      A                      A
 Frequencies --    846.6313               859.5097               928.7469
 Red. masses --      1.4127                 5.8713                 2.2197
 Frc consts  --      0.5966                 2.5556                 1.1281
 IR Inten    --     70.9230                25.7726                25.6259

                     16                     17                     18
                      A                      A                      A
 Frequencies --    983.8585               990.9796              1133.5835
 Red. masses --      2.0561                 1.1244                 3.9674
 Frc consts  --      1.1727                 0.6506                 3.0038
 IR Inten    --    101.0266                33.2483               167.9630

                     19                     20                     21
                      A                      A                      A
 Frequencies --   1174.8731              1184.1345              1221.1164
 Red. masses --      3.3406                 4.5313                 4.2242
 Frc consts  --      2.7168                 3.7435                 3.7111
 IR Inten    --    193.2618               327.8976               530.5334

                     22                     23                     24
                      A                      A                      A
 Frequencies --   1299.3902              1318.4090              1360.5538
 Red. masses --      3.2007                 1.4331                 1.1738
 Frc consts  --      3.1840                 1.4676                 1.2802
 IR Inten    --    168.9309               121.4335                22.9660

                     25                     26                     27
                      A                      A                      A
 Frequencies --   1435.4366              1473.4851              1524.6727
 Red. masses --      1.3313                 1.5482                 1.0870
 Frc consts  --      1.6162                 1.9804                 1.4887
 IR Inten    --     21.6628                 7.6759                17.9522

                     28                     29                     30
                      A                      A                      A
 Frequencies --   1729.5046              3078.7709              3130.3436
 Red. masses --      4.4231                 1.0567                 1.1098
 Frc consts  --      7.7951                 5.9012                 6.4075
 IR Inten    --    221.7938                49.2586                28.0813

                     31                     32                     33
                      A                      A                      A
 Frequencies --   3181.0662              3198.5443              3287.8700
 Red. masses --      1.0804                 1.0735                 1.1171
 Frc consts  --      6.4417                 6.4707                 7.1149
 IR Inten    --     19.5395                 0.2660                 8.0634

 - Thermochemistry -
 -------------------
 Temperature   298.150 Kelvin.  Pressure   1.00000 Atm.
 Atom     1 has atomic number  9 and mass  18.99840

 Molecular mass:   126.02925 amu.
 Principal axes and moments of inertia in atomic units:
                           1         2         3
     Eigenvalues --   369.050741789.374641822.32790
           X            1.00000   0.00052  -0.00209
           Y           -0.00060   0.99920  -0.04010
           Z            0.00207   0.04010   0.99919
 This molecule is an asymmetric top.
 Rotational symmetry number  1.
 Rotational temperatures (Kelvin)      0.23469     0.04840     0.04753
 Rotational constants (GHZ):           4.89023     1.00859     0.99035
 Zero-point vibrational energy     237214.6 (Joules/Mol)
                                   56.69565 (Kcal/Mol)
 Warning -- explicit consideration of  10 degrees of freedom as
           vibrations may cause significant error
 Vibrational temperatures:     55.25    91.69   141.43   219.33   427.78
          (Kelvin)            498.04   511.00   713.61   755.51   831.81
                              944.14  1022.62  1218.11  1236.64  1336.26
                             1415.55  1425.80  1630.97  1690.38  1703.71
                             1756.91  1869.53  1896.90  1957.53  2065.27
                             2120.02  2193.66  2488.37  4429.66  4503.87
                             4576.84  4601.99  4730.51

 Zero-point correction=                           0.090350 (Hartree/Particle)
 Thermal correction to Energy=                    0.098593
 Thermal correction to Enthalpy=                  0.099537
 Thermal correction to Gibbs Free Energy=         0.055863
 Sum of electronic and zero-point Energies=           -530.056057
 Sum of electronic and thermal Energies=              -530.047815
 Sum of electronic and thermal Enthalpies=            -530.046871
 Sum of electronic and thermal Free Energies=         -530.090545

                     E (Thermal)             CV                S
                      KCal/Mol        Cal/Mol-Kelvin    Cal/Mol-Kelvin
 Total                   61.868             27.794             91.920
 Electronic               0.000              0.000              0.000
 Translational            0.889              2.981             40.408
 Rotational               0.889              2.981             28.578
 Vibrational             60.090             21.833             22.935
 Vibration     1          0.594              1.982              5.340
 Vibration     2          0.597              1.972              4.338
 Vibration     3          0.604              1.950              3.488
 Vibration     4          0.619              1.900              2.642
 Vibration     5          0.691              1.679              1.432
 Vibration     6          0.724              1.583              1.184
 Vibration     7          0.731              1.565              1.143
 Vibration     8          0.852              1.259              0.668
 Vibration     9          0.880              1.194              0.598
 Vibration    10          0.935              1.079              0.489

 Optimization completed.
    -- Stationary point found.
 Normal termination of Gaussian 16 at Wed Mar  2 00:13:10 2022.

 ------------------------------------------
 #p b3lyp/6-31G(d) geom=allcheck guess=read
 ------------------------------------------

 Structure from the checkpoint file:  "146.n.pdb.xyz.mst.wat.chk"
 -------------
 146.n.pdb.xyz
 -------------
 Charge =  0 Multiplicity = 1

 SCF Done:  E(RB3LYP) =  -530.144716764     A.U. after   10 cycles
 Normal termination of Gaussian 16 at Wed Mar  2 00:13:26 2022.
 Gaussian 16:  ES64L-G16RevA.03 25-Dec-2016

 ----------------------------------------------------------------------
 #p b3lyp/6-31G(d) scrf=(iefpcm,read,solvent=water) geom=allcheck guess
 =read
 ----------------------------------------------------------------------

 Structure from the checkpoint file:  "146.n.pdb.xyz.mst.wat.chk"
 -------------
 146.n.pdb.xyz
 -------------
 Charge =  0 Multiplicity = 1

                         Standard orientation:
 ---------------------------------------------------------------------
 Center     Atomic      Atomic             Coordinates (Angstroms)
 Number     Number       Type             X           Y           Z
 ---------------------------------------------------------------------
      1          9           0        1.315394   -0.420520    1.289997
      2          6           0        1.274624   -0.010542    0.006764
      3          9           0        2.331042    0.800799   -0.201495
      4          9           0        1.433928   -1.102087   -0.768355
      5          6           0       -0.009576    0.726871   -0.311871
      6          8           0       -1.082715   -0.171635   -0.097732
      7          6           0       -2.312568    0.407370    0.066055
      8          6           0       -3.436004   -0.304369    0.013344
      9          1           0       -0.077321    1.600674    0.343151
     10          1           0        0.030615    1.063213   -1.352191
     11          1           0       -2.297399    1.476910    0.266154
     12          1           0       -3.429798   -1.369471   -0.192269
     13          1           0       -4.386508    0.182047    0.189933
 ---------------------------------------------------------------------

 SCF Done:  E(RB3LYP) =  -530.146114628     A.U. after   10 cycles

 The electronic state is 1-A.
 Alpha  occ. eigenvalues --  -24.73273 -24.73020 -24.73019 -19.19170 -10.43734
 Alpha  occ. eigenvalues --  -10.26361 -10.24745 -10.17451  -1.30966  -1.22326
 Alpha  occ. eigenvalues --   -1.22100  -1.07812  -0.80128  -0.73896  -0.66652
 Alpha  occ. eigenvalues --   -0.60520  -0.59165  -0.57776  -0.56170  -0.51729
 Alpha  occ. eigenvalues --   -0.48728  -0.46345  -0.46055  -0.44776  -0.42495
 Alpha  occ. eigenvalues --   -0.42012  -0.40538  -0.40442  -0.38581  -0.35935
 Alpha  occ. eigenvalues --   -0.34633  -0.23599
 Alpha virt. eigenvalues --    0.02551   0.07757   0.12445   0.12829   0.14074
 Alpha virt. eigenvalues --    0.15845   0.17812   0.20900   0.20968   0.22959
 Alpha virt. eigenvalues --    0.24488   0.30360   0.34238   0.47091   0.50161

 Mulliken charges:
               1
     1  F   -0.267242
     2  C    0.799640
     3  F   -0.270580
     4  F   -0.268696
     5  C   -0.129500
     6  O   -0.478102
     7  C    0.166580
     8  C   -0.430752
     9  H    0.195324
    10  H    0.193588
    11  H    0.167450
    12  H    0.157724
    13  H    0.164567
 Sum of Mulliken charges =   0.00000

 Dipole moment (field-independent basis, Debye):
    X=             -1.1860    Y=              2.8630    Z=             -0.4779  Tot=              3.1356
 Quadrupole moment (field-independent basis, Debye-Ang):
   XX=            -44.9427   YY=            -41.4609   ZZ=            -45.3176
   XY=             -1.6225   XZ=             -0.6923   YZ=              0.0988

 Normal termination of Gaussian 16 at Wed Mar  2 00:13:48 2022.
