 Gaussian 16, Revision A.03,

 ----------------------------------------------------------------------
 #p b3lyp/6-31G(d) opt=(MaxStep=10,MaxCycles=1000) freq scf=(MaxCycle=2
 000,NoVarAcc,NoIncFock) scrf=(iefpcm,read,solvent=water)
 ----------------------------------------------------------------------

 -------------
 147.n.pdb.xyz
 -------------
 Symbolic Z-matrix:
 Charge =  0 Multiplicity = 1

 SCF Done:  E(RB3LYP) =  -463.662103427     A.U. after   11 cycles
 SCF Done:  E(RB3LYP) =  -463.663387261     A.U. after   10 cycles
 SCF Done:  E(RB3LYP) =  -463.663483465     A.U. after    9 cycles
 SCF Done:  E(RB3LYP) =  -463.663514597     A.U. after    9 cycles
 SCF Done:  E(RB3LYP) =  -463.663523504     A.U. after    9 cycles
 SCF Done:  E(RB3LYP) =  -463.663533620     A.U. after    8 cycles
 SCF Done:  E(RB3LYP) =  -463.663537024     A.U. after    8 cycles
 SCF Done:  E(RB3LYP) =  -463.663534762     A.U. after    7 cycles
 SCF Done:  E(RB3LYP) =  -463.663529241     A.U. after    7 cycles
 SCF Done:  E(RB3LYP) =  -463.663517902     A.U. after    8 cycles
 SCF Done:  E(RB3LYP) =  -463.663505939     A.U. after    8 cycles
 SCF Done:  E(RB3LYP) =  -463.663502506     A.U. after    7 cycles
 Optimization completed.
    -- Stationary point found.
 Normal termination of Gaussian 16 at Wed Mar  2 03:04:51 2022.

 --------------------------------------------------------------------
 #P Geom=AllCheck Guess=TCheck SCRF=Check GenChk RB3LYP/6-31G(d) Freq
 --------------------------------------------------------------------

 Structure from the checkpoint file:  "147.n.pdb.xyz.mst.wat.chk"
 -------------
 147.n.pdb.xyz
 -------------
 Charge =  0 Multiplicity = 1

 SCF Done:  E(RB3LYP) =  -463.663502506     A.U. after    1 cycles

  Exact polarizability: 171.678  16.206 108.444  -0.010  -3.712  75.586
 Approx polarizability: 168.005  18.274 116.921  -0.634  -3.988  82.884

                      1                      2                      3
                      A                      A                      A
 Frequencies --     28.4900                40.4605                52.3168
 Red. masses --      3.8681                 1.7600                 1.8337
 Frc consts  --      0.0018                 0.0017                 0.0030
 IR Inten    --      0.9824                 8.8581                 1.6001

                      4                      5                      6
                      A                      A                      A
 Frequencies --     57.9278                62.8573               109.4294
 Red. masses --      3.7103                 4.1509                 3.6505
 Frc consts  --      0.0073                 0.0097                 0.0258
 IR Inten    --      3.0481                 0.5028                14.3288

                      7                      8                      9
                      A                      A                      A
 Frequencies --    114.6199               146.2007               172.4929
 Red. masses --      2.2007                 2.9864                 3.0431
 Frc consts  --      0.0170                 0.0376                 0.0533
 IR Inten    --      0.1834                 0.0016                 0.0047

                     10                     11                     12
                      A                      A                      A
 Frequencies --    244.2037               277.1192               411.4264
 Red. masses --      5.7572                 3.2760                 2.9669
 Frc consts  --      0.2023                 0.1482                 0.2959
 IR Inten    --      0.0026                 0.9203                 0.0120

                     13                     14                     15
                      A                      A                      A
 Frequencies --    474.4170               537.0941               559.9170
 Red. masses --      3.7720                 2.6729                 2.8289
 Frc consts  --      0.5002                 0.4543                 0.5225
 IR Inten    --     17.9639                 1.4070                 0.0071

                     16                     17                     18
                      A                      A                      A
 Frequencies --    707.5694               708.5131               771.0238
 Red. masses --      1.4383                 1.4367                 1.0699
 Frc consts  --      0.4243                 0.4249                 0.3748
 IR Inten    --      4.4673                 2.4313                 7.1323

                     19                     20                     21
                      A                      A                      A
 Frequencies --    822.0995               823.0314               826.3237
 Red. masses --      1.3422                 1.4252                 1.2035
 Frc consts  --      0.5345                 0.5688                 0.4841
 IR Inten    --      0.5754               158.8581                 0.7452

                     22                     23                     24
                      A                      A                      A
 Frequencies --    914.0941               920.3311               952.4636
 Red. masses --      2.3309                 2.1422                 1.1923
 Frc consts  --      1.1475                 1.0691                 0.6373
 IR Inten    --      0.0825                27.1061                 3.6653

                     25                     26                     27
                      A                      A                      A
 Frequencies --    996.9440               997.7532              1056.7926
 Red. masses --      1.1271                 1.1267                 3.6984
 Frc consts  --      0.6600                 0.6609                 2.4336
 IR Inten    --     21.2414                22.3632                38.6832

                     28                     29                     30
                      A                      A                      A
 Frequencies --   1063.0214              1096.8241              1104.5762
 Red. masses --      2.6931                 2.9718                 3.6609
 Frc consts  --      1.7930                 2.1064                 2.6317
 IR Inten    --      0.2491                 4.5891               378.7303

                     31                     32                     33
                      A                      A                      A
 Frequencies --   1128.0405              1184.6144              1208.4503
 Red. masses --      4.8454                 1.7311                 2.7448
 Frc consts  --      3.6327                 1.4313                 2.3617
 IR Inten    --      0.9476                 1.8022               780.8513

                     34                     35                     36
                      A                      A                      A
 Frequencies --   1226.6962              1237.8473              1289.3836
 Red. masses --      3.5311                 1.3384                 1.3289
 Frc consts  --      3.1306                 1.2083                 1.3017
 IR Inten    --      0.5383               101.3300                43.6076

                     37                     38                     39
                      A                      A                      A
 Frequencies --   1299.6850              1332.6591              1340.5232
 Red. masses --      1.1876                 1.0564                 1.1225
 Frc consts  --      1.1820                 1.1054                 1.1885
 IR Inten    --      0.0238                 0.0153                 0.1399

                     40                     41                     42
                      A                      A                      A
 Frequencies --   1354.6501              1358.5900              1380.6060
 Red. masses --      1.1810                 1.1766                 1.3104
 Frc consts  --      1.2769                 1.2796                 1.4716
 IR Inten    --     15.9521                16.5246                 1.1519

                     43                     44                     45
                      A                      A                      A
 Frequencies --   1422.6666              1435.2943              1460.7020
 Red. masses --      1.2852                 1.4061                 1.3069
 Frc consts  --      1.5326                 1.7067                 1.6429
 IR Inten    --    201.0141                 1.0208                 2.0188

                     46                     47                     48
                      A                      A                      A
 Frequencies --   1463.8653              1514.7118              1529.0770
 Red. masses --      1.3128                 1.0923                 1.0904
 Frc consts  --      1.6576                 1.4766                 1.5020
 IR Inten    --      1.4997                 0.5011                 9.9409

                     49                     50                     51
                      A                      A                      A
 Frequencies --   1540.9130              1551.1736              1722.1214
 Red. masses --      1.0920                 1.0957                 4.3105
 Frc consts  --      1.5277                 1.5533                 7.5320
 IR Inten    --      1.7157                20.1858               279.8613

                     52                     53                     54
                      A                      A                      A
 Frequencies --   1722.6902              3036.2060              3038.3386
 Red. masses --      4.2786                 1.0551                 1.0555
 Frc consts  --      7.4811                 5.7307                 5.7410
 IR Inten    --    202.7547                99.2865                22.9286

                     55                     56                     57
                      A                      A                      A
 Frequencies --   3059.8338              3070.0703              3076.2681
 Red. masses --      1.0589                 1.0590                 1.1076
 Frc consts  --      5.8414                 5.8807                 6.1756
 IR Inten    --     24.2654                93.4085                66.6862

                     58                     59                     60
                      A                      A                      A
 Frequencies --   3076.4692              3098.8918              3118.7904
 Red. masses --      1.1063                 1.1068                 1.1068
 Frc consts  --      6.1691                 6.2621                 6.3431
 IR Inten    --      9.5815                 7.0303               167.8622

                     61                     62                     63
                      A                      A                      A
 Frequencies --   3173.6253              3175.1131              3192.1646
 Red. masses --      1.0809                 1.0831                 1.0718
 Frc consts  --      6.4141                 6.4333                 6.4345
 IR Inten    --     28.8166                26.8743                 0.5209

                     64                     65                     66
                      A                      A                      A
 Frequencies --   3197.6256              3282.1594              3286.7921
 Red. masses --      1.0691                 1.1165                 1.1169
 Frc consts  --      6.4405                 7.0863                 7.1088
 IR Inten    --      0.3968                12.2185                12.2091

 - Thermochemistry -
 -------------------
 Temperature   298.150 Kelvin.  Pressure   1.00000 Atm.
 Atom     1 has atomic number  6 and mass  12.00000

 Molecular mass:   142.09938 amu.
 Principal axes and moments of inertia in atomic units:
                           1         2         3
     Eigenvalues --   150.942316140.362206242.05796
           X            0.99999  -0.00398   0.00009
           Y            0.00399   0.99987  -0.01592
           Z           -0.00003   0.01593   0.99987
 This molecule is an asymmetric top.
 Rotational symmetry number  1.
 Rotational temperatures (Kelvin)      0.57382     0.01411     0.01388
 Rotational constants (GHZ):          11.95650     0.29391     0.28913
 Zero-point vibrational energy     548114.8 (Joules/Mol)
                                  131.00259 (Kcal/Mol)
 Warning -- explicit consideration of  15 degrees of freedom as
           vibrations may cause significant error
 Vibrational temperatures:     40.99    58.21    75.27    83.35    90.44
          (Kelvin)            157.44   164.91   210.35   248.18   351.35
                              398.71   591.95   682.58   772.76   805.60
                             1018.03  1019.39  1109.33  1182.82  1184.16
                             1188.90  1315.18  1324.15  1370.38  1434.38
                             1435.54  1520.49  1529.45  1578.09  1589.24
                             1623.00  1704.40  1738.69  1764.94  1780.99
                             1855.14  1869.96  1917.40  1928.71  1949.04
                             1954.71  1986.38  2046.90  2065.07  2101.62
                             2106.18  2179.33  2200.00  2217.03  2231.79
                             2477.75  2478.57  4368.42  4371.49  4402.42
                             4417.15  4426.06  4426.35  4458.61  4487.24
                             4566.14  4568.28  4592.81  4600.67  4722.30
                             4728.96

 Zero-point correction=                           0.208766 (Hartree/Particle)
 Thermal correction to Energy=                    0.221386
 Thermal correction to Enthalpy=                  0.222331
 Thermal correction to Gibbs Free Energy=         0.167183
 Sum of electronic and zero-point Energies=           -463.454737
 Sum of electronic and thermal Energies=              -463.442116
 Sum of electronic and thermal Enthalpies=            -463.441172
 Sum of electronic and thermal Free Energies=         -463.496319

                     E (Thermal)             CV                S
                      KCal/Mol        Cal/Mol-Kelvin    Cal/Mol-Kelvin
 Total                  138.922             42.201            116.067
 Electronic               0.000              0.000              0.000
 Translational            0.889              2.981             40.765
 Rotational               0.889              2.981             30.138
 Vibrational            137.145             36.239             45.164
 Vibration     1          0.593              1.984              5.932
 Vibration     2          0.594              1.981              5.236
 Vibration     3          0.596              1.977              4.728
 Vibration     4          0.596              1.974              4.527
 Vibration     5          0.597              1.972              4.365
 Vibration     6          0.606              1.942              3.279
 Vibration     7          0.608              1.937              3.189
 Vibration     8          0.617              1.907              2.721
 Vibration     9          0.626              1.876              2.408
 Vibration    10          0.660              1.772              1.772
 Vibration    11          0.678              1.716              1.551
 Vibration    12          0.775              1.445              0.922
 Vibration    13          0.831              1.307              0.725
 Vibration    14          0.892              1.168              0.572
 Vibration    15          0.916              1.118              0.524

                           ! Non-Optimized Parameters !
 Normal termination of Gaussian 16 at Wed Mar  2 03:12:20 2022.

 ------------------------------------------
 #p b3lyp/6-31G(d) geom=allcheck guess=read
 ------------------------------------------

 Structure from the checkpoint file:  "147.n.pdb.xyz.mst.wat.chk"
 -------------
 147.n.pdb.xyz
 -------------
 Charge =  0 Multiplicity = 1

 SCF Done:  E(RB3LYP) =  -463.655671419     A.U. after   10 cycles
 Normal termination of Gaussian 16 at Wed Mar  2 03:13:01 2022.
 Gaussian 16:  ES64L-G16RevA.03 25-Dec-2016

 ----------------------------------------------------------------------
 #p b3lyp/6-31G(d) scrf=(iefpcm,read,solvent=water) geom=allcheck guess
 =read
 ----------------------------------------------------------------------

 Structure from the checkpoint file:  "147.n.pdb.xyz.mst.wat.chk"
 -------------
 147.n.pdb.xyz
 -------------
 Charge =  0 Multiplicity = 1

                         Standard orientation:
 ---------------------------------------------------------------------
 Center     Atomic      Atomic             Coordinates (Angstroms)
 Number     Number       Type             X           Y           Z
 ---------------------------------------------------------------------
      1          6           0        5.407652    0.259462   -0.017217
      2          6           0        4.224271   -0.351556    0.068302
      3          8           0        3.044239    0.321732   -0.013614
      4          6           0        1.870985   -0.501946   -0.096694
      5          6           0        0.654378    0.396818    0.046016
      6          6           0       -0.654769   -0.392546   -0.046107
      7          6           0       -1.871474    0.506135    0.095130
      8          8           0       -3.042864   -0.318444    0.006453
      9          6           0       -4.226060    0.350848   -0.050911
     10          6           0       -5.405978   -0.270242    0.007370
     11          1           0        6.318681   -0.316098    0.083448
     12          1           0        5.487747    1.329066   -0.178408
     13          1           0        4.133069   -1.424665    0.227183
     14          1           0        1.859916   -1.025624   -1.060590
     15          1           0        1.899219   -1.255726    0.699770
     16          1           0        0.688795    1.161842   -0.738117
     17          1           0        0.714036    0.919537    1.007299
     18          1           0       -0.714146   -0.915702   -1.007248
     19          1           0       -0.689989   -1.157135    0.738312
     20          1           0       -1.896988    1.261658   -0.699972
     21          1           0       -1.863460    1.027376    1.060295
     22          1           0       -4.141462    1.430261   -0.164661
     23          1           0       -5.479962   -1.346924    0.122755
     24          1           0       -6.320480    0.303994   -0.068117
 ---------------------------------------------------------------------

 SCF Done:  E(RB3LYP) =  -463.663044773     A.U. after   10 cycles

 The electronic state is 1-A.
 Alpha  occ. eigenvalues --  -19.17517 -19.17517 -10.23982 -10.23978 -10.23850
 Alpha  occ. eigenvalues --  -10.23847 -10.18882 -10.18861 -10.16801 -10.16798
 Alpha  occ. eigenvalues --   -1.05973  -1.05936  -0.81203  -0.77302  -0.74617
 Alpha  occ. eigenvalues --   -0.70570  -0.63697  -0.59804  -0.58110  -0.57222
 Alpha  occ. eigenvalues --   -0.51515  -0.50860  -0.49932  -0.47168  -0.45546
 Alpha  occ. eigenvalues --   -0.45185  -0.41728  -0.40345  -0.39902  -0.38626
 Alpha  occ. eigenvalues --   -0.36882  -0.36083  -0.35034  -0.33999  -0.33078
 Alpha  occ. eigenvalues --   -0.33014  -0.32862  -0.22579  -0.22555
 Alpha virt. eigenvalues --    0.03168   0.03248   0.09092   0.09977   0.10299
 Alpha virt. eigenvalues --    0.12618   0.13183   0.14543   0.14609   0.15568
 Alpha virt. eigenvalues --    0.16047   0.16354   0.17994   0.18698   0.19740

 Mulliken charges:
               1
     1  C   -0.443232
     2  C    0.168539
     3  O   -0.486072
     4  C   -0.031659
     5  C   -0.291209
     6  C   -0.291307
     7  C   -0.031435
     8  O   -0.485723
     9  C    0.168376
    10  C   -0.443566
    11  H    0.156781
    12  H    0.148958
    13  H    0.154546
    14  H    0.154342
    15  H    0.155173
    16  H    0.157113
    17  H    0.156663
    18  H    0.156687
    19  H    0.157156
    20  H    0.154884
    21  H    0.154368
    22  H    0.155036
    23  H    0.148835
    24  H    0.156747
 Sum of Mulliken charges =  -0.00000

 Dipole moment (field-independent basis, Debye):
    X=             -0.0053    Y=              0.0069    Z=              0.0441  Tot=              0.0449
 Quadrupole moment (field-independent basis, Debye-Ang):
   XX=            -72.9484   YY=            -58.2885   ZZ=            -63.4887
   XY=            -10.9997   XZ=              0.5684   YZ=             -0.8316

 Normal termination of Gaussian 16 at Wed Mar  2 03:13:54 2022.
