 Gaussian 16, Revision A.03,

 ----------------------------------------------------------------------
 #p b3lyp/6-31G(d) opt=(MaxStep=10,MaxCycles=1000) freq scf=(MaxCycle=2
 000,NoVarAcc,NoIncFock) scrf=(iefpcm,read,solvent=water)
 ----------------------------------------------------------------------

 -------------
 148.n.pdb.xyz
 -------------
 Symbolic Z-matrix:
 Charge =  0 Multiplicity = 1

 SCF Done:  E(RB3LYP) =  -347.024751722     A.U. after   11 cycles
 SCF Done:  E(RB3LYP) =  -347.026281356     A.U. after   10 cycles
 SCF Done:  E(RB3LYP) =  -347.026377754     A.U. after    9 cycles
 SCF Done:  E(RB3LYP) =  -347.026357162     A.U. after    9 cycles
 SCF Done:  E(RB3LYP) =  -347.026369108     A.U. after    9 cycles
 SCF Done:  E(RB3LYP) =  -347.026389665     A.U. after    8 cycles
 SCF Done:  E(RB3LYP) =  -347.026395100     A.U. after    8 cycles
 Optimization completed.
    -- Stationary point found.
 Normal termination of Gaussian 16 at Wed Mar  2 03:29:28 2022.

 --------------------------------------------------------------------
 #P Geom=AllCheck Guess=TCheck SCRF=Check GenChk RB3LYP/6-31G(d) Freq
 --------------------------------------------------------------------

 Structure from the checkpoint file:  "148.n.pdb.xyz.mst.wat.chk"
 -------------
 148.n.pdb.xyz
 -------------
 Charge =  0 Multiplicity = 1

 SCF Done:  E(RB3LYP) =  -347.026395100     A.U. after    1 cycles

  Exact polarizability:  84.494   0.459  74.994   0.003  -0.008  61.384
 Approx polarizability:  79.779   3.534  87.357   0.004  -0.006  66.228

                      1                      2                      3
                      A                      A                      A
 Frequencies --     50.4169                62.1559                93.6795
 Red. masses --      3.2909                 1.0637                 1.9473
 Frc consts  --      0.0049                 0.0024                 0.0101
 IR Inten    --      0.0896                 1.8793                 0.9986

                      4                      5                      6
                      A                      A                      A
 Frequencies --    134.8608               195.3404               249.5818
 Red. masses --      3.6240                 2.7893                 1.0910
 Frc consts  --      0.0388                 0.0627                 0.0400
 IR Inten    --      4.2969                 7.6759                 0.0327

                      7                      8                      9
                      A                      A                      A
 Frequencies --    311.7572               336.6163               478.5641
 Red. masses --      2.8071                 4.6069                 3.2331
 Frc consts  --      0.1607                 0.3076                 0.4363
 IR Inten    --      4.2744                15.2902                 2.1036

                     10                     11                     12
                      A                      A                      A
 Frequencies --    604.7679               640.8996               770.0379
 Red. masses --      2.7103                 4.6889                 1.0765
 Frc consts  --      0.5840                 1.1347                 0.3761
 IR Inten    --     11.0077                10.6203                 4.6183

                     13                     14                     15
                      A                      A                      A
 Frequencies --    904.6282               909.7501               929.4063
 Red. masses --      1.1392                 2.9929                 2.3199
 Frc consts  --      0.5493                 1.4595                 1.1807
 IR Inten    --      3.0758                 2.7401                33.3044

                     16                     17                     18
                      A                      A                      A
 Frequencies --    995.0873              1056.9492              1069.1431
 Red. masses --      2.5020                 2.4249                 2.8456
 Frc consts  --      1.4597                 1.5961                 1.9164
 IR Inten    --      8.4568                 7.5103               168.6663

                     19                     20                     21
                      A                      A                      A
 Frequencies --   1073.8724              1158.5475              1193.3386
 Red. masses --      1.7662                 2.2343                 1.5781
 Frc consts  --      1.2001                 1.7669                 1.3241
 IR Inten    --     15.7354                 2.1676                 2.4404

                     22                     23                     24
                      A                      A                      A
 Frequencies --   1277.9800              1281.2276              1322.5516
 Red. masses --      1.2208                 3.3582                 1.0863
 Frc consts  --      1.1747                 3.2480                 1.1195
 IR Inten    --      3.3630               590.2619                 0.3864

                     25                     26                     27
                      A                      A                      A
 Frequencies --   1343.3512              1415.2366              1435.6599
 Red. masses --      1.4247                 1.3169                 1.5736
 Frc consts  --      1.5148                 1.5540                 1.9110
 IR Inten    --      6.5491                48.3676                31.5026

                     28                     29                     30
                      A                      A                      A
 Frequencies --   1441.9816              1488.4449              1493.2408
 Red. masses --      1.2722                 1.0555                 1.0451
 Frc consts  --      1.5585                 1.3778                 1.3730
 IR Inten    --      0.5462                24.9272                11.2710

                     31                     32                     33
                      A                      A                      A
 Frequencies --   1504.6954              1522.7774              1528.0746
 Red. masses --      1.0652                 1.0398                 1.0784
 Frc consts  --      1.4210                 1.4206                 1.4836
 IR Inten    --      0.6943                 8.2205                 1.0089

                     34                     35                     36
                      A                      A                      A
 Frequencies --   1540.1875              1786.9310              3058.1318
 Red. masses --      1.0923                10.6962                 1.0602
 Frc consts  --      1.5266                20.1230                 5.8419
 IR Inten    --      9.7537               432.7392                32.2710

                     37                     38                     39
                      A                      A                      A
 Frequencies --   3060.9377              3082.8338              3087.7976
 Red. masses --      1.0362                 1.0565                 1.0373
 Frc consts  --      5.7201                 5.9160                 5.8273
 IR Inten    --     35.0969                49.0238                 3.4283

                     40                     41                     42
                      A                      A                      A
 Frequencies --   3091.5878              3123.4153              3133.8766
 Red. masses --      1.1034                 1.1044                 1.1088
 Frc consts  --      6.2134                 6.3479                 6.4162
 IR Inten    --      7.2705                22.1226               123.1666

                     43                     44                     45
                      A                      A                      A
 Frequencies --   3135.9877              3152.0600              3198.0153
 Red. masses --      1.1022                 1.1013                 1.1036
 Frc consts  --      6.3863                 6.4466                 6.6503
 IR Inten    --     57.1777                 6.9525                14.3213

 - Thermochemistry -
 -------------------
 Temperature   298.150 Kelvin.  Pressure   1.00000 Atm.
 Atom     1 has atomic number  6 and mass  12.00000

 Molecular mass:   102.06808 amu.
 Principal axes and moments of inertia in atomic units:
                           1         2         3
     Eigenvalues --   232.660371561.612501749.38211
           X            0.99976  -0.02176   0.00000
           Y            0.02176   0.99976  -0.00005
           Z           -0.00000   0.00005   1.00000
 This molecule is an asymmetric top.
 Rotational symmetry number  1.
 Rotational temperatures (Kelvin)      0.37228     0.05546     0.04951
 Rotational constants (GHZ):           7.75698     1.15569     1.03164
 Zero-point vibrational energy     387149.8 (Joules/Mol)
                                   92.53101 (Kcal/Mol)
 Warning -- explicit consideration of  10 degrees of freedom as
           vibrations may cause significant error
 Vibrational temperatures:     72.54    89.43   134.78   194.03   281.05
          (Kelvin)            359.09   448.55   484.32   688.55   870.13
                              922.11  1107.91  1301.56  1308.93  1337.21
                             1431.71  1520.71  1538.26  1545.06  1666.89
                             1716.95  1838.73  1843.40  1902.86  1932.78
                             2036.21  2065.59  2074.69  2141.54  2148.44
                             2164.92  2190.94  2198.56  2215.99  2571.00
                             4399.97  4404.01  4435.51  4442.65  4448.11
                             4493.90  4508.95  4511.99  4535.11  4601.23

 Zero-point correction=                           0.147458 (Hartree/Particle)
 Thermal correction to Energy=                    0.156218
 Thermal correction to Enthalpy=                  0.157162
 Thermal correction to Gibbs Free Energy=         0.113139
 Sum of electronic and zero-point Energies=           -346.878938
 Sum of electronic and thermal Energies=              -346.870177
 Sum of electronic and thermal Enthalpies=            -346.869233
 Sum of electronic and thermal Free Energies=         -346.913256

                     E (Thermal)             CV                S
                      KCal/Mol        Cal/Mol-Kelvin    Cal/Mol-Kelvin
 Total                   98.028             29.137             92.654
 Electronic               0.000              0.000              0.000
 Translational            0.889              2.981             39.779
 Rotational               0.889              2.981             27.943
 Vibrational             96.251             23.176             24.932
 Vibration     1          0.595              1.977              4.801
 Vibration     2          0.597              1.972              4.388
 Vibration     3          0.603              1.954              3.582
 Vibration     4          0.613              1.919              2.876
 Vibration     5          0.636              1.846              2.177
 Vibration     6          0.662              1.763              1.734
 Vibration     7          0.700              1.651              1.353
 Vibration     8          0.717              1.602              1.228
 Vibration     9          0.835              1.298              0.714
 Vibration    10          0.963              1.022              0.442

                           ! Non-Optimized Parameters !
 Normal termination of Gaussian 16 at Wed Mar  2 03:32:45 2022.

 ------------------------------------------
 #p b3lyp/6-31G(d) geom=allcheck guess=read
 ------------------------------------------

 Structure from the checkpoint file:  "148.n.pdb.xyz.mst.wat.chk"
 -------------
 148.n.pdb.xyz
 -------------
 Charge =  0 Multiplicity = 1

 SCF Done:  E(RB3LYP) =  -347.020920124     A.U. after   10 cycles
 Normal termination of Gaussian 16 at Wed Mar  2 03:33:06 2022.
 Gaussian 16:  ES64L-G16RevA.03 25-Dec-2016

 ----------------------------------------------------------------------
 #p b3lyp/6-31G(d) scrf=(iefpcm,read,solvent=water) geom=allcheck guess
 =read
 ----------------------------------------------------------------------

 Structure from the checkpoint file:  "148.n.pdb.xyz.mst.wat.chk"
 -------------
 148.n.pdb.xyz
 -------------
 Charge =  0 Multiplicity = 1

                         Standard orientation:
 ---------------------------------------------------------------------
 Center     Atomic      Atomic             Coordinates (Angstroms)
 Number     Number       Type             X           Y           Z
 ---------------------------------------------------------------------
      1          6           0       -3.285263    0.153284   -0.000248
      2          6           0       -1.962279   -0.616234    0.000575
      3          6           0       -0.767815    0.320885   -0.000156
      4          8           0        0.431544   -0.491928   -0.000213
      5          6           0        1.601828    0.170142   -0.000029
      6          6           0        2.769873   -0.781058   -0.000154
      7          8           0        1.681901    1.385175    0.000340
      8          1           0       -3.373644    0.791812   -0.885720
      9          1           0       -4.133450   -0.536820    0.000092
     10          1           0       -3.373973    0.792809    0.884121
     11          1           0       -1.905148   -1.265802    0.881796
     12          1           0       -1.904966   -1.265989   -0.879644
     13          1           0       -0.755906    0.963229   -0.885069
     14          1           0       -0.755183    0.964017    0.884071
     15          1           0        2.727464   -1.425859   -0.881998
     16          1           0        3.702232   -0.218821    0.000392
     17          1           0        2.726951   -1.426666    0.881012
 ---------------------------------------------------------------------

 SCF Done:  E(RB3LYP) =  -347.026090179     A.U. after   10 cycles

 The electronic state is 1-A.
 Alpha  occ. eigenvalues --  -19.19133 -19.13894 -10.31993 -10.23768 -10.19019
 Alpha  occ. eigenvalues --  -10.18537 -10.17609  -1.10202  -1.01386  -0.79613
 Alpha  occ. eigenvalues --   -0.74909  -0.68598  -0.59774  -0.56741  -0.49701
 Alpha  occ. eigenvalues --   -0.48930  -0.47267  -0.45154  -0.42118  -0.40949
 Alpha  occ. eigenvalues --   -0.40788  -0.36857  -0.36828  -0.36243  -0.33888
 Alpha  occ. eigenvalues --   -0.33725  -0.30271  -0.27632
 Alpha virt. eigenvalues --    0.01060   0.09431   0.11016   0.13329   0.13986
 Alpha virt. eigenvalues --    0.15309   0.15618   0.17719   0.17800   0.19289
 Alpha virt. eigenvalues --    0.19533   0.20661   0.22126   0.24201   0.26303

 Mulliken charges:
               1
     1  C   -0.459309
     2  C   -0.276736
     3  C   -0.031287
     4  O   -0.461687
     5  C    0.622559
     6  C   -0.526972
     7  O   -0.530858
     8  H    0.153483
     9  H    0.157478
    10  H    0.153554
    11  H    0.152688
    12  H    0.152842
    13  H    0.160685
    14  H    0.160720
    15  H    0.195460
    16  H    0.181953
    17  H    0.195427
 Sum of Mulliken charges =  -0.00000

 Dipole moment (field-independent basis, Debye):
    X=             -1.2162    Y=             -2.3136    Z=             -0.0012  Tot=              2.6138
 Quadrupole moment (field-independent basis, Debye-Ang):
   XX=            -38.4813   YY=            -47.2665   ZZ=            -41.3719
   XY=             -6.0686   XZ=             -0.0015   YZ=             -0.0012

 Normal termination of Gaussian 16 at Wed Mar  2 03:33:33 2022.
