 Gaussian 16, Revision A.03,

 ----------------------------------------------------------------------
 #p b3lyp/6-31G(d) opt=(MaxStep=10,MaxCycles=1000) freq scf=(MaxCycle=2
 000,NoVarAcc,NoIncFock) scrf=(iefpcm,read,solvent=water)
 ----------------------------------------------------------------------

 -------------
 149.n.pdb.xyz
 -------------
 Symbolic Z-matrix:
 Charge =  0 Multiplicity = 1

 SCF Done:  E(RB3LYP) =  -1433.00710604     A.U. after   13 cycles
 SCF Done:  E(RB3LYP) =  -1433.01137954     A.U. after   10 cycles
 SCF Done:  E(RB3LYP) =  -1433.01292849     A.U. after   11 cycles
 SCF Done:  E(RB3LYP) =  -1433.01303066     A.U. after   10 cycles
 SCF Done:  E(RB3LYP) =  -1433.01306042     A.U. after    9 cycles
 SCF Done:  E(RB3LYP) =  -1433.01307123     A.U. after    9 cycles
 SCF Done:  E(RB3LYP) =  -1433.01307345     A.U. after    8 cycles
 SCF Done:  E(RB3LYP) =  -1433.01307401     A.U. after    8 cycles
 SCF Done:  E(RB3LYP) =  -1433.01307500     A.U. after    7 cycles
 SCF Done:  E(RB3LYP) =  -1433.01307715     A.U. after    7 cycles
 SCF Done:  E(RB3LYP) =  -1433.01307995     A.U. after    8 cycles
 SCF Done:  E(RB3LYP) =  -1433.01308128     A.U. after    7 cycles
 SCF Done:  E(RB3LYP) =  -1433.01308219     A.U. after    7 cycles
 SCF Done:  E(RB3LYP) =  -1433.01308227     A.U. after    7 cycles
 Optimization completed.
    -- Stationary point found.
 Normal termination of Gaussian 16 at Wed Mar  2 04:40:13 2022.

 --------------------------------------------------------------------
 #P Geom=AllCheck Guess=TCheck SCRF=Check GenChk RB3LYP/6-31G(d) Freq
 --------------------------------------------------------------------

 Structure from the checkpoint file:  "149.n.pdb.xyz.mst.wat.chk"
 -------------
 149.n.pdb.xyz
 -------------
 Charge =  0 Multiplicity = 1

 SCF Done:  E(RB3LYP) =  -1433.01308227     A.U. after    1 cycles

  Exact polarizability: 257.759 -20.007 204.503  16.503   9.115  85.265
 Approx polarizability: 288.509 -24.513 239.819  21.955  12.908  99.130

                      1                      2                      3
                      A                      A                      A
 Frequencies --     45.7661                48.4271                95.0131
 Red. masses --      4.7833                 6.3835                 1.9213
 Frc consts  --      0.0059                 0.0088                 0.0102
 IR Inten    --      0.8294                 0.4280                10.2800

                      4                      5                      6
                      A                      A                      A
 Frequencies --    113.7209               133.4859               189.3759
 Red. masses --      5.9259                 9.4744                 3.5611
 Frc consts  --      0.0452                 0.0995                 0.0752
 IR Inten    --      0.2820                 2.1642                 1.7898

                      7                      8                      9
                      A                      A                      A
 Frequencies --    206.5596               246.5001               266.1141
 Red. masses --     18.6166                 1.2824                 4.5196
 Frc consts  --      0.4680                 0.0459                 0.1886
 IR Inten    --      0.3604                60.7550                 2.5848

                     10                     11                     12
                      A                      A                      A
 Frequencies --    284.2085               335.8445               343.8605
 Red. masses --      3.6946                 6.4319                 6.2563
 Frc consts  --      0.1758                 0.4274                 0.4358
 IR Inten    --     26.6059                 4.2466                13.1537

                     13                     14                     15
                      A                      A                      A
 Frequencies --    380.2328               400.1542               426.0016
 Red. masses --     11.1109                 4.8800                 7.7043
 Frc consts  --      0.9464                 0.4604                 0.8238
 IR Inten    --      6.0743                 3.2303                 3.3810

                     16                     17                     18
                      A                      A                      A
 Frequencies --    436.4947               541.6871               633.7782
 Red. masses --      2.9815                 4.4798                 8.6442
 Frc consts  --      0.3347                 0.7745                 2.0457
 IR Inten    --      4.8056                 9.4618                 2.9697

                     19                     20                     21
                      A                      A                      A
 Frequencies --    647.2109               658.2394               698.0812
 Red. masses --      6.1517                 7.5366                 5.8198
 Frc consts  --      1.5182                 1.9239                 1.6710
 IR Inten    --      8.8643                52.5232                24.5432

                     22                     23                     24
                      A                      A                      A
 Frequencies --    747.1578               794.6067               818.2369
 Red. masses --      3.5787                 1.2886                 4.7656
 Frc consts  --      1.1770                 0.4794                 1.8799
 IR Inten    --      3.7599                16.3811               133.4619

                     25                     26                     27
                      A                      A                      A
 Frequencies --    824.4390               856.4596               866.0614
 Red. masses --      4.4778                 1.3313                 1.4146
 Frc consts  --      1.7932                 0.5754                 0.6252
 IR Inten    --     22.9190                 1.6967                32.8571

                     28                     29                     30
                      A                      A                      A
 Frequencies --    901.7083               912.9307               958.0041
 Red. masses --      1.4601                 1.3435                 6.1041
 Frc consts  --      0.6994                 0.6597                 3.3007
 IR Inten    --     30.2341               175.6384                87.3641

                     31                     32                     33
                      A                      A                      A
 Frequencies --    983.0531              1035.1506              1082.9492
 Red. masses --      2.0698                 2.7650                 2.9953
 Frc consts  --      1.1785                 1.7457                 2.0697
 IR Inten    --      3.0932                88.9992                 5.1753

                     34                     35                     36
                      A                      A                      A
 Frequencies --   1111.9157              1137.5573              1173.9511
 Red. masses --      1.9166                 2.0529                 2.4165
 Frc consts  --      1.3962                 1.5652                 1.9622
 IR Inten    --     64.1698                 4.9536                11.1303

                     37                     38                     39
                      A                      A                      A
 Frequencies --   1228.7105              1248.9825              1268.2665
 Red. masses --      1.7114                 1.8726                 1.4357
 Frc consts  --      1.5223                 1.7211                 1.3606
 IR Inten    --     34.4880                37.3804                 3.3860

                     40                     41                     42
                      A                      A                      A
 Frequencies --   1308.4438              1327.1992              1344.2967
 Red. masses --      1.8255                 2.1227                 1.4522
 Frc consts  --      1.8414                 2.2029                 1.5462
 IR Inten    --     28.7264                11.7787                44.6260

                     43                     44                     45
                      A                      A                      A
 Frequencies --   1383.3035              1387.8668              1398.1285
 Red. masses --      2.2810                 1.6407                 4.5940
 Frc consts  --      2.5716                 1.8620                 5.2910
 IR Inten    --     16.7951                41.0003                10.5034

                     46                     47                     48
                      A                      A                      A
 Frequencies --   1444.0291              1468.7278              1483.2498
 Red. masses --      1.4512                 4.7049                 4.0010
 Frc consts  --      1.7829                 5.9797                 5.1862
 IR Inten    --      2.2514                49.0238                32.2191

                     49                     50                     51
                      A                      A                      A
 Frequencies --   1505.5943              1526.0996              1534.2344
 Red. masses --      1.2013                 4.5774                 1.0900
 Frc consts  --      1.6044                 6.2811                 1.5117
 IR Inten    --     10.5929               117.9649                 2.5081

                     52                     53                     54
                      A                      A                      A
 Frequencies --   1608.3104              1660.8788              1662.4236
 Red. masses --      8.3201                 1.1330                 5.8919
 Frc consts  --     12.6800                 1.8414                 9.5937
 IR Inten    --      0.5648                28.5806                61.9033

                     55                     56                     57
                      A                      A                      A
 Frequencies --   3004.7207              3094.2995              3103.7511
 Red. masses --      1.0704                 1.0910                 1.0604
 Frc consts  --      5.6939                 6.1546                 6.0183
 IR Inten    --     97.3539                30.2934                65.4808

                     58                     59                     60
                      A                      A                      A
 Frequencies --   3156.7678              3243.5116              3250.9277
 Red. masses --      1.1079                 1.0923                 1.0925
 Frc consts  --      6.5047                 6.7707                 6.8028
 IR Inten    --     30.4678                 2.7326                 0.1473

                     61                     62                     63
                      A                      A                      A
 Frequencies --   3280.9439              3471.9149              3549.5946
 Red. masses --      1.0964                 1.0521                 1.0916
 Frc consts  --      6.9537                 7.4722                 8.1037
 IR Inten    --     10.4755                 2.7550                 6.2233

 - Thermochemistry -
 -------------------
 Temperature   298.150 Kelvin.  Pressure   1.00000 Atm.
 Atom     1 has atomic number  7 and mass  14.00307

 Molecular mass:   229.01735 amu.
 Principal axes and moments of inertia in atomic units:
                           1         2         3
     Eigenvalues --  1867.713316044.237047673.34392
           X            0.99971   0.02340  -0.00531
           Y           -0.02342   0.99972  -0.00398
           Z            0.00522   0.00410   0.99998
 This molecule is an asymmetric top.
 Rotational symmetry number  1.
 Warning -- assumption of classical behavior for rotation
           may cause significant error
 Rotational temperatures (Kelvin)      0.04637     0.01433     0.01129
 Rotational constants (GHZ):           0.96628     0.29859     0.23520
 Zero-point vibrational energy     456256.4 (Joules/Mol)
                                  109.04790 (Kcal/Mol)
 Warning -- explicit consideration of  17 degrees of freedom as
           vibrations may cause significant error
 Vibrational temperatures:     65.85    69.68   136.70   163.62   192.06
          (Kelvin)            272.47   297.19   354.66   382.88   408.91
                              483.21   494.74   547.07   575.73   612.92
                              628.02   779.37   911.87   931.19   947.06
                             1004.38  1074.99  1143.26  1177.26  1186.18
                             1232.25  1246.07  1297.36  1313.50  1378.35
                             1414.39  1489.35  1558.12  1599.80  1636.69
                             1689.05  1767.84  1797.01  1824.75  1882.56
                             1909.54  1934.14  1990.27  1996.83  2011.60
                             2077.64  2113.17  2134.07  2166.21  2195.72
                             2207.42  2314.00  2389.63  2391.86  4323.12
                             4452.01  4465.61  4541.88  4666.69  4677.36
                             4720.55  4995.31  5107.07

 Zero-point correction=                           0.173779 (Hartree/Particle)
 Thermal correction to Energy=                    0.186493
 Thermal correction to Enthalpy=                  0.187437
 Thermal correction to Gibbs Free Energy=         0.133198
 Sum of electronic and zero-point Energies=          -1432.839303
 Sum of electronic and thermal Energies=             -1432.826589
 Sum of electronic and thermal Enthalpies=           -1432.825645
 Sum of electronic and thermal Free Energies=        -1432.879885

                     E (Thermal)             CV                S
                      KCal/Mol        Cal/Mol-Kelvin    Cal/Mol-Kelvin
 Total                  117.026             47.179            114.156
 Electronic               0.000              0.000              0.000
 Translational            0.889              2.981             42.188
 Rotational               0.889              2.981             32.827
 Vibrational            115.249             41.218             39.142
 Vibration     1          0.595              1.979              4.992
 Vibration     2          0.595              1.978              4.881
 Vibration     3          0.603              1.953              3.554
 Vibration     4          0.607              1.938              3.204
 Vibration     5          0.613              1.920              2.895
 Vibration     6          0.633              1.854              2.234
 Vibration     7          0.641              1.831              2.074
 Vibration     8          0.661              1.769              1.755
 Vibration     9          0.672              1.735              1.621
 Vibration    10          0.683              1.703              1.508
 Vibration    11          0.717              1.604              1.232
 Vibration    12          0.723              1.588              1.194
 Vibration    13          0.750              1.512              1.038
 Vibration    14          0.766              1.470              0.962
 Vibration    15          0.788              1.414              0.872
 Vibration    16          0.797              1.391              0.838
 Vibration    17          0.897              1.158              0.562

 Optimization completed.
    -- Stationary point found.
 Normal termination of Gaussian 16 at Wed Mar  2 04:55:30 2022.

 ------------------------------------------
 #p b3lyp/6-31G(d) geom=allcheck guess=read
 ------------------------------------------

 Structure from the checkpoint file:  "149.n.pdb.xyz.mst.wat.chk"
 -------------
 149.n.pdb.xyz
 -------------
 Charge =  0 Multiplicity = 1

 SCF Done:  E(RB3LYP) =  -1432.99975234     A.U. after   12 cycles
 Normal termination of Gaussian 16 at Wed Mar  2 04:56:57 2022.
 Gaussian 16:  ES64L-G16RevA.03 25-Dec-2016

 ----------------------------------------------------------------------
 #p b3lyp/6-31G(d) scrf=(iefpcm,read,solvent=water) geom=allcheck guess
 =read
 ----------------------------------------------------------------------

 Structure from the checkpoint file:  "149.n.pdb.xyz.mst.wat.chk"
 -------------
 149.n.pdb.xyz
 -------------
 Charge =  0 Multiplicity = 1

                         Standard orientation:
 ---------------------------------------------------------------------
 Center     Atomic      Atomic             Coordinates (Angstroms)
 Number     Number       Type             X           Y           Z
 ---------------------------------------------------------------------
      1          7           0       -4.789355   -1.662532    0.432300
      2          6           0       -3.672594   -0.756163    0.718783
      3          6           0       -3.059150   -0.278540   -0.604445
      4          7           0       -1.952876    0.648313   -0.413812
      5          7           0       -2.197618    1.980544   -0.264659
      6          6           0       -1.032883    2.563648   -0.032726
      7          6           0        0.022721    1.608433   -0.015899
      8          6           0       -0.623510    0.371163   -0.261745
      9          6           0        0.086862   -0.837363   -0.322749
     10          6           0        1.456137   -0.773427   -0.135145
     11         17           0        2.367406   -2.267756   -0.205723
     12          6           0        2.119036    0.460327    0.110476
     13         17           0        3.857019    0.505153    0.346112
     14          6           0        1.413337    1.647507    0.170111
     15          1           0       -5.107211   -2.075049    1.308382
     16          1           0       -5.579478   -1.112556    0.094563
     17          1           0       -2.914846   -1.306338    1.285591
     18          1           0       -3.947805    0.126440    1.316317
     19          1           0       -3.808143    0.240594   -1.206779
     20          1           0       -2.696262   -1.131373   -1.181934
     21          1           0       -0.977653    3.633620    0.107427
     22          1           0       -0.397276   -1.787772   -0.504983
     23          1           0        1.932673    2.578890    0.358013
 ---------------------------------------------------------------------

 SCF Done:  E(RB3LYP) =  -1433.01210977     A.U. after   11 cycles

 The electronic state is 1-A.
 Alpha  occ. eigenvalues -- -101.56215-101.55978 -14.41620 -14.37108 -14.31080
 Alpha  occ. eigenvalues --  -10.27258 -10.26611 -10.24293 -10.22917 -10.22040
 Alpha  occ. eigenvalues --  -10.21950 -10.21826 -10.21096 -10.20773  -9.47830
 Alpha  occ. eigenvalues --   -9.47586  -7.24240  -7.23996  -7.23261  -7.23211
 Alpha  occ. eigenvalues --   -7.23012  -7.22974  -1.05708  -0.91834  -0.88326
 Alpha  occ. eigenvalues --   -0.86496  -0.85137  -0.84571  -0.76465  -0.75459
 Alpha  occ. eigenvalues --   -0.71760  -0.64769  -0.63043  -0.61469  -0.58216
 Alpha  occ. eigenvalues --   -0.53904  -0.51050  -0.49296  -0.48939  -0.47380
 Alpha  occ. eigenvalues --   -0.46471  -0.45676  -0.44106  -0.43184  -0.41527
 Alpha  occ. eigenvalues --   -0.40916  -0.40646  -0.38074  -0.37257  -0.35586
 Alpha  occ. eigenvalues --   -0.35466  -0.33774  -0.32301  -0.31402  -0.30751
 Alpha  occ. eigenvalues --   -0.29640  -0.24770  -0.24351  -0.22708
 Alpha virt. eigenvalues --   -0.04751  -0.00371  -0.00175   0.04115   0.05378
 Alpha virt. eigenvalues --    0.08919   0.10862   0.12282   0.14338   0.14614
 Alpha virt. eigenvalues --    0.15062   0.15938   0.16958   0.17532   0.19039

 Mulliken charges:
               1
     1  N   -0.787784
     2  C   -0.132311
     3  C   -0.149634
     4  N   -0.393262
     5  N   -0.312078
     6  C    0.003750
     7  C    0.035625
     8  C    0.382081
     9  C   -0.139735
    10  C   -0.099932
    11  Cl  -0.005914
    12  C   -0.086770
    13  Cl  -0.014981
    14  C   -0.199248
    15  H    0.343179
    16  H    0.337003
    17  H    0.155244
    18  H    0.141815
    19  H    0.183152
    20  H    0.179080
    21  H    0.179767
    22  H    0.192748
    23  H    0.188205
 Sum of Mulliken charges =  -0.00000

 Dipole moment (field-independent basis, Debye):
    X=             -4.0775    Y=              0.6047    Z=              1.0334  Tot=              4.2497
 Quadrupole moment (field-independent basis, Debye-Ang):
   XX=            -89.3585   YY=            -93.9966   ZZ=            -93.9553
   XY=              7.1876   XZ=             -5.3913   YZ=             -0.8192

 Normal termination of Gaussian 16 at Wed Mar  2 04:58:33 2022.
