 Gaussian 16, Revision A.03,

 ----------------------------------------------------------------------
 #p b3lyp/6-31G(d) opt=(MaxStep=10,MaxCycles=1000) freq scf=(MaxCycle=2
 000,NoVarAcc,NoIncFock) scrf=(iefpcm,read,solvent=water)
 ----------------------------------------------------------------------

 -------------
 150.n.pdb.xyz
 -------------
 Symbolic Z-matrix:
 Charge =  0 Multiplicity = 1

 SCF Done:  E(RB3LYP) =  -1433.01687411     A.U. after   13 cycles
 SCF Done:  E(RB3LYP) =  -1433.02152516     A.U. after   11 cycles
 SCF Done:  E(RB3LYP) =  -1433.02353595     A.U. after   11 cycles
 SCF Done:  E(RB3LYP) =  -1433.02442398     A.U. after   10 cycles
 SCF Done:  E(RB3LYP) =  -1433.02486669     A.U. after   10 cycles
 SCF Done:  E(RB3LYP) =  -1433.02526423     A.U. after   10 cycles
 SCF Done:  E(RB3LYP) =  -1433.02549556     A.U. after   10 cycles
 SCF Done:  E(RB3LYP) =  -1433.02556333     A.U. after   10 cycles
 SCF Done:  E(RB3LYP) =  -1433.02557822     A.U. after    8 cycles
 SCF Done:  E(RB3LYP) =  -1433.02561357     A.U. after    9 cycles
 SCF Done:  E(RB3LYP) =  -1433.02562010     A.U. after    8 cycles
 SCF Done:  E(RB3LYP) =  -1433.02562094     A.U. after    8 cycles
 SCF Done:  E(RB3LYP) =  -1433.02562098     A.U. after    7 cycles
 SCF Done:  E(RB3LYP) =  -1433.02562124     A.U. after    8 cycles
 SCF Done:  E(RB3LYP) =  -1433.02562209     A.U. after    8 cycles
 SCF Done:  E(RB3LYP) =  -1433.02562170     A.U. after    7 cycles
 SCF Done:  E(RB3LYP) =  -1433.02562195     A.U. after    6 cycles
 Optimization completed.
    -- Stationary point found.
 Normal termination of Gaussian 16 at Tue Mar  1 04:36:37 2022.

 --------------------------------------------------------------------
 #P Geom=AllCheck Guess=TCheck SCRF=Check GenChk RB3LYP/6-31G(d) Freq
 --------------------------------------------------------------------

 Structure from the checkpoint file:  "150.n.pdb.xyz.mst.wat.chk"
 -------------
 150.n.pdb.xyz
 -------------
 Charge =  0 Multiplicity = 1

 SCF Done:  E(RB3LYP) =  -1433.02562195     A.U. after    1 cycles

  Exact polarizability: 205.514  -2.887 195.837  23.547   8.435 119.023
 Approx polarizability: 216.974  -3.170 226.490  31.481  12.091 142.146

                      1                      2                      3
                      A                      A                      A
 Frequencies --     26.8941                59.1424                60.9496
 Red. masses --      6.6120                 4.3207                 6.3976
 Frc consts  --      0.0028                 0.0089                 0.0140
 IR Inten    --      0.3814                11.9378                 7.3900

                      4                      5                      6
                      A                      A                      A
 Frequencies --    114.8335               165.4044               196.8723
 Red. masses --      8.8828                 2.1362                12.3372
 Frc consts  --      0.0690                 0.0344                 0.2817
 IR Inten    --      3.7944                10.1010                 4.1974

                      7                      8                      9
                      A                      A                      A
 Frequencies --    204.5419               209.3662               283.5175
 Red. masses --      4.4800                 4.0197                 5.7631
 Frc consts  --      0.1104                 0.1038                 0.2729
 IR Inten    --      2.1992                 7.1550                 1.1622

                     10                     11                     12
                      A                      A                      A
 Frequencies --    313.2248               314.4021               402.7528
 Red. masses --      6.3995                 4.0558                 3.4217
 Frc consts  --      0.3699                 0.2362                 0.3270
 IR Inten    --     13.3535                15.0235                68.8668

                     13                     14                     15
                      A                      A                      A
 Frequencies --    416.8252               450.1186               508.4798
 Red. masses --      4.0835                 2.3650                 4.7043
 Frc consts  --      0.4180                 0.2823                 0.7166
 IR Inten    --     61.7430               144.7860                16.0815

                     16                     17                     18
                      A                      A                      A
 Frequencies --    530.5866               549.3174               570.4977
 Red. masses --      5.6315                 3.5944                 1.8831
 Frc consts  --      0.9341                 0.6390                 0.3611
 IR Inten    --      1.2402                56.4325               215.5709

                     19                     20                     21
                      A                      A                      A
 Frequencies --    657.0517               688.3581               704.9639
 Red. masses --      5.6954                 4.6216                 4.1252
 Frc consts  --      1.4487                 1.2903                 1.2079
 IR Inten    --     11.3309                14.4222                21.7147

                     22                     23                     24
                      A                      A                      A
 Frequencies --    755.4670               777.2753               787.5812
 Red. masses --      3.2138                 8.0067                 1.3312
 Frc consts  --      1.0807                 2.8501                 0.4865
 IR Inten    --     71.3656               115.1865                58.2845

                     25                     26                     27
                      A                      A                      A
 Frequencies --    825.1869               864.5665               889.1628
 Red. masses --      3.9487                 2.8353                 2.3433
 Frc consts  --      1.5842                 1.2486                 1.0915
 IR Inten    --     84.7096                 6.3212                 3.9133

                     28                     29                     30
                      A                      A                      A
 Frequencies --    910.1828               934.9931               985.6591
 Red. masses --      1.3386                 3.3912                 1.2872
 Frc consts  --      0.6534                 1.7467                 0.7368
 IR Inten    --      0.1479                13.2101                 0.9848

                     31                     32                     33
                      A                      A                      A
 Frequencies --   1002.0645              1064.1919              1086.7276
 Red. masses --      3.1896                 2.7268                 5.7082
 Frc consts  --      1.8870                 1.8195                 3.9718
 IR Inten    --     33.8122                 6.3312                37.7609

                     34                     35                     36
                      A                      A                      A
 Frequencies --   1102.2228              1105.6541              1125.0818
 Red. masses --      6.8861                 2.1200                 1.7255
 Frc consts  --      4.9290                 1.5269                 1.2868
 IR Inten    --     58.2722                 4.5606                10.8612

                     37                     38                     39
                      A                      A                      A
 Frequencies --   1181.0232              1217.7009              1223.1739
 Red. masses --      1.2782                 1.1446                 1.6045
 Frc consts  --      1.0505                 1.0000                 1.4143
 IR Inten    --      9.6842                25.5743                25.5426

                     40                     41                     42
                      A                      A                      A
 Frequencies --   1250.6519              1272.8933              1293.4600
 Red. masses --      1.2197                 2.1184                 2.2835
 Frc consts  --      1.1240                 2.0223                 2.2509
 IR Inten    --     10.1473                11.6639                69.0271

                     43                     44                     45
                      A                      A                      A
 Frequencies --   1325.0769              1329.7529              1362.3215
 Red. masses --      4.3389                 1.4671                 1.4650
 Frc consts  --      4.4886                 1.5284                 1.6019
 IR Inten    --     58.3033                23.8246               146.8742

                     46                     47                     48
                      A                      A                      A
 Frequencies --   1447.1526              1477.7916              1496.5798
 Red. masses --      1.5595                 2.1469                 3.5132
 Frc consts  --      1.9243                 2.7624                 4.6361
 IR Inten    --     35.9779               129.2502               109.7017

                     49                     50                     51
                      A                      A                      A
 Frequencies --   1528.5512              1533.9767              1555.8378
 Red. masses --      1.1101                 1.4461                 1.5535
 Frc consts  --      1.5282                 2.0049                 2.2156
 IR Inten    --     14.4490               304.5437               291.9016

                     52                     53                     54
                      A                      A                      A
 Frequencies --   1618.3621              1635.8817              1695.3903
 Red. masses --      5.5473                 6.8629                 6.1210
 Frc consts  --      8.5602                10.8208                10.3660
 IR Inten    --     53.3399                18.6853               448.4091

                     55                     56                     57
                      A                      A                      A
 Frequencies --   3019.0221              3049.9466              3092.3313
 Red. masses --      1.0730                 1.0688                 1.0913
 Frc consts  --      5.7619                 5.8579                 6.1485
 IR Inten    --    108.8424                79.5693                93.9926

                     58                     59                     60
                      A                      A                      A
 Frequencies --   3121.6008              3229.0045              3244.5780
 Red. masses --      1.0994                 1.0880                 1.0923
 Frc consts  --      6.3122                 6.6839                 6.7749
 IR Inten    --     73.1082                 5.4916                 3.8342

                     61                     62                     63
                      A                      A                      A
 Frequencies --   3249.9589              3556.4386              3561.8563
 Red. masses --      1.0967                 1.0765                 1.0771
 Frc consts  --      6.8249                 8.0221                 8.0512
 IR Inten    --      8.3991               101.0249                91.1888

 - Thermochemistry -
 -------------------
 Temperature   298.150 Kelvin.  Pressure   1.00000 Atm.
 Atom     1 has atomic number 17 and mass  34.96885

 Molecular mass:   229.01735 amu.
 Principal axes and moments of inertia in atomic units:
                           1         2         3
     Eigenvalues --  2510.608474020.360755796.35931
           X            0.99967   0.02547   0.00224
           Y           -0.02548   0.99964   0.00891
           Z           -0.00201  -0.00896   0.99996
 This molecule is an asymmetric top.
 Rotational symmetry number  1.
 Warning -- assumption of classical behavior for rotation
           may cause significant error
 Rotational temperatures (Kelvin)      0.03450     0.02154     0.01494
 Rotational constants (GHZ):           0.71885     0.44890     0.31136
 Zero-point vibrational energy     455863.5 (Joules/Mol)
                                  108.95400 (Kcal/Mol)
 Warning -- explicit consideration of  18 degrees of freedom as
           vibrations may cause significant error
 Vibrational temperatures:     38.69    85.09    87.69   165.22   237.98
          (Kelvin)            283.26   294.29   301.23   407.92   450.66
                              452.35   579.47   599.72   647.62   731.59
                              763.40   790.35   820.82   945.35   990.39
                             1014.29  1086.95  1118.33  1133.15  1187.26
                             1243.92  1279.31  1309.55  1345.25  1418.14
                             1441.75  1531.13  1563.56  1585.85  1590.79
                             1618.74  1699.23  1752.00  1759.87  1799.41
                             1831.41  1861.00  1906.49  1913.22  1960.08
                             2082.13  2126.21  2153.24  2199.24  2207.05
                             2238.50  2328.46  2353.67  2439.29  4343.70
                             4388.19  4449.18  4491.29  4645.82  4668.22
                             4675.97  5116.92  5124.72

 Zero-point correction=                           0.173629 (Hartree/Particle)
 Thermal correction to Energy=                    0.186124
 Thermal correction to Enthalpy=                  0.187068
 Thermal correction to Gibbs Free Energy=         0.132912
 Sum of electronic and zero-point Energies=          -1432.851993
 Sum of electronic and thermal Energies=             -1432.839498
 Sum of electronic and thermal Enthalpies=           -1432.838554
 Sum of electronic and thermal Free Energies=        -1432.892710

                     E (Thermal)             CV                S
                      KCal/Mol        Cal/Mol-Kelvin    Cal/Mol-Kelvin
 Total                  116.794             46.653            113.980
 Electronic               0.000              0.000              0.000
 Translational            0.889              2.981             42.188
 Rotational               0.889              2.981             32.437
 Vibrational            115.017             40.692             39.356
 Vibration     1          0.593              1.984              6.046
 Vibration     2          0.597              1.974              4.486
 Vibration     3          0.597              1.973              4.426
 Vibration     4          0.608              1.937              3.186
 Vibration     5          0.624              1.885              2.487
 Vibration     6          0.636              1.844              2.162
 Vibration     7          0.640              1.833              2.092
 Vibration     8          0.642              1.826              2.049
 Vibration     9          0.682              1.704              1.512
 Vibration    10          0.701              1.648              1.345
 Vibration    11          0.702              1.646              1.339
 Vibration    12          0.768              1.464              0.953
 Vibration    13          0.780              1.434              0.903
 Vibration    14          0.809              1.361              0.795
 Vibration    15          0.864              1.231              0.637
 Vibration    16          0.886              1.182              0.586
 Vibration    17          0.905              1.141              0.546
 Vibration    18          0.927              1.095              0.503

 Optimization completed.
    -- Stationary point found.
 Normal termination of Gaussian 16 at Tue Mar  1 04:51:44 2022.

 ------------------------------------------
 #p b3lyp/6-31G(d) geom=allcheck guess=read
 ------------------------------------------

 Structure from the checkpoint file:  "150.n.pdb.xyz.mst.wat.chk"
 -------------
 150.n.pdb.xyz
 -------------
 Charge =  0 Multiplicity = 1

 SCF Done:  E(RB3LYP) =  -1433.00669611     A.U. after   12 cycles
 Normal termination of Gaussian 16 at Tue Mar  1 04:53:08 2022.
 Gaussian 16:  ES64L-G16RevA.03 25-Dec-2016

 ----------------------------------------------------------------------
 #p b3lyp/6-31G(d) scrf=(iefpcm,read,solvent=water) geom=allcheck guess
 =read
 ----------------------------------------------------------------------

 Structure from the checkpoint file:  "150.n.pdb.xyz.mst.wat.chk"
 -------------
 150.n.pdb.xyz
 -------------
 Charge =  0 Multiplicity = 1

                         Standard orientation:
 ---------------------------------------------------------------------
 Center     Atomic      Atomic             Coordinates (Angstroms)
 Number     Number       Type             X           Y           Z
 ---------------------------------------------------------------------
      1         17           0        0.144039    2.638848   -0.576624
      2          6           0        1.185945    1.305308   -0.124265
      3          6           0        2.433978    1.599746    0.416967
      4          6           0        3.307730    0.561276    0.732243
      5          6           0        2.933050   -0.761915    0.512947
      6          6           0        1.670505   -1.031884   -0.006686
      7         17           0        1.205915   -2.709409   -0.246853
      8          6           0        0.757420   -0.015785   -0.339128
      9          7           0       -0.499295   -0.302085   -0.911711
     10          6           0       -1.659929   -0.255934   -0.157441
     11          7           0       -1.747786    0.182980    1.052307
     12          6           0       -3.170889    0.043360    1.417880
     13          6           0       -3.920252   -0.247227    0.093284
     14          7           0       -2.820540   -0.744587   -0.751084
     15          1           0        2.718790    2.632999    0.570849
     16          1           0        4.284583    0.784385    1.145042
     17          1           0        3.601923   -1.579584    0.750287
     18          1           0       -0.497508   -1.019393   -1.630175
     19          1           0       -3.543039    0.944934    1.913946
     20          1           0       -3.288909   -0.788404    2.127858
     21          1           0       -4.711002   -0.992947    0.200173
     22          1           0       -4.358027    0.664775   -0.329911
     23          1           0       -2.908040   -0.583059   -1.750332
 ---------------------------------------------------------------------

 SCF Done:  E(RB3LYP) =  -1433.02377598     A.U. after   11 cycles

 The electronic state is 1-A.
 Alpha  occ. eigenvalues -- -101.56159-101.55637 -14.36512 -14.34152 -14.29266
 Alpha  occ. eigenvalues --  -10.27904 -10.26534 -10.26388 -10.25707 -10.21230
 Alpha  occ. eigenvalues --  -10.21076 -10.21007 -10.20892 -10.20406  -9.47768
 Alpha  occ. eigenvalues --   -9.47244  -7.24162  -7.23649  -7.23204  -7.23163
 Alpha  occ. eigenvalues --   -7.22681  -7.22626  -0.99936  -0.94005  -0.88926
 Alpha  occ. eigenvalues --   -0.87990  -0.84826  -0.83046  -0.76036  -0.73882
 Alpha  occ. eigenvalues --   -0.71952  -0.63167  -0.61866  -0.61040  -0.57350
 Alpha  occ. eigenvalues --   -0.54668  -0.53224  -0.49898  -0.49060  -0.47602
 Alpha  occ. eigenvalues --   -0.45871  -0.44199  -0.43119  -0.41473  -0.40629
 Alpha  occ. eigenvalues --   -0.39116  -0.38985  -0.38219  -0.37343  -0.36893
 Alpha  occ. eigenvalues --   -0.36223  -0.32711  -0.32644  -0.31796  -0.27941
 Alpha  occ. eigenvalues --   -0.26723  -0.25270  -0.24350  -0.21430
 Alpha virt. eigenvalues --   -0.02392  -0.02287   0.00415   0.04924   0.05544
 Alpha virt. eigenvalues --    0.09463   0.11266   0.12144   0.13057   0.13493
 Alpha virt. eigenvalues --    0.16114   0.16740   0.17466   0.17827   0.18321

 Mulliken charges:
               1
     1  Cl  -0.015033
     2  C   -0.081212
     3  C   -0.155187
     4  C   -0.126092
     5  C   -0.152973
     6  C   -0.091197
     7  Cl  -0.017116
     8  C    0.305549
     9  N   -0.741951
    10  C    0.678409
    11  N   -0.565672
    12  C   -0.157124
    13  C   -0.145024
    14  N   -0.642374
    15  H    0.180164
    16  H    0.174579
    17  H    0.181274
    18  H    0.389846
    19  H    0.148296
    20  H    0.145944
    21  H    0.158656
    22  H    0.156477
    23  H    0.371759
 Sum of Mulliken charges =  -0.00000

 Dipole moment (field-independent basis, Debye):
    X=              0.2181    Y=             -0.6972    Z=             -2.9539  Tot=              3.0429
 Quadrupole moment (field-independent basis, Debye-Ang):
   XX=            -70.3121   YY=            -97.5021   ZZ=            -92.0617
   XY=              2.3986   XZ=              8.9167   YZ=              2.5513

 Normal termination of Gaussian 16 at Tue Mar  1 04:54:42 2022.
