 Gaussian 16, Revision A.03,

 ----------------------------------------------------------------------
 #p b3lyp/6-31G(d) opt=(MaxStep=10,MaxCycles=1000) freq scf=(MaxCycle=2
 000,NoVarAcc,NoIncFock) scrf=(iefpcm,read,solvent=water)
 ----------------------------------------------------------------------

 -------------
 151.n.pdb.xyz
 -------------
 Symbolic Z-matrix:
 Charge =  0 Multiplicity = 1

 SCF Done:  E(RB3LYP) =  -789.769187542     A.U. after   11 cycles
 SCF Done:  E(RB3LYP) =  -789.773432103     A.U. after   10 cycles
 SCF Done:  E(RB3LYP) =  -789.775222778     A.U. after   10 cycles
 SCF Done:  E(RB3LYP) =  -789.776186454     A.U. after   10 cycles
 SCF Done:  E(RB3LYP) =  -789.776535408     A.U. after   10 cycles
 SCF Done:  E(RB3LYP) =  -789.776768005     A.U. after   10 cycles
 SCF Done:  E(RB3LYP) =  -789.776754110     A.U. after    9 cycles
 SCF Done:  E(RB3LYP) =  -789.776799978     A.U. after    9 cycles
 SCF Done:  E(RB3LYP) =  -789.776816060     A.U. after    8 cycles
 SCF Done:  E(RB3LYP) =  -789.776832266     A.U. after    8 cycles
 SCF Done:  E(RB3LYP) =  -789.776839992     A.U. after    7 cycles
 SCF Done:  E(RB3LYP) =  -789.776844367     A.U. after    8 cycles
 Optimization completed.
    -- Stationary point found.
 Normal termination of Gaussian 16 at Tue Mar  1 05:43:37 2022.

 --------------------------------------------------------------------
 #P Geom=AllCheck Guess=TCheck SCRF=Check GenChk RB3LYP/6-31G(d) Freq
 --------------------------------------------------------------------

 Structure from the checkpoint file:  "151.n.pdb.xyz.mst.wat.chk"
 -------------
 151.n.pdb.xyz
 -------------
 Charge =  0 Multiplicity = 1

 SCF Done:  E(RB3LYP) =  -789.776844367     A.U. after    1 cycles

  Exact polarizability:  49.464   2.665  43.250   0.313   0.041  41.575
 Approx polarizability:  51.327   3.625  53.160   1.275  -0.034  48.381

                      1                      2                      3
                      A                      A                      A
 Frequencies --     29.9589                47.7059                59.8279
 Red. masses --     11.9415                14.2029                17.4363
 Frc consts  --      0.0063                 0.0190                 0.0368
 IR Inten    --      1.4304                 0.1303                 0.0455

                      4                      5                      6
                      A                      A                      A
 Frequencies --    150.2873               205.3546               273.7203
 Red. masses --     12.4985                14.5633                11.6739
 Frc consts  --      0.1663                 0.3618                 0.5153
 IR Inten    --      4.2488                 6.2886                 1.8662

                      7                      8                      9
                      A                      A                      A
 Frequencies --    322.3436               348.7872               433.2366
 Red. masses --     13.5663                16.3869                13.4601
 Frc consts  --      0.8305                 1.1745                 1.4885
 IR Inten    --      1.7142                 1.3553                 1.9354

                     10                     11                     12
                      A                      A                      A
 Frequencies --    508.8515               521.5529               573.6563
 Red. masses --     13.3405                12.6955                15.2725
 Frc consts  --      2.0352                 2.0347                 2.9612
 IR Inten    --     23.8765                16.1572                 2.9600

                     13                     14                     15
                      A                      A                      A
 Frequencies --    620.6247               687.2523               731.1951
 Red. masses --     11.9252                10.3648                10.8252
 Frc consts  --      2.7063                 2.8843                 3.4100
 IR Inten    --     16.7528                60.8834                 7.6622

                     16                     17                     18
                      A                      A                      A
 Frequencies --    891.4846              1071.7959              1102.4296
 Red. masses --      5.4652                 8.8208                 7.9304
 Frc consts  --      2.5591                 5.9701                 5.6787
 IR Inten    --     47.6268               283.6362               301.4148

                     19                     20                     21
                      A                      A                      A
 Frequencies --   1121.4449              1156.9217              1176.3600
 Red. masses --      6.7459                 7.7746                 5.2813
 Frc consts  --      4.9985                 6.1310                 4.3059
 IR Inten    --    415.1144               534.8664               154.7968

                     22                     23                     24
                      A                      A                      A
 Frequencies --   1198.0636              1218.2577              1307.9401
 Red. masses --      6.2463                11.8910                 2.9643
 Frc consts  --      5.2824                10.3979                 2.9878
 IR Inten    --    217.7702               393.0222               161.5300

                     25                     26                     27
                      A                      A                      A
 Frequencies --   1387.1965              1420.0660              1434.9858
 Red. masses --      1.1151                 1.2226                 1.5261
 Frc consts  --      1.2643                 1.4526                 1.8516
 IR Inten    --     33.0184                69.9231                15.8411

                     28                     29                     30
                      A                      A                      A
 Frequencies --   1488.0807              3137.3126              3163.1992
 Red. masses --      1.6844                 1.0872                 1.0883
 Frc consts  --      2.1975                 6.3048                 6.4158
 IR Inten    --     20.9034                23.2592                47.4913

 - Thermochemistry -
 -------------------
 Temperature   298.150 Kelvin.  Pressure   1.00000 Atm.
 Atom     1 has atomic number  9 and mass  18.99840

 Molecular mass:   168.00098 amu.
 Principal axes and moments of inertia in atomic units:
                           1         2         3
     Eigenvalues --   736.125642333.373572699.04049
           X            0.99998   0.00167  -0.00568
           Y           -0.00164   0.99998   0.00570
           Z            0.00569  -0.00569   0.99997
 This molecule is an asymmetric top.
 Rotational symmetry number  1.
 Warning -- assumption of classical behavior for rotation
           may cause significant error
 Rotational temperatures (Kelvin)      0.11766     0.03712     0.03209
 Rotational constants (GHZ):           2.45168     0.77345     0.66866
 Zero-point vibrational energy     166220.5 (Joules/Mol)
                                   39.72765 (Kcal/Mol)
 Warning -- explicit consideration of  13 degrees of freedom as
           vibrations may cause significant error
 Vibrational temperatures:     43.10    68.64    86.08   216.23   295.46
          (Kelvin)            393.82   463.78   501.83   623.33   732.12
                              750.40   825.36   892.94   988.80  1052.03
                             1282.65  1542.08  1586.15  1613.51  1664.55
                             1692.52  1723.75  1752.80  1881.83  1995.87
                             2043.16  2064.62  2141.02  4513.89  4551.14

 Zero-point correction=                           0.063310 (Hartree/Particle)
 Thermal correction to Energy=                    0.072566
 Thermal correction to Enthalpy=                  0.073510
 Thermal correction to Gibbs Free Energy=         0.026292
 Sum of electronic and zero-point Energies=           -789.713534
 Sum of electronic and thermal Energies=              -789.704279
 Sum of electronic and thermal Enthalpies=            -789.703335
 Sum of electronic and thermal Free Energies=         -789.750552

                     E (Thermal)             CV                S
                      KCal/Mol        Cal/Mol-Kelvin    Cal/Mol-Kelvin
 Total                   45.536             30.831             99.377
 Electronic               0.000              0.000              0.000
 Translational            0.889              2.981             41.264
 Rotational               0.889              2.981             29.918
 Vibrational             43.758             24.870             28.195
 Vibration     1          0.594              1.984              5.832
 Vibration     2          0.595              1.978              4.910
 Vibration     3          0.597              1.973              4.463
 Vibration     4          0.618              1.902              2.669
 Vibration     5          0.640              1.832              2.085
 Vibration     6          0.676              1.722              1.573
 Vibration     7          0.707              1.631              1.298
 Vibration     8          0.726              1.578              1.172
 Vibration     9          0.794              1.398              0.848
 Vibration    10          0.864              1.230              0.636
 Vibration    11          0.877              1.202              0.606
 Vibration    12          0.930              1.088              0.497
 Vibration    13          0.981              0.988              0.416

                           ! Non-Optimized Parameters !
 Normal termination of Gaussian 16 at Tue Mar  1 05:47:01 2022.

 ------------------------------------------
 #p b3lyp/6-31G(d) geom=allcheck guess=read
 ------------------------------------------

 Structure from the checkpoint file:  "151.n.pdb.xyz.mst.wat.chk"
 -------------
 151.n.pdb.xyz
 -------------
 Charge =  0 Multiplicity = 1

 SCF Done:  E(RB3LYP) =  -789.777456833     A.U. after   10 cycles
 Normal termination of Gaussian 16 at Tue Mar  1 05:47:24 2022.
 Gaussian 16:  ES64L-G16RevA.03 25-Dec-2016

 ----------------------------------------------------------------------
 #p b3lyp/6-31G(d) scrf=(iefpcm,read,solvent=water) geom=allcheck guess
 =read
 ----------------------------------------------------------------------

 Structure from the checkpoint file:  "151.n.pdb.xyz.mst.wat.chk"
 -------------
 151.n.pdb.xyz
 -------------
 Charge =  0 Multiplicity = 1

                         Standard orientation:
 ---------------------------------------------------------------------
 Center     Atomic      Atomic             Coordinates (Angstroms)
 Number     Number       Type             X           Y           Z
 ---------------------------------------------------------------------
      1          9           0        2.714077    1.221286    0.130550
      2          6           0        2.003316    0.178309   -0.329554
      3          9           0        2.609413   -0.956422    0.098461
      4          8           0        0.745873    0.284478    0.240949
      5          6           0       -0.259393   -0.434225   -0.386285
      6          9           0       -0.295071   -1.728996    0.074914
      7          6           0       -1.589447    0.221886   -0.012811
      8          9           0       -1.755443    0.260370    1.318158
      9          9           0       -1.637143    1.476996   -0.483750
     10          9           0       -2.605905   -0.472973   -0.545592
     11          1           0        1.974470    0.181276   -1.419468
     12          1           0       -0.137660   -0.455263   -1.470887
 ---------------------------------------------------------------------

 SCF Done:  E(RB3LYP) =  -789.776201724     A.U. after   10 cycles

 The electronic state is 1-A.
 Alpha  occ. eigenvalues --  -24.74325 -24.74316 -24.74244 -24.72732 -24.72113
 Alpha  occ. eigenvalues --  -24.71766 -19.21948 -10.44998 -10.41248 -10.35592
 Alpha  occ. eigenvalues --   -1.32428  -1.28219  -1.23900  -1.23542  -1.23186
 Alpha  occ. eigenvalues --   -1.21369  -1.10420  -0.80058  -0.71203  -0.67416
 Alpha  occ. eigenvalues --   -0.61619  -0.61228  -0.60322  -0.58197  -0.58078
 Alpha  occ. eigenvalues --   -0.56380  -0.53324  -0.47967  -0.47362  -0.46752
 Alpha  occ. eigenvalues --   -0.44926  -0.44519  -0.43563  -0.43437  -0.43266
 Alpha  occ. eigenvalues --   -0.41611  -0.41274  -0.39672  -0.38526  -0.35901
 Alpha  occ. eigenvalues --   -0.35481
 Alpha virt. eigenvalues --    0.08378   0.08527   0.12592   0.13810   0.14784
 Alpha virt. eigenvalues --    0.18614   0.19876   0.22087   0.22856   0.24186
 Alpha virt. eigenvalues --    0.30597   0.44361   0.46046   0.49468   0.50107

 Mulliken charges:
               1
     1  F   -0.266595
     2  C    0.607216
     3  F   -0.275795
     4  O   -0.467962
     5  C    0.301638
     6  F   -0.293007
     7  C    0.790684
     8  F   -0.258596
     9  F   -0.254899
    10  F   -0.259078
    11  H    0.174751
    12  H    0.201644
 Sum of Mulliken charges =  -0.00000

 Dipole moment (field-independent basis, Debye):
    X=              0.3270    Y=              0.2022    Z=             -3.3852  Tot=              3.4070
 Quadrupole moment (field-independent basis, Debye-Ang):
   XX=            -55.7431   YY=            -55.4302   ZZ=            -48.0561
   XY=              0.1118   XZ=             -3.1211   YZ=              0.2515

 Normal termination of Gaussian 16 at Tue Mar  1 05:47:51 2022.
