 Gaussian 16, Revision A.03,

 ----------------------------------------------------------------------
 #p b3lyp/6-31G(d) opt=(MaxStep=10,MaxCycles=1000) freq scf=(MaxCycle=2
 000,NoVarAcc,NoIncFock) scrf=(iefpcm,read,solvent=water)
 ----------------------------------------------------------------------

 -------------
 152.n.pdb.xyz
 -------------
 Symbolic Z-matrix:
 Charge =  0 Multiplicity = 1

 SCF Done:  E(RB3LYP) =  -233.678040387     A.U. after   10 cycles
 SCF Done:  E(RB3LYP) =  -233.678779566     A.U. after    9 cycles
 SCF Done:  E(RB3LYP) =  -233.678895470     A.U. after    8 cycles
 SCF Done:  E(RB3LYP) =  -233.678900664     A.U. after    7 cycles
 Optimization completed.
    -- Stationary point found.
 Normal termination of Gaussian 16 at Tue Mar  1 15:29:11 2022.

 --------------------------------------------------------------------
 #P Geom=AllCheck Guess=TCheck SCRF=Check GenChk RB3LYP/6-31G(d) Freq
 --------------------------------------------------------------------

 Structure from the checkpoint file:  "152.n.pdb.xyz.mst.wat.chk"
 -------------
 152.n.pdb.xyz
 -------------
 Charge =  0 Multiplicity = 1

 SCF Done:  E(RB3LYP) =  -233.678900664     A.U. after    1 cycles

  Exact polarizability:  62.051  -0.119  58.738   1.723  -0.055  60.294
 Approx polarizability:  62.619  -0.139  58.845   0.991  -0.027  64.274

                      1                      2                      3
                      A                      A                      A
 Frequencies --    185.5358               248.1659               256.5278
 Red. masses --      1.0284                 1.0456                 1.0292
 Frc consts  --      0.0209                 0.0379                 0.0399
 IR Inten    --     72.6931               123.1854                 6.5584

                      4                      5                      6
                      A                      A                      A
 Frequencies --    269.9088               324.9631               329.5319
 Red. masses --      1.0360                 2.3876                 2.3778
 Frc consts  --      0.0445                 0.1486                 0.1521
 IR Inten    --      0.0494                 3.2461                 1.8618

                      7                      8                      9
                      A                      A                      A
 Frequencies --    411.8540               451.5792               458.2644
 Red. masses --      2.2073                 2.9595                 2.6085
 Frc consts  --      0.2206                 0.3556                 0.3228
 IR Inten    --      1.1199                14.1214                12.2388

                     10                     11                     12
                      A                      A                      A
 Frequencies --    748.6176               920.3860               928.6412
 Red. masses --      3.7496                 1.6830                 2.0246
 Frc consts  --      1.2381                 0.8400                 1.0287
 IR Inten    --      4.5675                 0.0336                30.5754

                     13                     14                     15
                      A                      A                      A
 Frequencies --    940.3456               971.8301              1040.0279
 Red. masses --      2.1846                 1.2022                 1.3675
 Frc consts  --      1.1381                 0.6690                 0.8715
 IR Inten    --     45.1109                 0.0304                14.4488

                     16                     17                     18
                      A                      A                      A
 Frequencies --   1060.3510              1173.1602              1243.1845
 Red. masses --      1.3952                 1.4755                 2.5155
 Frc consts  --      0.9243                 1.1965                 2.2906
 IR Inten    --      2.9272                94.8370                79.3277

                     19                     20                     21
                      A                      A                      A
 Frequencies --   1266.6922              1388.3882              1421.2422
 Red. masses --      2.7440                 1.4453                 1.2893
 Frc consts  --      2.5941                 1.6414                 1.5344
 IR Inten    --     40.4605                55.0409                14.4845

                     22                     23                     24
                      A                      A                      A
 Frequencies --   1426.6984              1443.6159              1498.6742
 Red. masses --      1.4027                 1.2553                 1.0484
 Frc consts  --      1.6822                 1.5414                 1.3874
 IR Inten    --     31.5009                 2.5558                 0.1951

                     25                     26                     27
                      A                      A                      A
 Frequencies --   1501.1960              1505.5916              1516.2585
 Red. masses --      1.0458                 1.0440                 1.0608
 Frc consts  --      1.3886                 1.3943                 1.4369
 IR Inten    --      0.1203                 0.2548                 3.4177

                     28                     29                     30
                      A                      A                      A
 Frequencies --   1526.3972              1529.8499              3053.2222
 Red. masses --      1.0734                 1.0825                 1.0351
 Frc consts  --      1.4735                 1.4927                 5.6855
 IR Inten    --      0.9343                11.1932                38.8914

                     31                     32                     33
                      A                      A                      A
 Frequencies --   3056.2643              3064.9338              3120.1407
 Red. masses --      1.0351                 1.0364                 1.1025
 Frc consts  --      5.6966                 5.7359                 6.3237
 IR Inten    --     52.0216                 3.6867                 7.4898

                     34                     35                     36
                      A                      A                      A
 Frequencies --   3124.6522              3127.6844              3132.3181
 Red. masses --      1.1016                 1.1034                 1.1030
 Frc consts  --      6.3371                 6.3598                 6.3764
 IR Inten    --    102.3114                19.8458                69.2036

                     37                     38                     39
                      A                      A                      A
 Frequencies --   3132.6546              3141.2317              3736.3502
 Red. masses --      1.1029                 1.1022                 1.0662
 Frc consts  --      6.3770                 6.4079                 8.7695
 IR Inten    --     30.0843                91.8151                50.4147

 - Thermochemistry -
 -------------------
 Temperature   298.150 Kelvin.  Pressure   1.00000 Atm.
 Atom     1 has atomic number  6 and mass  12.00000

 Molecular mass:    74.07317 amu.
 Principal axes and moments of inertia in atomic units:
                           1         2         3
     Eigenvalues --   385.45756 387.34209 402.21534
           X            0.98833  -0.02675   0.14996
           Y            0.02829   0.99957  -0.00811
           Z           -0.14968   0.01226   0.98866
 This molecule is an asymmetric top.
 Rotational symmetry number  1.
 Rotational temperatures (Kelvin)      0.22470     0.22361     0.21534
 Rotational constants (GHZ):           4.68208     4.65930     4.48700
 Zero-point vibrational energy     356947.3 (Joules/Mol)
                                   85.31246 (Kcal/Mol)
 Warning -- explicit consideration of   9 degrees of freedom as
           vibrations may cause significant error
 Vibrational temperatures:    266.94   357.06   369.09   388.34   467.55
          (Kelvin)            474.12   592.57   649.72   659.34  1077.09
                             1324.23  1336.11  1352.95  1398.25  1496.37
                             1525.61  1687.92  1788.67  1822.49  1997.58
                             2044.85  2052.70  2077.04  2156.26  2159.89
                             2166.21  2181.56  2196.15  2201.11  4392.91
                             4397.28  4409.76  4489.19  4495.68  4500.04
                             4506.71  4507.19  4519.53  5375.77

 Zero-point correction=                           0.135954 (Hartree/Particle)
 Thermal correction to Energy=                    0.142830
 Thermal correction to Enthalpy=                  0.143774
 Thermal correction to Gibbs Free Energy=         0.106771
 Sum of electronic and zero-point Energies=           -233.542947
 Sum of electronic and thermal Energies=              -233.536071
 Sum of electronic and thermal Enthalpies=            -233.535127
 Sum of electronic and thermal Free Energies=         -233.572129

                     E (Thermal)             CV                S
                      KCal/Mol        Cal/Mol-Kelvin    Cal/Mol-Kelvin
 Total                   89.627             25.029             77.878
 Electronic               0.000              0.000              0.000
 Translational            0.889              2.981             38.823
 Rotational               0.889              2.981             25.599
 Vibrational             87.850             19.067             13.456
 Vibration     1          0.632              1.860              2.272
 Vibration     2          0.662              1.766              1.744
 Vibration     3          0.666              1.752              1.685
 Vibration     4          0.674              1.729              1.597
 Vibration     5          0.709              1.626              1.285
 Vibration     6          0.712              1.617              1.262
 Vibration     7          0.776              1.444              0.920
 Vibration     8          0.810              1.357              0.791
 Vibration     9          0.816              1.343              0.771

                           ! Non-Optimized Parameters !
 Normal termination of Gaussian 16 at Tue Mar  1 15:31:38 2022.

 ------------------------------------------
 #p b3lyp/6-31G(d) geom=allcheck guess=read
 ------------------------------------------

 Structure from the checkpoint file:  "152.n.pdb.xyz.mst.wat.chk"
 -------------
 152.n.pdb.xyz
 -------------
 Charge =  0 Multiplicity = 1

 SCF Done:  E(RB3LYP) =  -233.670901750     A.U. after   10 cycles
 Normal termination of Gaussian 16 at Tue Mar  1 15:31:55 2022.
 Gaussian 16:  ES64L-G16RevA.03 25-Dec-2016

 ----------------------------------------------------------------------
 #p b3lyp/6-31G(d) scrf=(iefpcm,read,solvent=water) geom=allcheck guess
 =read
 ----------------------------------------------------------------------

 Structure from the checkpoint file:  "152.n.pdb.xyz.mst.wat.chk"
 -------------
 152.n.pdb.xyz
 -------------
 Charge =  0 Multiplicity = 1

                         Standard orientation:
 ---------------------------------------------------------------------
 Center     Atomic      Atomic             Coordinates (Angstroms)
 Number     Number       Type             X           Y           Z
 ---------------------------------------------------------------------
      1          6           0        0.632034   -1.285117   -0.526654
      2          6           0       -0.005576    0.000424    0.015498
      3          6           0        0.715542    1.240250   -0.529330
      4          6           0       -1.497189    0.048040   -0.319417
      5          8           0        0.058281    0.000229    1.455442
      6          1           0        1.691670   -1.336693   -0.253542
      7          1           0        0.128469   -2.163810   -0.112619
      8          1           0        0.564854   -1.331735   -1.617950
      9          1           0        1.775874    1.222243   -0.254064
     10          1           0        0.653245    1.288575   -1.621312
     11          1           0        0.270260    2.151205   -0.117831
     12          1           0       -2.010819   -0.823066    0.098996
     13          1           0       -1.955421    0.950933    0.097273
     14          1           0       -1.651383    0.051525   -1.401997
     15          1           0        0.998132   -0.032593    1.698922
 ---------------------------------------------------------------------

 SCF Done:  E(RB3LYP) =  -233.678064461     A.U. after    9 cycles

 The electronic state is 1-A.
 Alpha  occ. eigenvalues --  -19.13432 -10.23771 -10.16919 -10.16911 -10.16904
 Alpha  occ. eigenvalues --   -1.00765  -0.78148  -0.68631  -0.68504  -0.56142
 Alpha  occ. eigenvalues --   -0.48189  -0.44544  -0.44279  -0.40622  -0.39174
 Alpha  occ. eigenvalues --   -0.37657  -0.36296  -0.34914  -0.34314  -0.31351
 Alpha  occ. eigenvalues --   -0.26261
 Alpha virt. eigenvalues --    0.07612   0.11800   0.13812   0.15439   0.16298
 Alpha virt. eigenvalues --    0.16581   0.17461   0.20147   0.20293   0.22035
 Alpha virt. eigenvalues --    0.22730   0.24565   0.25841   0.25972   0.50788

 Mulliken charges:
               1
     1  C   -0.458710
     2  C    0.305855
     3  C   -0.458472
     4  C   -0.450117
     5  O   -0.687364
     6  H    0.144195
     7  H    0.148250
     8  H    0.148021
     9  H    0.144127
    10  H    0.147861
    11  H    0.148201
    12  H    0.147548
    13  H    0.147389
    14  H    0.150099
    15  H    0.423117
 Sum of Mulliken charges =   0.00000

 Dipole moment (field-independent basis, Debye):
    X=              1.6306    Y=             -0.0612    Z=             -1.1978  Tot=              2.0241
 Quadrupole moment (field-independent basis, Debye-Ang):
   XX=            -30.8085   YY=            -33.2359   ZZ=            -34.1355
   XY=             -0.0811   XZ=              3.2061   YZ=             -0.1128

 Normal termination of Gaussian 16 at Tue Mar  1 15:32:14 2022.
