 Gaussian 16, Revision A.03,

 ----------------------------------------------------------------------
 #p b3lyp/6-31G(d) opt=(MaxStep=10,MaxCycles=1000) freq scf=(MaxCycle=2
 000,NoVarAcc,NoIncFock) scrf=(iefpcm,read,solvent=water)
 ----------------------------------------------------------------------

 -------------
 153.n.pdb.xyz
 -------------
 Symbolic Z-matrix:
 Charge =  0 Multiplicity = 1

 SCF Done:  E(RB3LYP) =  -117.895927169     A.U. after    9 cycles
 SCF Done:  E(RB3LYP) =  -117.896033638     A.U. after    7 cycles
 Optimization completed.
    -- Stationary point found.

 1\1\GINC-PIRINEUS27\FOpt\RB3LYP\6-31G(d)\C3H6\UBATOR01\01-Mar-2022\0\\
 #p b3lyp/6-31G(d) opt=(MaxStep=10,MaxCycles=1000) freq scf=(MaxCycle=2
 000,NoVarAcc,NoIncFock) scrf=(iefpcm,read,solvent=water)\\153.n.pdb.xy
 z\\0,1\C,0.8271351819,-0.2591193121,-0.0842846718\C,-0.638584543,-0.59
 01307182,0.0440812088\C,-0.1881859686,0.8489411059,0.0401983433\H,1.47
 2190447,-0.4584435542,0.7656961482\H,1.3021858401,-0.4100130538,-1.048
 4597337\H,-1.1560432531,-0.9655771887,-0.8331845193\H,-0.9863583013,-1
 .013707684,0.9809723082\H,-0.4006666255,1.4482665869,-0.8395911047\H,-

 Normal termination of Gaussian 16 at Tue Mar  1 17:10:24 2022.

 --------------------------------------------------------------------
 #P Geom=AllCheck Guess=TCheck SCRF=Check GenChk RB3LYP/6-31G(d) Freq
 --------------------------------------------------------------------

 Structure from the checkpoint file:  "153.n.pdb.xyz.mst.wat.chk"
 -------------
 153.n.pdb.xyz
 -------------
 Charge =  0 Multiplicity = 1

 SCF Done:  E(RB3LYP) =  -117.896033638     A.U. after    1 cycles

  Exact polarizability:  37.561  -0.005  37.556  -0.002   0.001  36.847
 Approx polarizability:  38.957  -0.001  38.950  -0.002   0.001  38.459

                      1                      2                      3
                      A                      A                      A
 Frequencies --    746.1529               748.1404               871.4350
 Red. masses --      1.0215                 1.0210                 1.0445
 Frc consts  --      0.3351                 0.3367                 0.4674
 IR Inten    --      0.0018                 0.0001                 1.6937

                      4                      5                      6
                      A                      A                      A
 Frequencies --    885.9044               886.8598              1065.1323
 Red. masses --      3.1533                 3.1690                 1.3508
 Frc consts  --      1.4581                 1.4685                 0.9029
 IR Inten    --     30.6170                30.3684                11.0255

                      7                      8                      9
                      A                      A                      A
 Frequencies --   1069.5101              1095.6814              1169.2347
 Red. masses --      1.3403                 1.4260                 1.0079
 Frc consts  --      0.9033                 1.0086                 0.8118
 IR Inten    --     11.2471                 0.1078                 0.0004

                     10                     11                     12
                      A                      A                      A
 Frequencies --   1220.8047              1220.9826              1227.5865
 Red. masses --      1.4510                 1.4503                 2.5943
 Frc consts  --      1.2741                 1.2739                 2.3034
 IR Inten    --      0.0002                 0.0005                 0.0000

                     13                     14                     15
                      A                      A                      A
 Frequencies --   1493.8311              1499.3870              1539.8371
 Red. masses --      1.0918                 1.0894                 1.3451
 Frc consts  --      1.4355                 1.4430                 1.8792
 IR Inten    --      0.4703                 0.4729                 0.0021

                     16                     17                     18
                      A                      A                      A
 Frequencies --   3155.5250              3157.0744              3165.4264
 Red. masses --      1.0509                 1.0508                 1.0628
 Frc consts  --      6.1654                 6.1709                 6.2746
 IR Inten    --     44.6575                45.0468                 0.4795

                     19                     20                     21
                      A                      A                      A
 Frequencies --   3231.3717              3232.7004              3249.3661
 Red. masses --      1.1197                 1.1197                 1.1156
 Frc consts  --      6.8887                 6.8940                 6.9402
 IR Inten    --      0.0933                 0.0835                66.4873

 - Thermochemistry -
 -------------------
 Temperature   298.150 Kelvin.  Pressure   1.00000 Atm.
 Atom     1 has atomic number  6 and mass  12.00000

 Molecular mass:    42.04695 amu.
 Principal axes and moments of inertia in atomic units:
                           1         2         3
     Eigenvalues --    89.67451  89.69672 143.49947
           X            0.99765   0.06850  -0.00002
           Y           -0.06850   0.99765   0.00000
           Z            0.00002   0.00000   1.00000
 This molecule is an asymmetric top.
 Rotational symmetry number  1.
 Rotational temperatures (Kelvin)      0.96587     0.96563     0.60358
 Rotational constants (GHZ):          20.12547    20.12048    12.57664
 Zero-point vibrational energy     214920.8 (Joules/Mol)
                                   51.36729 (Kcal/Mol)
 Vibrational temperatures:   1073.55  1076.41  1253.80  1274.62  1275.99
          (Kelvin)           1532.49  1538.79  1576.44  1682.27  1756.47
                             1756.72  1766.22  2149.29  2157.28  2215.48
                             4540.10  4542.33  4554.34  4649.22  4651.13
                             4675.11

 Zero-point correction=                           0.081859 (Hartree/Particle)
 Thermal correction to Energy=                    0.085217
 Thermal correction to Enthalpy=                  0.086161
 Thermal correction to Gibbs Free Energy=         0.057573
 Sum of electronic and zero-point Energies=           -117.814175
 Sum of electronic and thermal Energies=              -117.810817
 Sum of electronic and thermal Enthalpies=            -117.809873
 Sum of electronic and thermal Free Energies=         -117.838461

                     E (Thermal)             CV                S
                      KCal/Mol        Cal/Mol-Kelvin    Cal/Mol-Kelvin
 Total                   53.474             10.939             60.168
 Electronic               0.000              0.000              0.000
 Translational            0.889              2.981             37.135
 Rotational               0.889              2.981             21.673
 Vibrational             51.697              4.977              1.360

 Optimization completed.
    -- Stationary point found.

 1\1\GINC-PIRINEUS27\Freq\RB3LYP\6-31G(d)\C3H6\UBATOR01\01-Mar-2022\0\\
 #P Geom=AllCheck Guess=TCheck SCRF=Check GenChk RB3LYP/6-31G(d) Freq\\
 153.n.pdb.xyz\\0,1\C,0.8271351819,-0.2591193121,-0.0842846718\C,-0.638
 584543,-0.5901307182,0.0440812088\C,-0.1881859686,0.8489411059,0.04019
 83433\H,1.472190447,-0.4584435542,0.7656961482\H,1.3021858401,-0.41001
 30538,-1.0484597337\H,-1.1560432531,-0.9655771887,-0.8331845193\H,-0.9
 863583013,-1.013707684,0.9809723082\H,-0.4006666255,1.4482665869,-0.83
 95911047\H,-0.2306727775,1.3997838182,0.9745720209\\Version=ES64L-G16R

 Normal termination of Gaussian 16 at Tue Mar  1 17:11:03 2022.

 ------------------------------------------
 #p b3lyp/6-31G(d) geom=allcheck guess=read
 ------------------------------------------

 Structure from the checkpoint file:  "153.n.pdb.xyz.mst.wat.chk"
 -------------
 153.n.pdb.xyz
 -------------
 Charge =  0 Multiplicity = 1

 SCF Done:  E(RB3LYP) =  -117.895190691     A.U. after    8 cycles
 Normal termination of Gaussian 16 at Tue Mar  1 17:11:09 2022.
 Gaussian 16:  ES64L-G16RevA.03 25-Dec-2016

 ----------------------------------------------------------------------
 #p b3lyp/6-31G(d) scrf=(iefpcm,read,solvent=water) geom=allcheck guess
 =read
 ----------------------------------------------------------------------

 Structure from the checkpoint file:  "153.n.pdb.xyz.mst.wat.chk"
 -------------
 153.n.pdb.xyz
 -------------
 Charge =  0 Multiplicity = 1

                         Standard orientation:
 ---------------------------------------------------------------------
 Center     Atomic      Atomic             Coordinates (Angstroms)
 Number     Number       Type             X           Y           Z
 ---------------------------------------------------------------------
      1          6           0       -0.801771    0.339608   -0.000029
      2          6           0        0.694957    0.524496    0.000026
      3          6           0        0.106814   -0.863988    0.000005
      4          1           0       -1.344899    0.569375    0.911296
      5          1           0       -1.344624    0.569165   -0.911451
      6          1           0        1.165651    0.879657   -0.911361
      7          1           0        1.165663    0.879538    0.911350
      8          1           0        0.179235   -1.449347   -0.911301
      9          1           0        0.178976   -1.449086    0.911454
 ---------------------------------------------------------------------

 SCF Done:  E(RB3LYP) =  -117.895975353     A.U. after    7 cycles

 The electronic state is 1-A.
 Alpha  occ. eigenvalues --  -10.18264 -10.18227 -10.18227  -0.84372  -0.59331
 Alpha  occ. eigenvalues --   -0.59326  -0.48849  -0.46164  -0.35993  -0.35989
 Alpha  occ. eigenvalues --   -0.29001  -0.28997
 Alpha virt. eigenvalues --    0.10763   0.11193   0.15323   0.15748   0.15751
 Alpha virt. eigenvalues --    0.23457   0.23459   0.26079   0.26084   0.47587
 Alpha virt. eigenvalues --    0.54804   0.56080   0.56087   0.63271   0.63280

 Mulliken charges:
               1
     1  C   -0.320031
     2  C   -0.320017
     3  C   -0.319995
     4  H    0.159990
     5  H    0.160036
     6  H    0.160004
     7  H    0.160032
     8  H    0.159992
     9  H    0.159990
 Sum of Mulliken charges =  -0.00000

 Dipole moment (field-independent basis, Debye):
    X=              0.0002    Y=             -0.0006    Z=             -0.0002  Tot=              0.0006
 Quadrupole moment (field-independent basis, Debye-Ang):
   XX=            -20.2963   YY=            -20.2995   ZZ=            -18.0300
   XY=              0.0005   XZ=             -0.0001   YZ=              0.0002

 Normal termination of Gaussian 16 at Tue Mar  1 17:11:16 2022.
