 Gaussian 16, Revision A.03,

 ----------------------------------------------------------------------
 #p b3lyp/6-31G(d) opt=(MaxStep=10,MaxCycles=1000) freq scf=(MaxCycle=2
 000,NoVarAcc,NoIncFock) scrf=(iefpcm,read,solvent=water)
 ----------------------------------------------------------------------

 -------------
 154.n.pdb.xyz
 -------------
 Symbolic Z-matrix:
 Charge =  0 Multiplicity = 1

 SCF Done:  E(RB3LYP) =  -802.143505321     A.U. after   13 cycles
 SCF Done:  E(RB3LYP) =  -802.147225181     A.U. after   11 cycles
 SCF Done:  E(RB3LYP) =  -802.145147566     A.U. after   11 cycles
 SCF Done:  E(RB3LYP) =  -802.148373046     A.U. after   11 cycles
 SCF Done:  E(RB3LYP) =  -802.148268365     A.U. after   11 cycles
 SCF Done:  E(RB3LYP) =  -802.148519314     A.U. after   10 cycles
 SCF Done:  E(RB3LYP) =  -802.148765047     A.U. after   10 cycles
 SCF Done:  E(RB3LYP) =  -802.147725373     A.U. after   12 cycles
 SCF Done:  E(RB3LYP) =  -802.148953162     A.U. after   11 cycles
 SCF Done:  E(RB3LYP) =  -802.149044436     A.U. after   10 cycles
 SCF Done:  E(RB3LYP) =  -802.149105119     A.U. after    8 cycles
 SCF Done:  E(RB3LYP) =  -802.149111281     A.U. after    8 cycles
 SCF Done:  E(RB3LYP) =  -802.149107452     A.U. after    8 cycles
 SCF Done:  E(RB3LYP) =  -802.149108286     A.U. after    7 cycles
 SCF Done:  E(RB3LYP) =  -802.149111529     A.U. after    8 cycles
 SCF Done:  E(RB3LYP) =  -802.149107007     A.U. after    8 cycles
 SCF Done:  E(RB3LYP) =  -802.149107582     A.U. after    6 cycles
 Optimization completed on the basis of negligible forces.
    -- Stationary point found.
 Normal termination of Gaussian 16 at Tue Mar  1 21:55:56 2022.

 --------------------------------------------------------------------
 #P Geom=AllCheck Guess=TCheck SCRF=Check GenChk RB3LYP/6-31G(d) Freq
 --------------------------------------------------------------------

 Structure from the checkpoint file:  "154.n.pdb.xyz.mst.wat.chk"
 -------------
 154.n.pdb.xyz
 -------------
 Charge =  0 Multiplicity = 1

 SCF Done:  E(RB3LYP) =  -802.149107582     A.U. after    1 cycles

  Exact polarizability: 225.712  -6.698 174.957 -30.191  -6.054 164.309
 Approx polarizability: 240.739  -7.003 196.789 -40.198 -11.813 179.973

                      1                      2                      3
                      A                      A                      A
 Frequencies --     27.1274                48.9176                62.1978
 Red. masses --      8.0818                 3.1521                 3.4400
 Frc consts  --      0.0035                 0.0044                 0.0078
 IR Inten    --      1.9150                 0.1672                 0.4276

                      4                      5                      6
                      A                      A                      A
 Frequencies --     77.8453               103.6348               146.7808
 Red. masses --      1.8054                 1.7198                 6.6715
 Frc consts  --      0.0064                 0.0109                 0.0847
 IR Inten    --      1.7275                 0.0749                17.2154

                      7                      8                      9
                      A                      A                      A
 Frequencies --    158.4704               163.3128               223.7035
 Red. masses --      5.7876                 2.8223                 3.4476
 Frc consts  --      0.0856                 0.0443                 0.1017
 IR Inten    --      1.6134                 1.6594                 2.2556

                     10                     11                     12
                      A                      A                      A
 Frequencies --    245.9867               265.7257               278.5714
 Red. masses --      2.2062                 2.6720                 4.9123
 Frc consts  --      0.0787                 0.1112                 0.2246
 IR Inten    --      1.2979                 1.6521                13.4415

                     13                     14                     15
                      A                      A                      A
 Frequencies --    289.1055               295.0837               319.4064
 Red. masses --      3.0113                 1.1549                 1.8481
 Frc consts  --      0.1483                 0.0593                 0.1111
 IR Inten    --      2.2191                 0.6901                 2.5633

                     16                     17                     18
                      A                      A                      A
 Frequencies --    351.2658               398.5206               401.6337
 Red. masses --      3.5936                 6.5677                 6.2951
 Frc consts  --      0.2612                 0.6146                 0.5983
 IR Inten    --      8.0078                37.1288                47.4498

                     19                     20                     21
                      A                      A                      A
 Frequencies --    419.2972               457.4032               462.0758
 Red. masses --      6.4728                 2.6348                 6.1963
 Frc consts  --      0.6705                 0.3248                 0.7795
 IR Inten    --     15.4637                10.4327                 5.6609

                     22                     23                     24
                      A                      A                      A
 Frequencies --    504.1687               524.9037               575.5007
 Red. masses --      3.3956                 4.3660                 4.4737
 Frc consts  --      0.5085                 0.7087                 0.8730
 IR Inten    --     18.7497                11.5420                33.6764

                     25                     26                     27
                      A                      A                      A
 Frequencies --    653.2128               677.2612               729.9738
 Red. masses --      4.3633                 1.2461                 3.7912
 Frc consts  --      1.0969                 0.3368                 1.1902
 IR Inten    --     14.3499               133.8052                 3.1818

                     28                     29                     30
                      A                      A                      A
 Frequencies --    739.4508               747.6127               761.9162
 Red. masses --      3.3585                 8.4441                 6.4766
 Frc consts  --      1.0820                 2.7807                 2.2152
 IR Inten    --     29.3863                63.9264                 1.3269

                     31                     32                     33
                      A                      A                      A
 Frequencies --    770.6081               809.1298               823.6409
 Red. masses --      5.2614                 3.2961                 1.3148
 Frc consts  --      1.8408                 1.2714                 0.5255
 IR Inten    --      6.3583                10.9433                 7.7454

                     34                     35                     36
                      A                      A                      A
 Frequencies --    855.7566               877.1897               922.1396
 Red. masses --      2.3064                 1.9105                 2.4552
 Frc consts  --      0.9951                 0.8661                 1.2301
 IR Inten    --      5.0867                 2.1331                 8.2996

                     37                     38                     39
                      A                      A                      A
 Frequencies --    939.7931               952.3658               958.8221
 Red. masses --      2.0643                 1.3492                 2.5435
 Frc consts  --      1.0742                 0.7210                 1.3777
 IR Inten    --      4.0034                 5.9686                 6.9049

                     40                     41                     42
                      A                      A                      A
 Frequencies --    986.2135              1042.6067              1061.7558
 Red. masses --      2.2078                 2.9922                 2.0332
 Frc consts  --      1.2652                 1.9164                 1.3504
 IR Inten    --      8.1684                 9.7476                70.2489

                     43                     44                     45
                      A                      A                      A
 Frequencies --   1081.0413              1093.2735              1108.6964
 Red. masses --      2.0912                 1.6953                 1.8933
 Frc consts  --      1.4399                 1.1939                 1.3712
 IR Inten    --     32.1064                 4.2382                 0.9639

                     46                     47                     48
                      A                      A                      A
 Frequencies --   1142.7261              1165.4821              1168.3232
 Red. masses --      2.4392                 1.3934                 1.3241
 Frc consts  --      1.8767                 1.1152                 1.0649
 IR Inten    --      7.7176                 3.7434                14.2250

                     49                     50                     51
                      A                      A                      A
 Frequencies --   1182.4729              1211.6880              1216.0776
 Red. masses --      2.2486                 1.5360                 3.9264
 Frc consts  --      1.8524                 1.3287                 3.4211
 IR Inten    --     12.3296                 2.4936                41.2495

                     52                     53                     54
                      A                      A                      A
 Frequencies --   1228.6615              1278.4477              1304.9790
 Red. masses --      3.3689                 1.2712                 1.7280
 Frc consts  --      2.9964                 1.2241                 1.7338
 IR Inten    --    164.1175                 2.2654                79.4867

                     55                     56                     57
                      A                      A                      A
 Frequencies --   1306.1235              1358.6609              1373.7502
 Red. masses --      1.8824                 1.2960                 2.4666
 Frc consts  --      1.8921                 1.4095                 2.7426
 IR Inten    --     43.5233                32.4969               479.5907

                     58                     59                     60
                      A                      A                      A
 Frequencies --   1383.4745              1390.3241              1398.4371
 Red. masses --      1.4610                 1.7772                 1.5272
 Frc consts  --      1.6476                 2.0241                 1.7597
 IR Inten    --     33.7581                 2.2171                 8.4264

                     61                     62                     63
                      A                      A                      A
 Frequencies --   1414.2021              1417.6973              1418.5171
 Red. masses --      1.3725                 1.4798                 3.4076
 Frc consts  --      1.6173                 1.7524                 4.0398
 IR Inten    --     85.4295                 6.4312               420.9363

                     64                     65                     66
                      A                      A                      A
 Frequencies --   1455.7712              1476.4820              1493.2684
 Red. masses --      1.6822                 1.6748                 1.0930
 Frc consts  --      2.1005                 2.1512                 1.4360
 IR Inten    --     36.9844               310.2863                 0.7585

                     67                     68                     69
                      A                      A                      A
 Frequencies --   1498.8956              1508.3614              1511.1734
 Red. masses --      1.0821                 1.0918                 1.0809
 Frc consts  --      1.4323                 1.4635                 1.4543
 IR Inten    --      5.3328                 4.2634                18.9424

                     70                     71                     72
                      A                      A                      A
 Frequencies --   1514.1138              1516.0025              1518.7022
 Red. masses --      1.0676                 1.0609                 1.1029
 Frc consts  --      1.4421                 1.4366                 1.4987
 IR Inten    --     24.7192                23.3026                 3.8587

                     73                     74                     75
                      A                      A                      A
 Frequencies --   1528.3524              1732.2724              1743.3022
 Red. masses --      1.0878                12.2959                 6.9062
 Frc consts  --      1.4971                21.7392                12.3662
 IR Inten    --     56.1161               940.2913                 9.1121

                     76                     77                     78
                      A                      A                      A
 Frequencies --   1760.7616              1810.6043              3022.0371
 Red. masses --      7.9525                11.9296                 1.0680
 Frc consts  --     14.5263                23.0422                 5.7465
 IR Inten    --   1074.4064                62.5162                63.4912

                     79                     80                     81
                      A                      A                      A
 Frequencies --   3025.6579              3045.4741              3049.0588
 Red. masses --      1.0694                 1.0691                 1.0628
 Frc consts  --      5.7680                 5.8424                 5.8216
 IR Inten    --     48.8253                32.8681                38.8446

                     82                     83                     84
                      A                      A                      A
 Frequencies --   3068.1107              3070.2243              3086.4463
 Red. masses --      1.0899                 1.0910                 1.0343
 Frc consts  --      6.0448                 6.0594                 5.8052
 IR Inten    --    137.4886                18.7540                18.2342

                     85                     86                     87
                      A                      A                      A
 Frequencies --   3091.2827              3100.5757              3112.7061
 Red. masses --      1.1013                 1.1003                 1.0344
 Frc consts  --      6.2008                 6.2323                 5.9046
 IR Inten    --     98.9948                99.7429                33.0576

                     88                     89                     90
                      A                      A                      A
 Frequencies --   3162.3572              3181.1122              3183.4549
 Red. masses --      1.1028                 1.1048                 1.1061
 Frc consts  --      6.4978                 6.5873                 6.6043
 IR Inten    --     23.4634                10.8448                18.2187

                     91                     92                     93
                      A                      A                      A
 Frequencies --   3202.6569              3235.0513              3558.8308
 Red. masses --      1.0886                 1.1032                 1.0784
 Frc consts  --      6.5788                 6.8025                 8.0472
 IR Inten    --     26.0077                 1.3075               185.9353

 - Thermochemistry -
 -------------------
 Temperature   298.150 Kelvin.  Pressure   1.00000 Atm.
 Atom     1 has atomic number  6 and mass  12.00000

 Molecular mass:   236.11609 amu.
 Principal axes and moments of inertia in atomic units:
                           1         2         3
     Eigenvalues --  2145.290255388.607645825.55696
           X            0.99992  -0.00725   0.01051
           Y            0.00634   0.99643   0.08413
           Z           -0.01108  -0.08406   0.99640
 This molecule is an asymmetric top.
 Rotational symmetry number  1.
 Warning -- assumption of classical behavior for rotation
           may cause significant error
 Rotational temperatures (Kelvin)      0.04037     0.01607     0.01487
 Rotational constants (GHZ):           0.84126     0.33492     0.30980
 Zero-point vibrational energy     723837.9 (Joules/Mol)
                                  173.00141 (Kcal/Mol)
 Warning -- explicit consideration of  24 degrees of freedom as
           vibrations may cause significant error
 Vibrational temperatures:     39.03    70.38    89.49   112.00   149.11
          (Kelvin)            211.18   228.00   234.97   321.86   353.92
                              382.32   400.80   415.96   424.56   459.55
                              505.39   573.38   577.86   603.28   658.10
                              664.82   725.39   755.22   828.02   939.83
                              974.43  1050.27  1063.90  1075.65  1096.23
                             1108.73  1164.16  1185.04  1231.24  1262.08
                             1326.75  1352.15  1370.24  1379.53  1418.94
                             1500.08  1527.63  1555.38  1572.98  1595.17
                             1644.13  1676.87  1680.96  1701.31  1743.35
                             1749.66  1767.77  1839.40  1877.57  1879.22
                             1954.81  1976.52  1990.51  2000.37  2012.04
                             2034.72  2039.75  2040.93  2094.53  2124.33
                             2148.48  2156.58  2170.20  2174.24  2178.47
                             2181.19  2185.07  2198.96  2492.35  2508.22
                             2533.34  2605.06  4348.04  4353.25  4381.76
                             4386.92  4414.33  4417.37  4440.71  4447.67
                             4461.04  4478.49  4549.93  4576.91  4580.28
                             4607.91  4654.52  5120.36

 Zero-point correction=                           0.275695 (Hartree/Particle)
 Thermal correction to Energy=                    0.291660
 Thermal correction to Enthalpy=                  0.292605
 Thermal correction to Gibbs Free Energy=         0.231858
 Sum of electronic and zero-point Energies=           -801.873412
 Sum of electronic and thermal Energies=              -801.857447
 Sum of electronic and thermal Enthalpies=            -801.856503
 Sum of electronic and thermal Free Energies=         -801.917250

                     E (Thermal)             CV                S
                      KCal/Mol        Cal/Mol-Kelvin    Cal/Mol-Kelvin
 Total                  183.020             60.839            127.853
 Electronic               0.000              0.000              0.000
 Translational            0.889              2.981             42.279
 Rotational               0.889              2.981             32.576
 Vibrational            181.242             54.877             52.997
 Vibration     1          0.593              1.984              6.029
 Vibration     2          0.595              1.978              4.861
 Vibration     3          0.597              1.972              4.386
 Vibration     4          0.599              1.964              3.944
 Vibration     5          0.605              1.946              3.385
 Vibration     6          0.617              1.906              2.714
 Vibration     7          0.621              1.893              2.568
 Vibration     8          0.623              1.887              2.511
 Vibration     9          0.649              1.805              1.929
 Vibration    10          0.660              1.769              1.759
 Vibration    11          0.672              1.736              1.624
 Vibration    12          0.679              1.713              1.542
 Vibration    13          0.686              1.694              1.479
 Vibration    14          0.689              1.683              1.445
 Vibration    15          0.705              1.636              1.313
 Vibration    16          0.728              1.573              1.161
 Vibration    17          0.765              1.473              0.968
 Vibration    18          0.767              1.467              0.957
 Vibration    19          0.782              1.428              0.894
 Vibration    20          0.816              1.345              0.774
 Vibration    21          0.820              1.334              0.760
 Vibration    22          0.859              1.241              0.648
 Vibration    23          0.880              1.195              0.599
 Vibration    24          0.932              1.084              0.494

 Optimization completed on the basis of negligible forces.
    -- Stationary point found.
 Normal termination of Gaussian 16 at Tue Mar  1 22:31:34 2022.

 ------------------------------------------
 #p b3lyp/6-31G(d) geom=allcheck guess=read
 ------------------------------------------

 Structure from the checkpoint file:  "154.n.pdb.xyz.mst.wat.chk"
 -------------
 154.n.pdb.xyz
 -------------
 Charge =  0 Multiplicity = 1

 SCF Done:  E(RB3LYP) =  -802.131621064     A.U. after   12 cycles
 Normal termination of Gaussian 16 at Tue Mar  1 22:34:16 2022.
 Gaussian 16:  ES64L-G16RevA.03 25-Dec-2016

 ----------------------------------------------------------------------
 #p b3lyp/6-31G(d) scrf=(iefpcm,read,solvent=water) geom=allcheck guess
 =read
 ----------------------------------------------------------------------

 Structure from the checkpoint file:  "154.n.pdb.xyz.mst.wat.chk"
 -------------
 154.n.pdb.xyz
 -------------
 Charge =  0 Multiplicity = 1

                         Standard orientation:
 ---------------------------------------------------------------------
 Center     Atomic      Atomic             Coordinates (Angstroms)
 Number     Number       Type             X           Y           Z
 ---------------------------------------------------------------------
      1          6           0        3.018669   -2.007454    0.070155
      2          7           0        2.200638   -0.789742    0.042337
      3          6           0        2.705899    0.329879   -0.616943
      4          8           0        3.804244    0.344020   -1.148614
      5          7           0        1.884331    1.444642   -0.645774
      6          6           0        0.623713    1.584836   -0.113069
      7          8           0       -0.010210    2.617402   -0.265070
      8          6           0        0.089443    0.411656    0.710960
      9          6           0        0.148554    0.865769    2.192532
     10          6           0        0.945728   -0.857271    0.625367
     11          8           0        0.554466   -1.909072    1.109437
     12          6           0       -1.321982    0.072177    0.222578
     13          6           0       -2.402318    0.191874    1.002501
     14          6           0       -3.808741   -0.105924    0.548988
     15          6           0       -3.921524   -0.249973   -0.973522
     16          6           0       -2.758693   -1.079998   -1.522167
     17          6           0       -1.415921   -0.407653   -1.213110
     18          1           0        4.013049   -1.750576   -0.281678
     19          1           0        3.059504   -2.386276    1.090856
     20          1           0        2.580355   -2.768820   -0.575778
     21          1           0        2.258196    2.238396   -1.160961
     22          1           0       -0.454997    1.764365    2.325984
     23          1           0        1.177138    1.087687    2.487139
     24          1           0       -0.236397    0.072895    2.835000
     25          1           0       -2.289629    0.519492    2.031405
     26          1           0       -4.478877    0.683610    0.910236
     27          1           0       -4.152110   -1.027055    1.041770
     28          1           0       -4.881084   -0.704450   -1.238021
     29          1           0       -3.902586    0.744889   -1.436179
     30          1           0       -2.777597   -2.075665   -1.062532
     31          1           0       -2.859809   -1.226911   -2.603245
     32          1           0       -1.259835    0.442993   -1.892939
     33          1           0       -0.595070   -1.105170   -1.418640
 ---------------------------------------------------------------------

 SCF Done:  E(RB3LYP) =  -802.146701646     A.U. after   11 cycles

 The electronic state is 1-A.
 Alpha  occ. eigenvalues --  -19.14831 -19.14779 -19.14647 -14.40500 -14.39461
 Alpha  occ. eigenvalues --  -10.35252 -10.32017 -10.31833 -10.23476 -10.22116
 Alpha  occ. eigenvalues --  -10.19717 -10.19489 -10.18614 -10.18373 -10.18267
 Alpha  occ. eigenvalues --  -10.17863 -10.17696  -1.09279  -1.06421  -1.06067
 Alpha  occ. eigenvalues --   -0.96846  -0.93598  -0.85161  -0.81018  -0.74306
 Alpha  occ. eigenvalues --   -0.73661  -0.72835  -0.69462  -0.66358  -0.64075
 Alpha  occ. eigenvalues --   -0.62115  -0.59438  -0.57465  -0.54872  -0.50945
 Alpha  occ. eigenvalues --   -0.50566  -0.48581  -0.47734  -0.46683  -0.45638
 Alpha  occ. eigenvalues --   -0.45367  -0.44543  -0.44239  -0.43331  -0.42446
 Alpha  occ. eigenvalues --   -0.42364  -0.40745  -0.40516  -0.39355  -0.38394
 Alpha  occ. eigenvalues --   -0.37686  -0.37555  -0.37387  -0.35877  -0.32551
 Alpha  occ. eigenvalues --   -0.31776  -0.31050  -0.30537  -0.29741  -0.29480
 Alpha  occ. eigenvalues --   -0.28582  -0.26511  -0.24344
 Alpha virt. eigenvalues --   -0.04416  -0.00629   0.02353   0.05922   0.09003
 Alpha virt. eigenvalues --    0.10879   0.11544   0.12687   0.12841   0.13965
 Alpha virt. eigenvalues --    0.14584   0.15376   0.16270   0.16498   0.17006

 Mulliken charges:
               1
     1  C   -0.320784
     2  N   -0.520815
     3  C    0.809525
     4  O   -0.535451
     5  N   -0.677987
     6  C    0.663005
     7  O   -0.536976
     8  C   -0.204552
     9  C   -0.469936
    10  C    0.648300
    11  O   -0.538469
    12  C    0.218021
    13  C   -0.205750
    14  C   -0.300542
    15  C   -0.267100
    16  C   -0.267840
    17  C   -0.347539
    18  H    0.198098
    19  H    0.190466
    20  H    0.190175
    21  H    0.408271
    22  H    0.184853
    23  H    0.176792
    24  H    0.184958
    25  H    0.140151
    26  H    0.151560
    27  H    0.155004
    28  H    0.139193
    29  H    0.140390
    30  H    0.142207
    31  H    0.139907
    32  H    0.160108
    33  H    0.152756
 Sum of Mulliken charges =  -0.00000

 Dipole moment (field-independent basis, Debye):
    X=             -0.0473    Y=             -0.2755    Z=              0.2666  Tot=              0.3863
 Quadrupole moment (field-independent basis, Debye-Ang):
   XX=            -99.8263   YY=           -106.8726   ZZ=            -96.3108
   XY=              1.1669   XZ=              4.1191   YZ=              4.2685

 Normal termination of Gaussian 16 at Tue Mar  1 22:37:11 2022.
