 Gaussian 16, Revision A.03,

 ----------------------------------------------------------------------
 #p b3lyp/6-31G(d) opt=(MaxStep=10,MaxCycles=1000) freq scf=(MaxCycle=2
 000,NoVarAcc,NoIncFock) scrf=(iefpcm,read,solvent=water)
 ----------------------------------------------------------------------

 -------------
 155.n.pdb.xyz
 -------------
 Symbolic Z-matrix:
 Charge =  0 Multiplicity = 1

 SCF Done:  E(RB3LYP) =  -571.277375410     A.U. after   13 cycles
 SCF Done:  E(RB3LYP) =  -571.280008087     A.U. after   10 cycles
 SCF Done:  E(RB3LYP) =  -571.280401588     A.U. after   11 cycles
 SCF Done:  E(RB3LYP) =  -571.280699117     A.U. after   10 cycles
 SCF Done:  E(RB3LYP) =  -571.280698199     A.U. after    9 cycles
 SCF Done:  E(RB3LYP) =  -571.280698855     A.U. after    9 cycles
 SCF Done:  E(RB3LYP) =  -571.280712566     A.U. after    8 cycles
 SCF Done:  E(RB3LYP) =  -571.280703178     A.U. after    8 cycles
 Optimization completed.
    -- Stationary point found.
 Normal termination of Gaussian 16 at Tue Mar  1 21:05:29 2022.

 --------------------------------------------------------------------
 #P Geom=AllCheck Guess=TCheck SCRF=Check GenChk RB3LYP/6-31G(d) Freq
 --------------------------------------------------------------------

 Structure from the checkpoint file:  "155.n.pdb.xyz.mst.wat.chk"
 -------------
 155.n.pdb.xyz
 -------------
 Charge =  0 Multiplicity = 1

 SCF Done:  E(RB3LYP) =  -571.280703178     A.U. after    1 cycles

  Exact polarizability: 163.617  -5.269 143.331   0.001   0.000  39.689
 Approx polarizability: 183.555  -0.675 184.956   0.001  -0.003  48.093

                      1                      2                      3
                      A                      A                      A
 Frequencies --     45.3600               124.9638               174.6867
 Red. masses --     10.7786                 4.8988                 6.3970
 Frc consts  --      0.0131                 0.0451                 0.1150
 IR Inten    --      1.2340                 0.0002                 0.8849

                      4                      5                      6
                      A                      A                      A
 Frequencies --    224.4656               352.0031               367.1170
 Red. masses --      7.9472                 6.8430                 1.2293
 Frc consts  --      0.2359                 0.4996                 0.0976
 IR Inten    --      1.8790                10.4456               188.7648

                      7                      8                      9
                      A                      A                      A
 Frequencies --    375.9051               408.4339               409.5883
 Red. masses --      4.0144                 6.8240                 6.6893
 Frc consts  --      0.3342                 0.6707                 0.6612
 IR Inten    --      5.8125                 5.2510                19.7648

                     10                     11                     12
                      A                      A                      A
 Frequencies --    440.6802               459.3232               481.3433
 Red. masses --      2.5672                 1.2293                 8.0767
 Frc consts  --      0.2937                 0.1528                 1.1025
 IR Inten    --     24.8367               249.0858                 5.2807

                     13                     14                     15
                      A                      A                      A
 Frequencies --    554.4696               568.5158               618.2840
 Red. masses --      2.2641                 4.9076                 1.2994
 Frc consts  --      0.4101                 0.9345                 0.2927
 IR Inten    --      0.9890                 5.2840               119.2812

                     16                     17                     18
                      A                      A                      A
 Frequencies --    660.8055               696.9294               738.1999
 Red. masses --      4.8070                 4.6803                 5.5638
 Frc consts  --      1.2367                 1.3394                 1.7864
 IR Inten    --     80.7370                13.2302                65.5789

                     19                     20                     21
                      A                      A                      A
 Frequencies --    774.8613               802.7281               833.8007
 Red. masses --      6.8081                 5.8452                 1.5555
 Frc consts  --      2.4084                 2.2192                 0.6371
 IR Inten    --     27.3206                97.3826                45.9084

                     22                     23                     24
                      A                      A                      A
 Frequencies --    903.2118               947.9204               949.5212
 Red. masses --      1.4251                 5.0329                 1.3007
 Frc consts  --      0.6850                 2.6645                 0.6910
 IR Inten    --     12.9454                75.4546                 0.8919

                     25                     26                     27
                      A                      A                      A
 Frequencies --   1097.1518              1147.6552              1183.6922
 Red. masses --      2.6145                 1.7519                 1.6736
 Frc consts  --      1.8543                 1.3595                 1.3816
 IR Inten    --     66.6621                49.9309               200.7642

                     28                     29                     30
                      A                      A                      A
 Frequencies --   1216.3736              1242.6146              1276.3660
 Red. masses --      1.3021                 1.6507                 2.9873
 Frc consts  --      1.1351                 1.5017                 2.8674
 IR Inten    --     65.0312               473.6169               347.7080

                     31                     32                     33
                      A                      A                      A
 Frequencies --   1307.0458              1353.0600              1376.9058
 Red. masses --      2.8998                 2.3011                 2.5143
 Frc consts  --      2.9188                 2.4821                 2.8085
 IR Inten    --    270.4132               300.1921                78.5814

                     34                     35                     36
                      A                      A                      A
 Frequencies --   1414.8318              1516.0737              1537.8269
 Red. masses --      2.2363                 2.7648                 3.2712
 Frc consts  --      2.6375                 3.7442                 4.5579
 IR Inten    --      6.0332               255.6245               356.2067

                     37                     38                     39
                      A                      A                      A
 Frequencies --   1637.2443              1693.6701              1775.8153
 Red. masses --      5.3768                 6.1909                10.1986
 Frc consts  --      8.4918                10.4631                18.9490
 IR Inten    --     42.8420                61.8588               714.9330

                     40                     41                     42
                      A                      A                      A
 Frequencies --   3205.5175              3229.8816              3251.4250
 Red. masses --      1.0896                 1.0934                 1.0902
 Frc consts  --      6.5966                 6.7207                 6.7906
 IR Inten    --     19.8870                14.4991                 5.2130

                     43                     44                     45
                      A                      A                      A
 Frequencies --   3597.4377              3665.3588              3723.2788
 Red. masses --      1.0657                 1.0646                 1.0665
 Frc consts  --      8.1260                 8.4272                 8.7108
 IR Inten    --    541.4436               212.5011               201.5184

 - Thermochemistry -
 -------------------
 Temperature   298.150 Kelvin.  Pressure   1.00000 Atm.
 Atom     1 has atomic number  8 and mass  15.99491

 Molecular mass:   154.02661 amu.
 Principal axes and moments of inertia in atomic units:
                           1         2         3
     Eigenvalues --   993.824032003.342332997.16630
           X            0.99998  -0.00585  -0.00000
           Y            0.00585   0.99998   0.00001
           Z            0.00000  -0.00001   1.00000
 This molecule is an asymmetric top.
 Rotational symmetry number  1.
 Warning -- assumption of classical behavior for rotation
           may cause significant error
 Rotational temperatures (Kelvin)      0.08715     0.04323     0.02890
 Rotational constants (GHZ):           1.81596     0.90087     0.60215
 Zero-point vibrational energy     325159.0 (Joules/Mol)
                                   77.71487 (Kcal/Mol)
 Warning -- explicit consideration of  15 degrees of freedom as
           vibrations may cause significant error
 Vibrational temperatures:     65.26   179.80   251.34   322.96   506.45
          (Kelvin)            528.20   540.84   587.65   589.31   634.04
                              660.86   692.55   797.76   817.97   889.57
                              950.75  1002.73  1062.10  1114.85  1154.95
                             1199.65  1299.52  1363.85  1366.15  1578.56
                             1651.22  1703.07  1750.09  1787.85  1836.41
                             1880.55  1946.75  1981.06  2035.63  2181.29
                             2212.59  2355.63  2436.81  2555.00  4612.02
                             4647.08  4678.08  5175.91  5273.63  5356.97

 Zero-point correction=                           0.123847 (Hartree/Particle)
 Thermal correction to Energy=                    0.133128
 Thermal correction to Enthalpy=                  0.134072
 Thermal correction to Gibbs Free Energy=         0.089061
 Sum of electronic and zero-point Energies=           -571.156857
 Sum of electronic and thermal Energies=              -571.147575
 Sum of electronic and thermal Enthalpies=            -571.146631
 Sum of electronic and thermal Free Energies=         -571.191642

                     E (Thermal)             CV                S
                      KCal/Mol        Cal/Mol-Kelvin    Cal/Mol-Kelvin
 Total                   83.539             36.125             94.735
 Electronic               0.000              0.000              0.000
 Translational            0.889              2.981             41.006
 Rotational               0.889              2.981             30.168
 Vibrational             81.762             30.163             23.561
 Vibration     1          0.595              1.979              5.010
 Vibration     2          0.610              1.928              3.022
 Vibration     3          0.627              1.874              2.384
 Vibration     4          0.649              1.804              1.923
 Vibration     5          0.729              1.571              1.157
 Vibration     6          0.740              1.540              1.092
 Vibration     7          0.747              1.521              1.056
 Vibration     8          0.773              1.452              0.932
 Vibration     9          0.774              1.449              0.928
 Vibration    10          0.801              1.381              0.824
 Vibration    11          0.817              1.340              0.768
 Vibration    12          0.838              1.291              0.706
 Vibration    13          0.910              1.130              0.535
 Vibration    14          0.925              1.099              0.507
 Vibration    15          0.978              0.993              0.419

 Optimization completed.
    -- Stationary point found.
 Normal termination of Gaussian 16 at Tue Mar  1 21:12:03 2022.

 ------------------------------------------
 #p b3lyp/6-31G(d) geom=allcheck guess=read
 ------------------------------------------

 Structure from the checkpoint file:  "155.n.pdb.xyz.mst.wat.chk"
 -------------
 155.n.pdb.xyz
 -------------
 Charge =  0 Multiplicity = 1

 SCF Done:  E(RB3LYP) =  -571.255811791     A.U. after   12 cycles
 Normal termination of Gaussian 16 at Tue Mar  1 21:12:52 2022.
 Gaussian 16:  ES64L-G16RevA.03 25-Dec-2016

 ----------------------------------------------------------------------
 #p b3lyp/6-31G(d) scrf=(iefpcm,read,solvent=water) geom=allcheck guess
 =read
 ----------------------------------------------------------------------

 Structure from the checkpoint file:  "155.n.pdb.xyz.mst.wat.chk"
 -------------
 155.n.pdb.xyz
 -------------
 Charge =  0 Multiplicity = 1

                         Standard orientation:
 ---------------------------------------------------------------------
 Center     Atomic      Atomic             Coordinates (Angstroms)
 Number     Number       Type             X           Y           Z
 ---------------------------------------------------------------------
      1          8           0        2.797237   -0.040889   -0.000534
      2          6           0        1.734074   -0.881947    0.000030
      3          8           0        1.873198   -2.092609    0.000477
      4          6           0        0.433181   -0.179940   -0.000019
      5          6           0        0.278775    1.225746    0.000049
      6          8           0        1.296060    2.123871    0.000111
      7          6           0       -1.018973    1.755711    0.000138
      8          6           0       -2.136594    0.932938    0.000037
      9          6           0       -1.987638   -0.464139   -0.000079
     10          8           0       -3.046145   -1.328988   -0.000168
     11          6           0       -0.708240   -1.001250   -0.000031
     12          1           0        3.623860   -0.566662   -0.000353
     13          1           0        2.150018    1.645905    0.000351
     14          1           0       -1.130477    2.833958    0.000259
     15          1           0       -3.128688    1.373818    0.000070
     16          1           0       -3.879820   -0.826985   -0.000114
     17          1           0       -0.565204   -2.073831   -0.000060
 ---------------------------------------------------------------------

 SCF Done:  E(RB3LYP) =  -571.279601348     A.U. after   11 cycles

 The electronic state is 1-A.
 Alpha  occ. eigenvalues --  -19.20622 -19.17517 -19.17408 -19.14470 -10.33197
 Alpha  occ. eigenvalues --  -10.26160 -10.25107 -10.21022 -10.20244 -10.19591
 Alpha  occ. eigenvalues --  -10.19541  -1.11233  -1.05906  -1.05384  -1.01974
 Alpha  occ. eigenvalues --   -0.85814  -0.77417  -0.74262  -0.67673  -0.61894
 Alpha  occ. eigenvalues --   -0.60661  -0.56178  -0.54765  -0.50230  -0.48991
 Alpha  occ. eigenvalues --   -0.46209  -0.45884  -0.43995  -0.43566  -0.41505
 Alpha  occ. eigenvalues --   -0.41171  -0.39545  -0.39076  -0.36615  -0.34234
 Alpha  occ. eigenvalues --   -0.33270  -0.30824  -0.28929  -0.26525  -0.20982
 Alpha virt. eigenvalues --   -0.04981   0.01097   0.05957   0.08842   0.09764
 Alpha virt. eigenvalues --    0.10953   0.15256   0.16038   0.17998   0.18172
 Alpha virt. eigenvalues --    0.22711   0.23116   0.26160   0.28792   0.30778

 Mulliken charges:
               1
     1  O   -0.629914
     2  C    0.588276
     3  O   -0.524465
     4  C    0.028515
     5  C    0.289828
     6  O   -0.683681
     7  C   -0.186337
     8  C   -0.190151
     9  C    0.345514
    10  O   -0.686728
    11  C   -0.235020
    12  H    0.474283
    13  H    0.462730
    14  H    0.159188
    15  H    0.167216
    16  H    0.461125
    17  H    0.159621
 Sum of Mulliken charges =  -0.00000

 Dipole moment (field-independent basis, Debye):
    X=             -0.4936    Y=              2.4475    Z=              0.0002  Tot=              2.4968
 Quadrupole moment (field-independent basis, Debye-Ang):
   XX=            -33.5072   YY=            -72.9983   ZZ=            -63.3817
   XY=             -2.9778   XZ=              0.0003   YZ=              0.0039

 Normal termination of Gaussian 16 at Tue Mar  1 21:13:45 2022.
