 Gaussian 16, Revision A.03,

 ----------------------------------------------------------------------
 #p b3lyp/6-31G(d) opt=(MaxStep=10,MaxCycles=1000) freq scf=(MaxCycle=2
 000,NoVarAcc,NoIncFock) scrf=(iefpcm,read,solvent=water)
 ----------------------------------------------------------------------

 -------------
 156.n.pdb.xyz
 -------------
 Symbolic Z-matrix:
 Charge =  0 Multiplicity = 1

 SCF Done:  E(RB3LYP) =  -765.268320436     A.U. after   12 cycles
 SCF Done:  E(RB3LYP) =  -765.271379470     A.U. after   11 cycles
 SCF Done:  E(RB3LYP) =  -765.268211244     A.U. after   11 cycles
 SCF Done:  E(RB3LYP) =  -765.271255358     A.U. after   11 cycles
 SCF Done:  E(RB3LYP) =  -765.271851136     A.U. after    8 cycles
 SCF Done:  E(RB3LYP) =  -765.272293077     A.U. after   11 cycles
 SCF Done:  E(RB3LYP) =  -765.272222553     A.U. after   10 cycles
 SCF Done:  E(RB3LYP) =  -765.272340187     A.U. after   10 cycles
 SCF Done:  E(RB3LYP) =  -765.272320701     A.U. after   11 cycles
 SCF Done:  E(RB3LYP) =  -765.272470482     A.U. after   11 cycles
 SCF Done:  E(RB3LYP) =  -765.272597759     A.U. after    8 cycles
 SCF Done:  E(RB3LYP) =  -765.272590049     A.U. after    9 cycles
 SCF Done:  E(RB3LYP) =  -765.272600873     A.U. after    9 cycles
 SCF Done:  E(RB3LYP) =  -765.272580929     A.U. after    9 cycles
 SCF Done:  E(RB3LYP) =  -765.272584849     A.U. after    7 cycles
 SCF Done:  E(RB3LYP) =  -765.272584079     A.U. after    7 cycles
 SCF Done:  E(RB3LYP) =  -765.272585485     A.U. after    6 cycles
 Optimization completed.
    -- Stationary point found.
 Normal termination of Gaussian 16 at Wed Mar  2 01:04:35 2022.

 --------------------------------------------------------------------
 #P Geom=AllCheck Guess=TCheck SCRF=Check GenChk RB3LYP/6-31G(d) Freq
 --------------------------------------------------------------------

 Structure from the checkpoint file:  "156.n.pdb.xyz.mst.wat.chk"
 -------------
 156.n.pdb.xyz
 -------------
 Charge =  0 Multiplicity = 1

 SCF Done:  E(RB3LYP) =  -765.272585485     A.U. after    1 cycles

  Exact polarizability: 208.800 -10.805 174.632 -13.576 -10.779 146.752
 Approx polarizability: 217.514 -12.400 195.039 -16.676 -17.773 161.938

                      1                      2                      3
                      A                      A                      A
 Frequencies --     21.4705                40.9816                63.3861
 Red. masses --      8.8301                 3.0305                 1.7568
 Frc consts  --      0.0024                 0.0030                 0.0042
 IR Inten    --      1.5853                 0.2836                 0.0301

                      4                      5                      6
                      A                      A                      A
 Frequencies --     75.9145               115.8079               121.8904
 Red. masses --      3.6998                 2.5682                 4.9321
 Frc consts  --      0.0126                 0.0203                 0.0432
 IR Inten    --      0.6070                 0.0899                 0.3015

                      7                      8                      9
                      A                      A                      A
 Frequencies --    139.9781               149.0394               155.6251
 Red. masses --      5.4902                 2.5677                 3.2822
 Frc consts  --      0.0634                 0.0336                 0.0468
 IR Inten    --      7.0922                 2.8375                 1.8689

                     10                     11                     12
                      A                      A                      A
 Frequencies --    175.4957               201.1685               215.0855
 Red. masses --      2.3481                 1.5206                 3.1705
 Frc consts  --      0.0426                 0.0363                 0.0864
 IR Inten    --      0.1989                 0.8075                 5.2356

                     13                     14                     15
                      A                      A                      A
 Frequencies --    235.0204               253.4374               271.3761
 Red. masses --      3.3912                 1.1168                 2.7916
 Frc consts  --      0.1104                 0.0423                 0.1211
 IR Inten    --      1.4157                 0.0055                 1.3269

                     16                     17                     18
                      A                      A                      A
 Frequencies --    285.4483               343.4000               382.0493
 Red. masses --      2.5281                 3.4215                 4.0454
 Frc consts  --      0.1214                 0.2377                 0.3479
 IR Inten    --      9.4784                 6.9530                17.3252

                     19                     20                     21
                      A                      A                      A
 Frequencies --    389.9993               411.0004               449.6691
 Red. masses --      6.8293                 8.8046                 3.4490
 Frc consts  --      0.6120                 0.8763                 0.4109
 IR Inten    --     58.5370                 2.4003                17.6590

                     22                     23                     24
                      A                      A                      A
 Frequencies --    502.6442               539.7594               614.8853
 Red. masses --     10.3437                 4.3148                 1.1879
 Frc consts  --      1.5397                 0.7407                 0.2646
 IR Inten    --     22.4798                55.2824                 9.1509

                     25                     26                     27
                      A                      A                      A
 Frequencies --    636.1598               658.5357               683.0922
 Red. masses --      5.3283                 1.1465                 3.6160
 Frc consts  --      1.2705                 0.2929                 0.9941
 IR Inten    --      8.5786               284.8586                 9.8259

                     28                     29                     30
                      A                      A                      A
 Frequencies --    727.4358               740.4503               744.4230
 Red. masses --      5.0462                 1.0850                 5.6220
 Frc consts  --      1.5733                 0.3505                 1.8356
 IR Inten    --     59.0680                14.9302                55.0927

                     31                     32                     33
                      A                      A                      A
 Frequencies --    751.9830               757.4098               773.4280
 Red. masses --      5.6983                 1.4090                 4.4187
 Frc consts  --      1.8985                 0.4762                 1.5574
 IR Inten    --      2.6933                 0.0260                 3.1677

                     34                     35                     36
                      A                      A                      A
 Frequencies --    790.4623               845.4273               909.4067
 Red. masses --      1.3359                 1.3182                 1.8433
 Frc consts  --      0.4918                 0.5551                 0.8982
 IR Inten    --     10.7082                10.6271                 1.7658

                     37                     38                     39
                      A                      A                      A
 Frequencies --    935.2603               958.3203               999.0546
 Red. masses --      1.6997                 2.5304                 1.7456
 Frc consts  --      0.8760                 1.3692                 1.0265
 IR Inten    --      1.0953                 1.7833                 3.9322

                     40                     41                     42
                      A                      A                      A
 Frequencies --   1013.9699              1030.8483              1048.9983
 Red. masses --      1.7442                 3.1124                 2.8043
 Frc consts  --      1.0566                 1.9486                 1.8181
 IR Inten    --      5.9559                 0.3678                 1.5577

                     43                     44                     45
                      A                      A                      A
 Frequencies --   1064.7234              1069.5412              1076.8869
 Red. masses --      2.5834                 2.6260                 2.3233
 Frc consts  --      1.7255                 1.7699                 1.5875
 IR Inten    --      4.3430                 0.1215                 0.2353

                     46                     47                     48
                      A                      A                      A
 Frequencies --   1126.8048              1151.5804              1175.4870
 Red. masses --      2.1050                 2.9523                 2.3326
 Frc consts  --      1.5747                 2.3067                 1.8990
 IR Inten    --     15.8346                10.6081                12.3962

                     49                     50                     51
                      A                      A                      A
 Frequencies --   1189.9293              1242.8633              1258.7458
 Red. masses --      2.0412                 2.0520                 1.9180
 Frc consts  --      1.7028                 1.8675                 1.7905
 IR Inten    --     26.1384                49.4886                67.7598

                     52                     53                     54
                      A                      A                      A
 Frequencies --   1281.1906              1307.5298              1315.8241
 Red. masses --      1.3241                 1.2781                 1.2975
 Frc consts  --      1.2806                 1.2874                 1.3236
 IR Inten    --      8.4443                48.2894                56.9210

                     55                     56                     57
                      A                      A                      A
 Frequencies --   1334.1498              1341.6605              1352.9137
 Red. masses --      1.0913                 1.3079                 1.2693
 Frc consts  --      1.1444                 1.3871                 1.3688
 IR Inten    --      7.0179               115.9645                37.8095

                     58                     59                     60
                      A                      A                      A
 Frequencies --   1365.5430              1375.8007              1397.3159
 Red. masses --      2.1729                 1.5219                 1.5191
 Frc consts  --      2.3873                 1.6973                 1.7475
 IR Inten    --    455.6565               100.5933                 9.1335

                     61                     62                     63
                      A                      A                      A
 Frequencies --   1416.2122              1420.0720              1430.5381
 Red. masses --      2.3926                 1.6138                 1.2434
 Frc consts  --      2.8273                 1.9175                 1.4992
 IR Inten    --    154.9006                 0.6975                 7.5274

                     64                     65                     66
                      A                      A                      A
 Frequencies --   1433.4265              1440.0984              1465.8607
 Red. masses --      1.2524                 2.9293                 2.3111
 Frc consts  --      1.5162                 3.5793                 2.9258
 IR Inten    --      1.2469               398.6961               155.8041

                     67                     68                     69
                      A                      A                      A
 Frequencies --   1499.6459              1504.0243              1509.9413
 Red. masses --      1.0643                 1.0668                 1.0569
 Frc consts  --      1.4102                 1.4219                 1.4197
 IR Inten    --      0.4693                 2.9243                 5.1820

                     70                     71                     72
                      A                      A                      A
 Frequencies --   1513.7361              1515.1413              1519.0061
 Red. masses --      1.0628                 1.0780                 1.0415
 Frc consts  --      1.4348                 1.4581                 1.4159
 IR Inten    --      4.1278                 5.3214                 6.6446

                     73                     74                     75
                      A                      A                      A
 Frequencies --   1525.8865              1530.6501              1541.5045
 Red. masses --      1.0720                 1.0777                 1.0929
 Frc consts  --      1.4706                 1.4877                 1.5301
 IR Inten    --      8.9350                 8.5953                 2.8734

                     76                     77                     78
                      A                      A                      A
 Frequencies --   1747.1730              1764.5125              1811.1162
 Red. masses --      9.8588                 7.0239                11.8895
 Frc consts  --     17.7315                12.8848                22.9778
 IR Inten    --    709.9098              1346.5033               216.2805

                     79                     80                     81
                      A                      A                      A
 Frequencies --   3026.6499              3037.4508              3051.2306
 Red. masses --      1.0584                 1.0598                 1.0766
 Frc consts  --      5.7125                 5.7607                 5.9056
 IR Inten    --     28.6298                83.5357                19.9316

                     82                     83                     84
                      A                      A                      A
 Frequencies --   3051.7127              3054.1554              3066.9674
 Red. masses --      1.0550                 1.0702                 1.0732
 Frc consts  --      5.7891                 5.8815                 5.9476
 IR Inten    --     34.0424                20.7009                57.3178

                     85                     86                     87
                      A                      A                      A
 Frequencies --   3072.4056              3074.9431              3084.3356
 Red. masses --      1.0363                 1.0977                 1.0634
 Frc consts  --      5.7638                 6.1153                 5.9601
 IR Inten    --     27.6249               129.2145                34.4685

                     88                     89                     90
                      A                      A                      A
 Frequencies --   3113.7968              3115.7355              3121.5808
 Red. masses --      1.1026                 1.0938                 1.1019
 Frc consts  --      6.2987                 6.2560                 6.3261
 IR Inten    --    100.7066                 4.6990                72.6575

                     91                     92                     93
                      A                      A                      A
 Frequencies --   3130.2121              3134.8515              3138.5465
 Red. masses --      1.0995                 1.0984                 1.1009
 Frc consts  --      6.3472                 6.3599                 6.3892
 IR Inten    --      5.8638                80.2251                44.2813

                     94                     95                     96
                      A                      A                      A
 Frequencies --   3154.6631              3567.2165              3571.5690
 Red. masses --      1.1030                 1.0777                 1.0795
 Frc consts  --      6.4672                 8.0796                 8.1133
 IR Inten    --     51.4476               216.8044               135.3606

 - Thermochemistry -
 -------------------
 Temperature   298.150 Kelvin.  Pressure   1.00000 Atm.
 Atom     1 has atomic number  6 and mass  12.00000

 Molecular mass:   226.13174 amu.
 Principal axes and moments of inertia in atomic units:
                           1         2         3
     Eigenvalues --  1890.383536920.160827558.74319
           X            0.99993   0.00747   0.00948
           Y           -0.00813   0.99743   0.07121
           Z           -0.00892  -0.07129   0.99742
 This molecule is an asymmetric top.
 Rotational symmetry number  1.
 Warning -- assumption of classical behavior for rotation
           may cause significant error
 Rotational temperatures (Kelvin)      0.04582     0.01252     0.01146
 Rotational constants (GHZ):           0.95470     0.26079     0.23876
 Zero-point vibrational energy     764080.3 (Joules/Mol)
                                  182.61958 (Kcal/Mol)
 Warning -- explicit consideration of  24 degrees of freedom as
           vibrations may cause significant error
 Vibrational temperatures:     30.89    58.96    91.20   109.22   166.62
          (Kelvin)            175.37   201.40   214.43   223.91   252.50
                              289.44   309.46   338.14   364.64   390.45
                              410.70   494.08   549.68   561.12   591.34
                              646.97   723.19   776.59   884.68   915.29
                              947.49   982.82  1046.62  1065.34  1071.06
                             1081.94  1089.74  1112.79  1137.30  1216.38
                             1308.43  1345.63  1378.81  1437.42  1458.88
                             1483.16  1509.27  1531.90  1538.83  1549.40
                             1621.22  1656.87  1691.26  1712.04  1788.20
                             1811.05  1843.35  1881.24  1893.18  1919.54
                             1930.35  1946.54  1964.71  1979.47  2010.43
                             2037.61  2043.17  2058.23  2062.38  2071.98
                             2109.05  2157.66  2163.96  2172.47  2177.93
                             2179.95  2185.51  2195.41  2202.26  2217.88
                             2513.79  2538.74  2605.79  4354.67  4370.21
                             4390.04  4390.73  4394.25  4412.68  4420.51
                             4424.16  4437.67  4480.06  4482.85  4491.26
                             4503.68  4510.35  4515.67  4538.86  5132.43
                             5138.69

 Zero-point correction=                           0.291023 (Hartree/Particle)
 Thermal correction to Energy=                    0.308007
 Thermal correction to Enthalpy=                  0.308951
 Thermal correction to Gibbs Free Energy=         0.245384
 Sum of electronic and zero-point Energies=           -764.981563
 Sum of electronic and thermal Energies=              -764.964579
 Sum of electronic and thermal Enthalpies=            -764.963635
 Sum of electronic and thermal Free Energies=         -765.027201

                     E (Thermal)             CV                S
                      KCal/Mol        Cal/Mol-Kelvin    Cal/Mol-Kelvin
 Total                  193.277             62.581            133.787
 Electronic               0.000              0.000              0.000
 Translational            0.889              2.981             42.150
 Rotational               0.889              2.981             32.958
 Vibrational            191.500             56.619             58.679
 Vibration     1          0.593              1.985              6.493
 Vibration     2          0.594              1.981              5.211
 Vibration     3          0.597              1.972              4.349
 Vibration     4          0.599              1.965              3.994
 Vibration     5          0.608              1.936              3.169
 Vibration     6          0.609              1.931              3.070
 Vibration     7          0.615              1.913              2.804
 Vibration     8          0.618              1.904              2.684
 Vibration     9          0.620              1.896              2.602
 Vibration    10          0.627              1.873              2.376
 Vibration    11          0.638              1.838              2.122
 Vibration    12          0.645              1.818              2.000
 Vibration    13          0.655              1.787              1.840
 Vibration    14          0.665              1.757              1.707
 Vibration    15          0.675              1.726              1.587
 Vibration    16          0.683              1.701              1.501
 Vibration    17          0.722              1.589              1.196
 Vibration    18          0.752              1.508              1.031
 Vibration    19          0.758              1.492              1.000
 Vibration    20          0.775              1.446              0.923
 Vibration    21          0.809              1.362              0.797
 Vibration    22          0.858              1.244              0.652
 Vibration    23          0.895              1.162              0.566
 Vibration    24          0.974              1.000              0.425

 Optimization completed.
    -- Stationary point found.
 Normal termination of Gaussian 16 at Wed Mar  2 01:33:54 2022.

 ------------------------------------------
 #p b3lyp/6-31G(d) geom=allcheck guess=read
 ------------------------------------------

 Structure from the checkpoint file:  "156.n.pdb.xyz.mst.wat.chk"
 -------------
 156.n.pdb.xyz
 -------------
 Charge =  0 Multiplicity = 1

 SCF Done:  E(RB3LYP) =  -765.252100021     A.U. after   11 cycles
 Normal termination of Gaussian 16 at Wed Mar  2 01:36:04 2022.
 Gaussian 16:  ES64L-G16RevA.03 25-Dec-2016

 ----------------------------------------------------------------------
 #p b3lyp/6-31G(d) scrf=(iefpcm,read,solvent=water) geom=allcheck guess
 =read
 ----------------------------------------------------------------------

 Structure from the checkpoint file:  "156.n.pdb.xyz.mst.wat.chk"
 -------------
 156.n.pdb.xyz
 -------------
 Charge =  0 Multiplicity = 1

                         Standard orientation:
 ---------------------------------------------------------------------
 Center     Atomic      Atomic             Coordinates (Angstroms)
 Number     Number       Type             X           Y           Z
 ---------------------------------------------------------------------
      1          6           0       -5.770512   -0.474919   -0.724129
      2          6           0       -4.497813   -0.558143    0.121520
      3          6           0       -3.235535   -0.151875   -0.645737
      4          6           0       -1.961434   -0.232329    0.202412
      5          6           0       -0.723367    0.194978   -0.591573
      6          6           0        0.627352    0.251859    0.182740
      7          6           0        0.496175    1.015387    1.548541
      8          6           0       -0.072286    2.431543    1.473300
      9          6           0        1.624618    1.015378   -0.692943
     10          8           0        1.337810    2.067308   -1.246293
     11          7           0        2.901520    0.502438   -0.811827
     12          6           0        3.345610   -0.737469   -0.390440
     13          8           0        4.484108   -1.129778   -0.586373
     14          7           0        2.396976   -1.502982    0.263235
     15          6           0        1.092435   -1.156838    0.556537
     16          8           0        0.371690   -1.953107    1.140708
     17          1           0       -5.936206    0.544945   -1.089118
     18          1           0       -5.708141   -1.132825   -1.598210
     19          1           0       -6.652987   -0.769707   -0.147667
     20          1           0       -4.376066   -1.581147    0.500510
     21          1           0       -4.604091    0.083615    1.005569
     22          1           0       -3.357098    0.871703   -1.026530
     23          1           0       -3.127139   -0.795070   -1.529779
     24          1           0       -1.825347   -1.248972    0.579019
     25          1           0       -2.073420    0.413929    1.080966
     26          1           0       -0.881477    1.197791   -0.996672
     27          1           0       -0.595774   -0.468400   -1.455831
     28          1           0        1.480288    1.037196    2.027033
     29          1           0       -0.143397    0.391975    2.176875
     30          1           0        0.553021    3.091631    0.867328
     31          1           0       -0.133167    2.847548    2.483356
     32          1           0       -1.080033    2.435099    1.049082
     33          1           0        3.567104    1.049173   -1.352231
     34          1           0        2.704142   -2.425488    0.560748
 ---------------------------------------------------------------------

 SCF Done:  E(RB3LYP) =  -765.271343293     A.U. after   10 cycles

 The electronic state is 1-A.
 Alpha  occ. eigenvalues --  -19.14620 -19.14570 -19.14464 -14.39177 -14.39169
 Alpha  occ. eigenvalues --  -10.35005 -10.31905 -10.31866 -10.23097 -10.19998
 Alpha  occ. eigenvalues --  -10.19019 -10.17550 -10.17508 -10.17422 -10.17401
 Alpha  occ. eigenvalues --  -10.16887  -1.08838  -1.06163  -1.05835  -0.96402
 Alpha  occ. eigenvalues --   -0.92375  -0.83624  -0.79219  -0.74922  -0.73126
 Alpha  occ. eigenvalues --   -0.68313  -0.66353  -0.65292  -0.62647  -0.60655
 Alpha  occ. eigenvalues --   -0.57522  -0.56056  -0.55034  -0.49675  -0.48856
 Alpha  occ. eigenvalues --   -0.48329  -0.47045  -0.45956  -0.45136  -0.44701
 Alpha  occ. eigenvalues --   -0.43661  -0.43121  -0.41718  -0.41172  -0.39989
 Alpha  occ. eigenvalues --   -0.39373  -0.38356  -0.37366  -0.36573  -0.35911
 Alpha  occ. eigenvalues --   -0.35125  -0.34016  -0.33444  -0.32191  -0.31953
 Alpha  occ. eigenvalues --   -0.31356  -0.30817  -0.29425  -0.29364  -0.28171
 Alpha  occ. eigenvalues --   -0.26281
 Alpha virt. eigenvalues --   -0.04135  -0.00201   0.06589   0.08721   0.10086
 Alpha virt. eigenvalues --    0.10825   0.12098   0.12278   0.13482   0.13719
 Alpha virt. eigenvalues --    0.15635   0.15778   0.16474   0.16866   0.17453

 Mulliken charges:
               1
     1  C   -0.451155
     2  C   -0.249685
     3  C   -0.252857
     4  C   -0.271519
     5  C   -0.286487
     6  C   -0.134268
     7  C   -0.279093
     8  C   -0.459028
     9  C    0.672450
    10  O   -0.535803
    11  N   -0.672053
    12  C    0.787558
    13  O   -0.539363
    14  N   -0.666630
    15  C    0.660607
    16  O   -0.531727
    17  H    0.144042
    18  H    0.144046
    19  H    0.144312
    20  H    0.133270
    21  H    0.133212
    22  H    0.130227
    23  H    0.131590
    24  H    0.154495
    25  H    0.139666
    26  H    0.167572
    27  H    0.154677
    28  H    0.162134
    29  H    0.177091
    30  H    0.165299
    31  H    0.157108
    32  H    0.158994
    33  H    0.405679
    34  H    0.405639
 Sum of Mulliken charges =  -0.00000

 Dipole moment (field-independent basis, Debye):
    X=             -0.0570    Y=              0.3529    Z=              0.6099  Tot=              0.7069
 Quadrupole moment (field-independent basis, Debye-Ang):
   XX=           -104.2781   YY=           -101.9044   ZZ=            -96.3274
   XY=              1.7322   XZ=              2.5930   YZ=              5.5844

 Normal termination of Gaussian 16 at Wed Mar  2 01:38:30 2022.
