 Gaussian 16, Revision A.03,

 ----------------------------------------------------------------------
 #p b3lyp/6-31G(d) opt=(MaxStep=10,MaxCycles=1000) freq scf=(MaxCycle=2
 000,NoVarAcc,NoIncFock) scrf=(iefpcm,read,solvent=water)
 ----------------------------------------------------------------------

 -------------
 157.n.pdb.xyz
 -------------
 Symbolic Z-matrix:
 Charge =  0 Multiplicity = 1

 SCF Done:  E(RB3LYP) =  -686.641707884     A.U. after   13 cycles
 SCF Done:  E(RB3LYP) =  -686.644545445     A.U. after   11 cycles
 SCF Done:  E(RB3LYP) =  -686.640848505     A.U. after   11 cycles
 SCF Done:  E(RB3LYP) =  -686.644393684     A.U. after   11 cycles
 SCF Done:  E(RB3LYP) =  -686.645035230     A.U. after    7 cycles
 SCF Done:  E(RB3LYP) =  -686.645423921     A.U. after   11 cycles
 SCF Done:  E(RB3LYP) =  -686.645253544     A.U. after   10 cycles
 SCF Done:  E(RB3LYP) =  -686.645393311     A.U. after   10 cycles
 SCF Done:  E(RB3LYP) =  -686.645480726     A.U. after   10 cycles
 SCF Done:  E(RB3LYP) =  -686.645439729     A.U. after   11 cycles
 SCF Done:  E(RB3LYP) =  -686.645570382     A.U. after   10 cycles
 SCF Done:  E(RB3LYP) =  -686.645566916     A.U. after    9 cycles
 SCF Done:  E(RB3LYP) =  -686.645608627     A.U. after   10 cycles
 SCF Done:  E(RB3LYP) =  -686.645573549     A.U. after    9 cycles
 SCF Done:  E(RB3LYP) =  -686.645723365     A.U. after    9 cycles
 SCF Done:  E(RB3LYP) =  -686.645703544     A.U. after    9 cycles
 SCF Done:  E(RB3LYP) =  -686.645697567     A.U. after    8 cycles
 Optimization completed.
    -- Stationary point found.
 Normal termination of Gaussian 16 at Wed Mar  2 03:31:17 2022.

 --------------------------------------------------------------------
 #P Geom=AllCheck Guess=TCheck SCRF=Check GenChk RB3LYP/6-31G(d) Freq
 --------------------------------------------------------------------

 Structure from the checkpoint file:  "157.n.pdb.xyz.mst.wat.chk"
 -------------
 157.n.pdb.xyz
 -------------
 Charge =  0 Multiplicity = 1

 SCF Done:  E(RB3LYP) =  -686.645697567     A.U. after    1 cycles

  Exact polarizability: 180.793   4.024 147.674   5.883 -10.855 116.570
 Approx polarizability: 194.594   4.651 167.101   7.165 -17.888 128.372

                      1                      2                      3
                      A                      A                      A
 Frequencies --     36.6356                77.4737               119.8498
 Red. masses --      7.4427                 2.2409                 3.7326
 Frc consts  --      0.0059                 0.0079                 0.0316
 IR Inten    --      1.8622                 0.2742                 0.2249

                      4                      5                      6
                      A                      A                      A
 Frequencies --    125.2633               131.2967               144.7766
 Red. masses --      2.1481                 5.6331                 8.4489
 Frc consts  --      0.0199                 0.0572                 0.1043
 IR Inten    --      0.2989                 1.0350                10.9333

                      7                      8                      9
                      A                      A                      A
 Frequencies --    158.7402               192.2839               205.8126
 Red. masses --      1.8910                 2.1888                 1.9847
 Frc consts  --      0.0281                 0.0477                 0.0495
 IR Inten    --      0.3878                 0.4698                 1.1503

                     10                     11                     12
                      A                      A                      A
 Frequencies --    244.7141               255.1249               278.8468
 Red. masses --      1.2302                 2.9603                 2.0477
 Frc consts  --      0.0434                 0.1135                 0.0938
 IR Inten    --      0.4762                 3.7550                 2.8609

                     13                     14                     15
                      A                      A                      A
 Frequencies --    299.6697               326.7948               373.6044
 Red. masses --      4.2944                 3.2790                 4.1923
 Frc consts  --      0.2272                 0.2063                 0.3448
 IR Inten    --     16.2320                 4.7600                20.0027

                     16                     17                     18
                      A                      A                      A
 Frequencies --    392.4600               413.5283               503.7213
 Red. masses --      7.1180                 8.4073                10.2424
 Frc consts  --      0.6460                 0.8471                 1.5312
 IR Inten    --     54.5852                 3.9997                22.6659

                     19                     20                     21
                      A                      A                      A
 Frequencies --    541.2623               621.6733               638.6825
 Red. masses --      4.7879                 1.2513                 4.6394
 Frc consts  --      0.8264                 0.2849                 1.1150
 IR Inten    --     63.4643                 5.6262                 2.0126

                     22                     23                     24
                      A                      A                      A
 Frequencies --    663.9626               684.0456               727.2704
 Red. masses --      1.1990                 3.1607                 4.9633
 Frc consts  --      0.3114                 0.8714                 1.5467
 IR Inten    --    266.4421                29.1168                53.7527

                     25                     26                     27
                      A                      A                      A
 Frequencies --    743.8032               752.9440               754.5008
 Red. masses --      5.8560                 4.2623                 1.3641
 Frc consts  --      1.9088                 1.4237                 0.4575
 IR Inten    --     76.1151                 2.0930                 4.8987

                     28                     29                     30
                      A                      A                      A
 Frequencies --    768.5697               796.1885               863.5863
 Red. masses --      5.5064                 1.2929                 1.4189
 Frc consts  --      1.9164                 0.4829                 0.6235
 IR Inten    --      3.2621                12.6713                 6.4909

                     31                     32                     33
                      A                      A                      A
 Frequencies --    916.4717               961.2927               976.9908
 Red. masses --      2.1081                 2.2529                 1.8337
 Frc consts  --      1.0432                 1.2266                 1.0312
 IR Inten    --      7.9884                 0.5442                 4.1822

                     34                     35                     36
                      A                      A                      A
 Frequencies --   1015.9916              1049.2526              1052.3680
 Red. masses --      2.1738                 2.9337                 2.8660
 Frc consts  --      1.3221                 1.9029                 1.8701
 IR Inten    --      9.3814                 5.4612                 1.0660

                     37                     38                     39
                      A                      A                      A
 Frequencies --   1072.3479              1118.1708              1152.0482
 Red. masses --      2.5490                 1.9570                 2.9401
 Frc consts  --      1.7270                 1.4416                 2.2991
 IR Inten    --      0.3847                11.7370                13.1792

                     40                     41                     42
                      A                      A                      A
 Frequencies --   1182.0119              1189.4045              1250.3726
 Red. masses --      2.2911                 2.0689                 3.2775
 Frc consts  --      1.8860                 1.7244                 3.0191
 IR Inten    --     12.4649                39.3888               113.4402

                     43                     44                     45
                      A                      A                      A
 Frequencies --   1292.1158              1314.8705              1337.5770
 Red. masses --      1.2999                 1.2970                 1.4171
 Frc consts  --      1.2787                 1.3211                 1.4938
 IR Inten    --     29.0917               106.0779               107.2246

                     46                     47                     48
                      A                      A                      A
 Frequencies --   1352.2419              1370.3548              1387.5282
 Red. masses --      1.2082                 2.4470                 1.3582
 Frc consts  --      1.3016                 2.7074                 1.5406
 IR Inten    --     45.2843               494.9122                28.2365

                     49                     50                     51
                      A                      A                      A
 Frequencies --   1415.9361              1418.4771              1429.6031
 Red. masses --      1.5115                 2.6588                 1.2494
 Frc consts  --      1.7855                 3.1519                 1.5045
 IR Inten    --     19.2250               206.2063                 3.8947

                     52                     53                     54
                      A                      A                      A
 Frequencies --   1434.5356              1440.5096              1466.4475
 Red. masses --      1.2430                 2.4415                 2.2951
 Frc consts  --      1.5071                 2.9850                 2.9079
 IR Inten    --      6.4269               329.7942               150.1379

                     55                     56                     57
                      A                      A                      A
 Frequencies --   1508.7691              1512.2539              1514.7889
 Red. masses --      1.0486                 1.0451                 1.0605
 Frc consts  --      1.4064                 1.4082                 1.4338
 IR Inten    --      2.7422                 2.8537                 6.6784

                     58                     59                     60
                      A                      A                      A
 Frequencies --   1516.3780              1517.5882              1531.3534
 Red. masses --      1.0449                 1.0712                 1.0705
 Frc consts  --      1.4156                 1.4535                 1.4790
 IR Inten    --      3.4702                 5.0177                19.7402

                     61                     62                     63
                      A                      A                      A
 Frequencies --   1541.4215              1748.1152              1765.8614
 Red. masses --      1.0886                 9.7801                 6.9686
 Frc consts  --      1.5239                17.6090                12.8028
 IR Inten    --      3.0040               707.4938              1338.0868

                     64                     65                     66
                      A                      A                      A
 Frequencies --   1812.5334              3052.9925              3056.2689
 Red. masses --     11.8107                 1.0424                 1.0603
 Frc consts  --     22.8610                 5.7247                 5.8353
 IR Inten    --    228.0134                23.8023                50.6509

                     67                     68                     69
                      A                      A                      A
 Frequencies --   3065.4531              3073.3246              3078.5344
 Red. masses --      1.0634                 1.0674                 1.0368
 Frc consts  --      5.8877                 5.9403                 5.7894
 IR Inten    --     16.7345                68.6206                35.3067

                     70                     71                     72
                      A                      A                      A
 Frequencies --   3110.1433              3111.9018              3117.3021
 Red. masses --      1.0971                 1.0998                 1.0968
 Frc consts  --      6.2528                 6.2751                 6.2795
 IR Inten    --     39.6090                15.5473                 1.3725

                     73                     74                     75
                      A                      A                      A
 Frequencies --   3124.4832              3141.5618              3144.2804
 Red. masses --      1.1020                 1.1009                 1.0997
 Frc consts  --      6.3384                 6.4013                 6.4058
 IR Inten    --     69.8426                73.2167                52.0506

                     76                     77                     78
                      A                      A                      A
 Frequencies --   3163.7599              3565.6863              3568.4531
 Red. masses --      1.1018                 1.0771                 1.0800
 Frc consts  --      6.4980                 8.0687                 8.1030
 IR Inten    --     33.7699               243.9846               114.8299

 - Thermochemistry -
 -------------------
 Temperature   298.150 Kelvin.  Pressure   1.00000 Atm.
 Atom     1 has atomic number  6 and mass  12.00000

 Molecular mass:   198.10044 amu.
 Principal axes and moments of inertia in atomic units:
                           1         2         3
     Eigenvalues --  1714.968113589.566404224.95889
           X            0.99994  -0.00550  -0.00997
           Y            0.00620   0.99742   0.07155
           Z            0.00955  -0.07161   0.99739
 This molecule is an asymmetric top.
 Rotational symmetry number  1.
 Warning -- assumption of classical behavior for rotation
           may cause significant error
 Rotational temperatures (Kelvin)      0.05050     0.02413     0.02050
 Rotational constants (GHZ):           1.05235     0.50277     0.42716
 Zero-point vibrational energy     614744.3 (Joules/Mol)
                                  146.92740 (Kcal/Mol)
 Warning -- explicit consideration of  19 degrees of freedom as
           vibrations may cause significant error
 Vibrational temperatures:     52.71   111.47   172.44   180.23   188.91
          (Kelvin)            208.30   228.39   276.65   296.12   352.09
                              367.07   401.20   431.16   470.18   537.53
                              564.66   594.98   724.74   778.76   894.45
                              918.92   955.29   984.19  1046.38  1070.17
                             1083.32  1085.56  1105.80  1145.54  1242.51
                             1318.60  1383.09  1405.67  1461.79  1509.64
                             1514.12  1542.87  1608.80  1657.54  1700.65
                             1711.29  1799.01  1859.07  1891.81  1924.48
                             1945.57  1971.63  1996.34  2037.22  2040.87
                             2056.88  2063.98  2072.57  2109.89  2170.78
                             2175.80  2179.44  2181.73  2183.47  2203.28
                             2217.76  2515.15  2540.68  2607.83  4392.58
                             4397.29  4410.50  4421.83  4429.32  4474.80
                             4477.33  4485.10  4495.43  4520.01  4523.92
                             4551.94  5130.23  5134.21

 Zero-point correction=                           0.234144 (Hartree/Particle)
 Thermal correction to Energy=                    0.248310
 Thermal correction to Enthalpy=                  0.249254
 Thermal correction to Gibbs Free Energy=         0.193374
 Sum of electronic and zero-point Energies=           -686.411554
 Sum of electronic and thermal Energies=              -686.397388
 Sum of electronic and thermal Enthalpies=            -686.396444
 Sum of electronic and thermal Free Energies=         -686.452323

                     E (Thermal)             CV                S
                      KCal/Mol        Cal/Mol-Kelvin    Cal/Mol-Kelvin
 Total                  155.817             52.795            117.608
 Electronic               0.000              0.000              0.000
 Translational            0.889              2.981             41.756
 Rotational               0.889              2.981             31.631
 Vibrational            154.039             46.834             44.221
 Vibration     1          0.594              1.982              5.433
 Vibration     2          0.599              1.964              3.954
 Vibration     3          0.609              1.933              3.103
 Vibration     4          0.610              1.928              3.018
 Vibration     5          0.612              1.922              2.927
 Vibration     6          0.616              1.908              2.740
 Vibration     7          0.621              1.893              2.565
 Vibration     8          0.634              1.851              2.206
 Vibration     9          0.640              1.832              2.081
 Vibration    10          0.660              1.772              1.768
 Vibration    11          0.665              1.754              1.695
 Vibration    12          0.679              1.713              1.541
 Vibration    13          0.692              1.674              1.419
 Vibration    14          0.710              1.622              1.276
 Vibration    15          0.745              1.526              1.065
 Vibration    16          0.760              1.486              0.991
 Vibration    17          0.777              1.441              0.914
 Vibration    18          0.859              1.242              0.649
 Vibration    19          0.896              1.159              0.563

                           ! Non-Optimized Parameters !
 Normal termination of Gaussian 16 at Wed Mar  2 03:52:19 2022.

 ------------------------------------------
 #p b3lyp/6-31G(d) geom=allcheck guess=read
 ------------------------------------------

 Structure from the checkpoint file:  "157.n.pdb.xyz.mst.wat.chk"
 -------------
 157.n.pdb.xyz
 -------------
 Charge =  0 Multiplicity = 1

 SCF Done:  E(RB3LYP) =  -686.624853997     A.U. after   11 cycles
 Normal termination of Gaussian 16 at Wed Mar  2 03:54:02 2022.
 Gaussian 16:  ES64L-G16RevA.03 25-Dec-2016

 ----------------------------------------------------------------------
 #p b3lyp/6-31G(d) scrf=(iefpcm,read,solvent=water) geom=allcheck guess
 =read
 ----------------------------------------------------------------------

 Structure from the checkpoint file:  "157.n.pdb.xyz.mst.wat.chk"
 -------------
 157.n.pdb.xyz
 -------------
 Charge =  0 Multiplicity = 1

                         Standard orientation:
 ---------------------------------------------------------------------
 Center     Atomic      Atomic             Coordinates (Angstroms)
 Number     Number       Type             X           Y           Z
 ---------------------------------------------------------------------
      1          6           0        3.873613   -0.824679   -1.090722
      2          6           0        2.701570   -0.732154   -0.110618
      3          6           0        1.484103   -0.066521   -0.760326
      4          6           0        0.215868    0.120323    0.122555
      5          6           0        0.544162    0.727463    1.534934
      6          6           0        1.310631    2.049701    1.522605
      7          6           0       -0.445178   -1.229242    0.408917
      8          8           0        0.181924   -2.198288    0.811433
      9          7           0       -1.816189   -1.316223    0.261140
     10          6           0       -2.675363   -0.345512   -0.221578
     11          8           0       -3.879583   -0.518618   -0.310815
     12          7           0       -2.060934    0.832208   -0.606896
     13          6           0       -0.707494    1.108719   -0.597981
     14          8           0       -0.293449    2.138845   -1.109777
     15          1           0        4.178595    0.167046   -1.441772
     16          1           0        3.608492   -1.420498   -1.970958
     17          1           0        4.742953   -1.294268   -0.620406
     18          1           0        3.011203   -0.155642    0.768193
     19          1           0        2.429899   -1.727919    0.245995
     20          1           0        1.761862    0.930895   -1.111071
     21          1           0        1.194734   -0.634900   -1.653110
     22          1           0       -0.396658    0.851923    2.083791
     23          1           0        1.119242   -0.032256    2.072922
     24          1           0        1.459549    2.389886    2.550988
     25          1           0        0.768999    2.824925    0.977633
     26          1           0        2.295517    1.937036    1.061365
     27          1           0       -2.248831   -2.201138    0.514515
     28          1           0       -2.668295    1.528909   -1.031245
 ---------------------------------------------------------------------

 SCF Done:  E(RB3LYP) =  -686.644547235     A.U. after   10 cycles

 The electronic state is 1-A.
 Alpha  occ. eigenvalues --  -19.14658 -19.14591 -19.14470 -14.39166 -14.39164
 Alpha  occ. eigenvalues --  -10.35005 -10.31921 -10.31885 -10.23126 -10.20148
 Alpha  occ. eigenvalues --  -10.18952 -10.17633 -10.17541 -10.17075  -1.08841
 Alpha  occ. eigenvalues --   -1.06188  -1.05856  -0.96408  -0.92357  -0.83559
 Alpha  occ. eigenvalues --   -0.77152  -0.73743  -0.68704  -0.66415  -0.65282
 Alpha  occ. eigenvalues --   -0.62573  -0.59720  -0.56159  -0.55083  -0.49673
 Alpha  occ. eigenvalues --   -0.48891  -0.47909  -0.47026  -0.45579  -0.44727
 Alpha  occ. eigenvalues --   -0.44136  -0.43398  -0.42177  -0.41184  -0.39591
 Alpha  occ. eigenvalues --   -0.38867  -0.37508  -0.36519  -0.35850  -0.35437
 Alpha  occ. eigenvalues --   -0.33731  -0.33121  -0.32337  -0.30834  -0.29447
 Alpha  occ. eigenvalues --   -0.29368  -0.28260  -0.26281
 Alpha virt. eigenvalues --   -0.04161  -0.00160   0.06548   0.08920   0.10277
 Alpha virt. eigenvalues --    0.12091   0.12426   0.13296   0.14386   0.15423
 Alpha virt. eigenvalues --    0.16579   0.16669   0.17572   0.18457   0.19074

 Mulliken charges:
               1
     1  C   -0.454219
     2  C   -0.267256
     3  C   -0.275908
     4  C   -0.132045
     5  C   -0.278743
     6  C   -0.460630
     7  C    0.657253
     8  O   -0.530382
     9  N   -0.665629
    10  C    0.787860
    11  O   -0.539377
    12  N   -0.671048
    13  C    0.669037
    14  O   -0.534193
    15  H    0.145665
    16  H    0.146788
    17  H    0.147745
    18  H    0.142930
    19  H    0.158136
    20  H    0.166677
    21  H    0.153205
    22  H    0.161857
    23  H    0.176469
    24  H    0.157711
    25  H    0.166601
    26  H    0.159979
    27  H    0.405774
    28  H    0.405744
 Sum of Mulliken charges =  -0.00000

 Dipole moment (field-independent basis, Debye):
    X=              0.1101    Y=              0.3597    Z=              0.7388  Tot=              0.8290
 Quadrupole moment (field-independent basis, Debye-Ang):
   XX=            -91.4960   YY=            -89.5271   ZZ=            -81.6444
   XY=             -0.3536   XZ=             -0.2571   YZ=              5.0181

 Normal termination of Gaussian 16 at Wed Mar  2 03:55:51 2022.
