 Gaussian 16, Revision A.03,

 ----------------------------------------------------------------------
 #p b3lyp/6-31G(d) opt=(MaxStep=10,MaxCycles=1000) freq scf=(MaxCycle=2
 000,NoVarAcc,NoIncFock) scrf=(iefpcm,read,solvent=water)
 ----------------------------------------------------------------------

 -------------
 158.n.pdb.xyz
 -------------
 Symbolic Z-matrix:
 Charge =  0 Multiplicity = 1

 SCF Done:  E(RB3LYP) =  -869.965688573     A.U. after   12 cycles
 SCF Done:  E(RB3LYP) =  -869.969919763     A.U. after   10 cycles
 SCF Done:  E(RB3LYP) =  -869.969705232     A.U. after   11 cycles
 SCF Done:  E(RB3LYP) =  -869.971966890     A.U. after   10 cycles
 SCF Done:  E(RB3LYP) =  -869.972050422     A.U. after   10 cycles
 SCF Done:  E(RB3LYP) =  -869.971778704     A.U. after   10 cycles
 SCF Done:  E(RB3LYP) =  -869.972170807     A.U. after   10 cycles
 SCF Done:  E(RB3LYP) =  -869.972106554     A.U. after    9 cycles
 SCF Done:  E(RB3LYP) =  -869.972121435     A.U. after   10 cycles
 SCF Done:  E(RB3LYP) =  -869.972191646     A.U. after   10 cycles
 SCF Done:  E(RB3LYP) =  -869.972221654     A.U. after    8 cycles
 SCF Done:  E(RB3LYP) =  -869.972221171     A.U. after    8 cycles
 SCF Done:  E(RB3LYP) =  -869.972223326     A.U. after    9 cycles
 SCF Done:  E(RB3LYP) =  -869.972221154     A.U. after    9 cycles
 SCF Done:  E(RB3LYP) =  -869.972221540     A.U. after    7 cycles
 SCF Done:  E(RB3LYP) =  -869.972223359     A.U. after    9 cycles
 SCF Done:  E(RB3LYP) =  -869.972221227     A.U. after    9 cycles
 Optimization completed on the basis of negligible forces.
    -- Stationary point found.
 Normal termination of Gaussian 16 at Wed Mar  2 05:24:18 2022.

 --------------------------------------------------------------------
 #P Geom=AllCheck Guess=TCheck SCRF=Check GenChk RB3LYP/6-31G(d) Freq
 --------------------------------------------------------------------

 Structure from the checkpoint file:  "158.n.pdb.xyz.mst.wat.chk"
 -------------
 158.n.pdb.xyz
 -------------
 Charge =  0 Multiplicity = 1

 SCF Done:  E(RB3LYP) =  -869.972221227     A.U. after    1 cycles

  Exact polarizability: 459.289 -35.038 331.875 -26.969   0.667 171.489
 Approx polarizability: 488.483 -40.435 382.253 -31.735   0.812 187.563

                      1                      2                      3
                      A                      A                      A
 Frequencies --      5.2943                15.5549                18.1447
 Red. masses --      2.9189                 4.5622                 4.3813
 Frc consts  --      0.0000                 0.0007                 0.0008
 IR Inten    --      0.0010                 0.0427                 0.0686

                      4                      5                      6
                      A                      A                      A
 Frequencies --     41.0284                61.5426                74.6559
 Red. masses --      4.0502                 4.2839                 3.0307
 Frc consts  --      0.0040                 0.0096                 0.0100
 IR Inten    --      0.6466                 0.4066                 0.2741

                      7                      8                      9
                      A                      A                      A
 Frequencies --     95.3316               120.5931               139.4689
 Red. masses --      2.7599                 3.8925                 4.5731
 Frc consts  --      0.0148                 0.0334                 0.0524
 IR Inten    --      0.8365                 0.7884                 0.2599

                     10                     11                     12
                      A                      A                      A
 Frequencies --    142.3877               170.3469               181.3087
 Red. masses --      2.7955                 3.4648                 2.3709
 Frc consts  --      0.0334                 0.0592                 0.0459
 IR Inten    --      0.3708                 1.5908                 1.7319

                     13                     14                     15
                      A                      A                      A
 Frequencies --    189.0197               202.1475               223.4788
 Red. masses --      3.4538                 1.2769                 1.0147
 Frc consts  --      0.0727                 0.0307                 0.0299
 IR Inten    --      1.7281                 1.4718                 0.0002

                     16                     17                     18
                      A                      A                      A
 Frequencies --    247.6097               253.6679               268.8982
 Red. masses --      3.2820                 3.5733                 1.0627
 Frc consts  --      0.1186                 0.1355                 0.0453
 IR Inten    --      5.3966                 3.5133                 0.1653

                     19                     20                     21
                      A                      A                      A
 Frequencies --    272.3238               285.5912               324.0799
 Red. masses --      1.0571                 3.1315                 3.0442
 Frc consts  --      0.0462                 0.1505                 0.1884
 IR Inten    --      0.1136                 1.2891                25.8478

                     22                     23                     24
                      A                      A                      A
 Frequencies --    343.4137               349.8035               375.9449
 Red. masses --      2.4894                 2.2836                 2.4181
 Frc consts  --      0.1730                 0.1646                 0.2014
 IR Inten    --      0.8572                 2.0676                 1.1550

                     25                     26                     27
                      A                      A                      A
 Frequencies --    391.7040               418.6730               424.2104
 Red. masses --      3.4912                 3.2949                 2.3939
 Frc consts  --      0.3156                 0.3403                 0.2538
 IR Inten    --      6.5462                 4.4748                 1.2078

                     28                     29                     30
                      A                      A                      A
 Frequencies --    428.5037               478.4365               483.1904
 Red. masses --      3.8181                 3.3470                 3.4267
 Frc consts  --      0.4131                 0.4514                 0.4714
 IR Inten    --      1.9572                 0.9137                 0.0121

                     31                     32                     33
                      A                      A                      A
 Frequencies --    504.8020               526.8067               545.8940
 Red. masses --      5.4090                 5.2993                 2.9479
 Frc consts  --      0.8121                 0.8665                 0.5176
 IR Inten    --      3.1492                 3.1284                 7.1322

                     34                     35                     36
                      A                      A                      A
 Frequencies --    549.3759               560.1963               581.1058
 Red. masses --      5.0271                 5.1729                 4.8046
 Frc consts  --      0.8939                 0.9565                 0.9559
 IR Inten    --      0.5034                 1.8136                 0.2741

                     37                     38                     39
                      A                      A                      A
 Frequencies --    637.9012               648.4803               681.7541
 Red. masses --      3.6881                 5.3494                 3.9079
 Frc consts  --      0.8842                 1.3254                 1.0702
 IR Inten    --      0.1006                 8.0905                 0.0370

                     40                     41                     42
                      A                      A                      A
 Frequencies --    740.8026               753.9715               791.4739
 Red. masses --      5.0992                 1.2318                 2.7394
 Frc consts  --      1.6488                 0.4126                 1.0111
 IR Inten    --     11.5361                 5.7978                25.1620

                     43                     44                     45
                      A                      A                      A
 Frequencies --    802.0728               816.8226               817.2349
 Red. masses --      4.9677                 1.6746                 1.9472
 Frc consts  --      1.8829                 0.6583                 0.7662
 IR Inten    --      1.9791                57.9736                36.1643

                     46                     47                     48
                      A                      A                      A
 Frequencies --    841.2640               857.6340               881.2127
 Red. masses --      2.4819                 3.2751                 1.5547
 Frc consts  --      1.0349                 1.4193                 0.7113
 IR Inten    --      1.8778                10.6923                 1.6171

                     49                     50                     51
                      A                      A                      A
 Frequencies --    882.9153               928.8955               938.3009
 Red. masses --      2.7907                 1.4244                 1.7838
 Frc consts  --      1.2817                 0.7241                 0.9253
 IR Inten    --     10.2505                 0.2150                 0.9108

                     52                     53                     54
                      A                      A                      A
 Frequencies --    939.0662               964.0593               970.9100
 Red. masses --      1.7721                 1.4396                 1.6782
 Frc consts  --      0.9207                 0.7883                 0.9321
 IR Inten    --      0.8942                 7.6589                20.8891

                     55                     56                     57
                      A                      A                      A
 Frequencies --    975.2692               985.8104               998.2752
 Red. masses --      1.1957                 1.3213                 1.4393
 Frc consts  --      0.6701                 0.7566                 0.8451
 IR Inten    --      0.0009                 0.2692                34.3787

                     58                     59                     60
                      A                      A                      A
 Frequencies --   1002.9216              1007.3832              1020.1790
 Red. masses --      1.2270                 1.6505                 3.3087
 Frc consts  --      0.7271                 0.9869                 2.0289
 IR Inten    --     43.9126                 3.9454                18.9137

                     61                     62                     63
                      A                      A                      A
 Frequencies --   1055.2139              1056.2715              1058.3944
 Red. masses --      1.3996                 1.3913                 2.3914
 Frc consts  --      0.9182                 0.9146                 1.5783
 IR Inten    --      0.9545                 0.1923                 5.8004

                     64                     65                     66
                      A                      A                      A
 Frequencies --   1076.9325              1092.0269              1114.0009
 Red. masses --      1.9834                 2.1560                 2.5286
 Frc consts  --      1.3553                 1.5148                 1.8489
 IR Inten    --     94.2064                 6.7544                26.8350

                     67                     68                     69
                      A                      A                      A
 Frequencies --   1122.9282              1161.4525              1173.3875
 Red. masses --      2.7829                 1.3921                 1.3759
 Frc consts  --      2.0675                 1.1064                 1.1161
 IR Inten    --      7.4072                20.0608                 4.1976

                     70                     71                     72
                      A                      A                      A
 Frequencies --   1180.2634              1189.2340              1199.2302
 Red. masses --      1.1922                 1.7906                 1.4694
 Frc consts  --      0.9785                 1.4921                 1.2450
 IR Inten    --      3.5056                22.8695                 9.2598

                     73                     74                     75
                      A                      A                      A
 Frequencies --   1230.7721              1232.2973              1234.1686
 Red. masses --      2.6040                 2.0731                 2.0288
 Frc consts  --      2.3240                 1.8548                 1.8207
 IR Inten    --      7.8374                 5.1398                10.3524

                     76                     77                     78
                      A                      A                      A
 Frequencies --   1242.3038              1253.1331              1286.4002
 Red. masses --      1.8634                 1.8463                 1.6106
 Frc consts  --      1.6943                 1.7082                 1.5703
 IR Inten    --      5.3819                 4.7002                25.9364

                     79                     80                     81
                      A                      A                      A
 Frequencies --   1295.8317              1303.1234              1327.5201
 Red. masses --      1.7957                 2.3853                 1.3466
 Frc consts  --      1.7765                 2.3865                 1.3982
 IR Inten    --     10.7700                63.3900                 4.1162

                     82                     83                     84
                      A                      A                      A
 Frequencies --   1358.1049              1362.0673              1388.1353
 Red. masses --      1.7248                 1.8152                 1.4216
 Frc consts  --      1.8743                 1.9842                 1.6140
 IR Inten    --     84.7289                13.1203                30.5260

                     85                     86                     87
                      A                      A                      A
 Frequencies --   1404.3968              1409.7602              1414.6591
 Red. masses --      4.6149                 1.2192                 1.2166
 Frc consts  --      5.3628                 1.4276                 1.4345
 IR Inten    --     15.3140                 3.3373                 2.9767

                     88                     89                     90
                      A                      A                      A
 Frequencies --   1416.3185              1428.8722              1438.3031
 Red. masses --      1.5610                 1.5690                 1.2213
 Frc consts  --      1.8449                 1.8874                 1.4886
 IR Inten    --     71.6507                 1.8797                 0.6143

                     91                     92                     93
                      A                      A                      A
 Frequencies --   1440.0813              1463.3199              1479.4511
 Red. masses --      2.3913                 1.1811                 2.0225
 Frc consts  --      2.9219                 1.4901                 2.6082
 IR Inten    --     24.8223                 4.3583                 3.4403

                     94                     95                     96
                      A                      A                      A
 Frequencies --   1483.6778              1496.7193              1500.3653
 Red. masses --      1.1611                 1.0486                 1.0451
 Frc consts  --      1.5059                 1.3840                 1.3861
 IR Inten    --     12.3193                 0.4310                 0.2337

                     97                     98                     99
                      A                      A                      A
 Frequencies --   1504.9966              1506.6718              1507.9900
 Red. masses --      1.0448                 1.3513                 1.4238
 Frc consts  --      1.3942                 1.8073                 1.9077
 IR Inten    --      0.0579                 0.4834                 3.0372

                    100                    101                    102
                      A                      A                      A
 Frequencies --   1512.0558              1515.3663              1520.4565
 Red. masses --      1.0509                 1.0505                 1.1629
 Frc consts  --      1.4157                 1.4213                 1.5840
 IR Inten    --      8.6416                 9.3069                11.3859

                    103                    104                    105
                      A                      A                      A
 Frequencies --   1529.4532              1535.1343              1564.2082
 Red. masses --      1.0657                 1.0532                 3.1514
 Frc consts  --      1.4687                 1.4624                 4.5430
 IR Inten    --      4.7943                15.6389                14.0234

                    106                    107                    108
                      A                      A                      A
 Frequencies --   1634.2037              1656.3287              1679.9177
 Red. masses --      7.1057                 4.9995                 5.9393
 Frc consts  --     11.1806                 8.0811                 9.8756
 IR Inten    --      2.0396                13.1673                 1.3114

                    109                    110                    111
                      A                      A                      A
 Frequencies --   1703.5293              2321.7841              2983.7574
 Red. masses --      5.9577                11.9350                 1.0673
 Frc consts  --     10.1866                37.9069                 5.5984
 IR Inten    --      4.8230                12.1690                97.5347

                    112                    113                    114
                      A                      A                      A
 Frequencies --   2995.5320              3031.4400              3054.4509
 Red. masses --      1.0565                 1.0597                 1.0341
 Frc consts  --      5.5853                 5.7374                 5.6846
 IR Inten    --    155.8778                44.4433                43.6497

                    115                    116                    117
                      A                      A                      A
 Frequencies --   3058.6226              3061.4091              3064.6367
 Red. masses --      1.0340                 1.0912                 1.0352
 Frc consts  --      5.6994                 6.0254                 5.7282
 IR Inten    --     43.2389                33.7032                50.5370

                    118                    119                    120
                      A                      A                      A
 Frequencies --   3067.0760              3088.8810              3125.8751
 Red. masses --      1.1023                 1.0762                 1.1033
 Frc consts  --      6.1092                 6.0500                 6.3518
 IR Inten    --     48.5887                62.2466                22.9642

                    121                    122                    123
                      A                      A                      A
 Frequencies --   3130.3809              3132.6727              3133.6416
 Red. masses --      1.1033                 1.1038                 1.1039
 Frc consts  --      6.3698                 6.3821                 6.3867
 IR Inten    --     10.6887                50.7732                49.3483

                    124                    125                    126
                      A                      A                      A
 Frequencies --   3134.3549              3137.1283              3139.4148
 Red. masses --      1.1025                 1.1038                 1.1036
 Frc consts  --      6.3813                 6.4003                 6.4083
 IR Inten    --     98.7354                51.2268                64.8928

                    127                    128                    129
                      A                      A                      A
 Frequencies --   3154.6956              3184.4842              3195.4773
 Red. masses --      1.0875                 1.0897                 1.0869
 Frc consts  --      6.3765                 6.5110                 6.5391
 IR Inten    --     24.4546                27.2736                 4.6941

                    130                    131                    132
                      A                      A                      A
 Frequencies --   3196.2090              3206.5370              3212.2073
 Red. masses --      1.0865                 1.0888                 1.0952
 Frc consts  --      6.5398                 6.5960                 6.6581
 IR Inten    --      9.6796                19.9052                60.2136

                    133                    134                    135
                      A                      A                      A
 Frequencies --   3221.1829              3233.8775              3250.4191
 Red. masses --      1.0940                 1.0938                 1.0897
 Frc consts  --      6.6880                 6.7397                 6.7833
 IR Inten    --     59.4024                34.7252                27.4652

 - Thermochemistry -
 -------------------
 Temperature   298.150 Kelvin.  Pressure   1.00000 Atm.
 Atom     1 has atomic number  6 and mass  12.00000

 Molecular mass:   291.19870 amu.
 Principal axes and moments of inertia in atomic units:
                           1         2         3
     Eigenvalues --  1913.70814********************
           X            1.00000   0.00064   0.00009
           Y           -0.00064   1.00000   0.00081
           Z           -0.00009  -0.00081   1.00000
 This molecule is an asymmetric top.
 Rotational symmetry number  1.
 Warning -- assumption of classical behavior for rotation
           may cause significant error
 Rotational temperatures (Kelvin)      0.04526     0.00345     0.00333
 Rotational constants (GHZ):           0.94306     0.07182     0.06948
 Zero-point vibrational energy    1067276.7 (Joules/Mol)
                                  255.08524 (Kcal/Mol)
 Warning -- explicit consideration of  36 degrees of freedom as
           vibrations may cause significant error
 Vibrational temperatures:      7.62    22.38    26.11    59.03    88.55
          (Kelvin)            107.41   137.16   173.51   200.66   204.86
                              245.09   260.86   271.96   290.85   321.54
                              356.26   364.97   386.88   391.81   410.90
                              466.28   494.10   503.29   540.90   563.57
                              602.38   610.34   616.52   688.36   695.20
                              726.30   757.96   785.42   790.43   806.00
                              836.08   917.80   933.02   980.89  1065.85
                             1084.80  1138.75  1154.00  1175.23  1175.82
                             1210.39  1233.94  1267.87  1270.32  1336.47
                             1350.01  1351.11  1387.07  1396.92  1403.19
                             1418.36  1436.30  1442.98  1449.40  1467.81
                             1518.22  1519.74  1522.79  1549.47  1571.18
                             1602.80  1615.64  1671.07  1688.24  1698.14
                             1711.04  1725.42  1770.81  1773.00  1775.69
                             1787.40  1802.98  1850.84  1864.41  1874.90
                             1910.01  1954.01  1959.71  1997.22  2020.61
                             2028.33  2035.38  2037.77  2055.83  2069.40
                             2071.96  2105.39  2128.60  2134.68  2153.45
                             2158.69  2165.35  2167.76  2169.66  2175.51
                             2180.27  2187.60  2200.54  2208.72  2250.55
                             2351.25  2383.09  2417.03  2451.00  3340.53
                             4292.96  4309.90  4361.57  4394.67  4400.68
                             4404.68  4409.33  4412.84  4444.21  4497.44
                             4503.92  4507.22  4508.61  4509.64  4513.63
                             4516.92  4538.90  4581.76  4597.58  4598.63
                             4613.49  4621.65  4634.56  4652.83  4676.63

 Zero-point correction=                           0.406504 (Hartree/Particle)
 Thermal correction to Energy=                    0.428877
 Thermal correction to Enthalpy=                  0.429821
 Thermal correction to Gibbs Free Energy=         0.351291
 Sum of electronic and zero-point Energies=           -869.565717
 Sum of electronic and thermal Energies=              -869.543344
 Sum of electronic and thermal Enthalpies=            -869.542400
 Sum of electronic and thermal Free Energies=         -869.620930

                     E (Thermal)             CV                S
                      KCal/Mol        Cal/Mol-Kelvin    Cal/Mol-Kelvin
 Total                  269.124             85.359            165.280
 Electronic               0.000              0.000              0.000
 Translational            0.889              2.981             42.904
 Rotational               0.889              2.981             35.478
 Vibrational            267.347             79.397             86.898
 Vibration     1          0.593              1.987              9.275
 Vibration     2          0.593              1.986              7.133
 Vibration     3          0.593              1.986              6.828
 Vibration     4          0.594              1.981              5.209
 Vibration     5          0.597              1.973              4.407
 Vibration     6          0.599              1.966              4.027
 Vibration     7          0.603              1.953              3.548
 Vibration     8          0.609              1.932              3.091
 Vibration     9          0.615              1.914              2.811
 Vibration    10          0.616              1.911              2.772
 Vibration    11          0.625              1.879              2.432
 Vibration    12          0.630              1.865              2.315
 Vibration    13          0.633              1.855              2.237
 Vibration    14          0.639              1.837              2.113
 Vibration    15          0.649              1.805              1.931
 Vibration    16          0.661              1.767              1.748
 Vibration    17          0.665              1.757              1.705
 Vibration    18          0.673              1.730              1.603
 Vibration    19          0.675              1.724              1.581
 Vibration    20          0.683              1.700              1.500
 Vibration    21          0.709              1.627              1.289
 Vibration    22          0.722              1.589              1.196
 Vibration    23          0.727              1.576              1.167
 Vibration    24          0.747              1.521              1.055
 Vibration    25          0.759              1.488              0.994
 Vibration    26          0.782              1.430              0.896
 Vibration    27          0.786              1.418              0.878
 Vibration    28          0.790              1.408              0.864
 Vibration    29          0.835              1.298              0.714
 Vibration    30          0.839              1.287              0.702
 Vibration    31          0.860              1.239              0.646
 Vibration    32          0.882              1.191              0.594
 Vibration    33          0.901              1.149              0.553
 Vibration    34          0.905              1.141              0.545
 Vibration    35          0.916              1.117              0.523
 Vibration    36          0.938              1.072              0.483

 Optimization completed.
    -- Stationary point found.
 Normal termination of Gaussian 16 at Wed Mar  2 06:19:23 2022.

 ------------------------------------------
 #p b3lyp/6-31G(d) geom=allcheck guess=read
 ------------------------------------------

 Structure from the checkpoint file:  "158.n.pdb.xyz.mst.wat.chk"
 -------------
 158.n.pdb.xyz
 -------------
 Charge =  0 Multiplicity = 1

 SCF Done:  E(RB3LYP) =  -869.967090307     A.U. after   11 cycles
 Normal termination of Gaussian 16 at Wed Mar  2 06:22:30 2022.
 Gaussian 16:  ES64L-G16RevA.03 25-Dec-2016

 ----------------------------------------------------------------------
 #p b3lyp/6-31G(d) scrf=(iefpcm,read,solvent=water) geom=allcheck guess
 =read
 ----------------------------------------------------------------------

 Structure from the checkpoint file:  "158.n.pdb.xyz.mst.wat.chk"
 -------------
 158.n.pdb.xyz
 -------------
 Charge =  0 Multiplicity = 1

                         Standard orientation:
 ---------------------------------------------------------------------
 Center     Atomic      Atomic             Coordinates (Angstroms)
 Number     Number       Type             X           Y           Z
 ---------------------------------------------------------------------
      1          6           0        0.134808   -0.023927    1.987037
      2          7           0        0.375678   -0.594126    0.670288
      3          6           0       -0.391266    0.007169   -0.417409
      4          6           0       -1.854702   -0.320390   -0.311320
      5          6           0       -2.825096    0.610338   -0.339720
      6          6           0       -4.220977    0.336338   -0.277622
      7          6           0       -5.419592    0.138937   -0.228003
      8          6           0       -6.869487   -0.116607   -0.163019
      9          6           0       -7.258269   -0.485056    1.287592
     10          6           0       -7.634170    1.153705   -0.599093
     11          6           0       -7.225416   -1.286858   -1.107562
     12          6           0        1.746837   -0.980628    0.375952
     13          6           0        2.815014    0.095723    0.181638
     14          6           0        2.517851    1.442685    0.205463
     15          6           0        3.516011    2.430552    0.017362
     16          6           0        4.822651    2.065921   -0.197361
     17          6           0        5.184667    0.692056   -0.233683
     18          6           0        6.528198    0.288460   -0.456269
     19          6           0        6.872236   -1.044162   -0.492723
     20          6           0        5.879651   -2.034360   -0.306659
     21          6           0        4.566933   -1.674959   -0.087809
     22          6           0        4.174201   -0.308227   -0.042757
     23          1           0       -0.940005   -0.027880    2.188785
     24          1           0        0.627187   -0.644186    2.742017
     25          1           0        0.494641    1.010098    2.110571
     26          1           0        0.000931   -0.411761   -1.352976
     27          1           0       -0.278373    1.101335   -0.489946
     28          1           0       -2.109591   -1.373940   -0.218188
     29          1           0       -2.535971    1.657929   -0.422016
     30          1           0       -8.334426   -0.678386    1.344796
     31          1           0       -6.729457   -1.383287    1.619166
     32          1           0       -7.018121    0.329478    1.977248
     33          1           0       -8.712784    0.971320   -0.552793
     34          1           0       -7.399735    1.997776    0.056378
     35          1           0       -7.376796    1.433426   -1.624668
     36          1           0       -6.961508   -1.050134   -2.142154
     37          1           0       -8.301185   -1.484612   -1.063899
     38          1           0       -6.696294   -2.199224   -0.818602
     39          1           0        2.072324   -1.643793    1.187806
     40          1           0        1.721369   -1.605495   -0.526312
     41          1           0        1.496501    1.758179    0.373330
     42          1           0        3.236543    3.478784    0.045058
     43          1           0        5.595119    2.814984   -0.342635
     44          1           0        7.282194    1.057150   -0.598451
     45          1           0        7.902411   -1.338581   -0.663773
     46          1           0        6.155239   -3.083532   -0.336771
     47          1           0        3.819553   -2.447015    0.051808
 ---------------------------------------------------------------------

 SCF Done:  E(RB3LYP) =  -869.971537599     A.U. after   10 cycles

 The electronic state is 1-A.
 Alpha  occ. eigenvalues --  -14.32798 -10.22071 -10.21527 -10.21415 -10.20657
 Alpha  occ. eigenvalues --  -10.19983 -10.19941 -10.19878 -10.19765 -10.19581
 Alpha  occ. eigenvalues --  -10.19232 -10.19198 -10.19138 -10.19117 -10.19086
 Alpha  occ. eigenvalues --  -10.18924 -10.18774 -10.18501 -10.18277 -10.17703
 Alpha  occ. eigenvalues --  -10.17683 -10.17674  -0.92314  -0.87335  -0.83023
 Alpha  occ. eigenvalues --   -0.82119  -0.80470  -0.78175  -0.74183  -0.74011
 Alpha  occ. eigenvalues --   -0.72772  -0.70042  -0.69203  -0.68669  -0.68667
 Alpha  occ. eigenvalues --   -0.62843  -0.61875  -0.61083  -0.59362  -0.57373
 Alpha  occ. eigenvalues --   -0.56066  -0.51566  -0.50824  -0.50661  -0.49415
 Alpha  occ. eigenvalues --   -0.47606  -0.47200  -0.46210  -0.45622  -0.44033
 Alpha  occ. eigenvalues --   -0.43968  -0.43671  -0.43102  -0.42126  -0.41315
 Alpha  occ. eigenvalues --   -0.40844  -0.40068  -0.39240  -0.39174  -0.39017
 Alpha  occ. eigenvalues --   -0.37470  -0.37222  -0.37064  -0.36793  -0.36704
 Alpha  occ. eigenvalues --   -0.36352  -0.35571  -0.34254  -0.33994  -0.33612
 Alpha  occ. eigenvalues --   -0.32961  -0.32639  -0.31753  -0.27921  -0.25960
 Alpha  occ. eigenvalues --   -0.24596  -0.22889  -0.21591  -0.20895
 Alpha virt. eigenvalues --   -0.04099  -0.02189  -0.01159   0.03242   0.05056
 Alpha virt. eigenvalues --    0.08668   0.09148   0.09298   0.10365   0.10787
 Alpha virt. eigenvalues --    0.11982   0.12999   0.13559   0.14182   0.14370

 Mulliken charges:
               1
     1  C   -0.311729
     2  N   -0.402849
     3  C   -0.173098
     4  C   -0.086419
     5  C   -0.272916
     6  C   -0.007643
     7  C    0.045610
     8  C   -0.049898
     9  C   -0.442479
    10  C   -0.443181
    11  C   -0.442310
    12  C   -0.231224
    13  C    0.117065
    14  C   -0.223064
    15  C   -0.153689
    16  C   -0.212390
    17  C    0.123068
    18  C   -0.212228
    19  C   -0.151983
    20  C   -0.153914
    21  C   -0.213777
    22  C    0.058144
    23  H    0.157945
    24  H    0.157167
    25  H    0.134424
    26  H    0.165686
    27  H    0.142326
    28  H    0.147173
    29  H    0.169484
    30  H    0.153390
    31  H    0.154339
    32  H    0.154176
    33  H    0.153463
    34  H    0.154019
    35  H    0.154144
    36  H    0.154067
    37  H    0.153200
    38  H    0.154170
    39  H    0.165268
    40  H    0.167668
    41  H    0.145147
    42  H    0.149142
    43  H    0.149534
    44  H    0.151490
    45  H    0.150679
    46  H    0.150476
    47  H    0.152329
 Sum of Mulliken charges =  -0.00000

 Dipole moment (field-independent basis, Debye):
    X=             -0.2597    Y=              0.0040    Z=             -0.0255  Tot=              0.2610
 Quadrupole moment (field-independent basis, Debye-Ang):
   XX=           -109.7922   YY=           -122.6859   ZZ=           -134.8418
   XY=             -0.2392   XZ=             -2.2546   YZ=              0.1581

 Normal termination of Gaussian 16 at Wed Mar  2 06:26:31 2022.
