 Gaussian 16, Revision A.03,

 ----------------------------------------------------------------------
 #p b3lyp/6-31G(d) opt=(MaxStep=10,MaxCycles=1000) freq scf=(MaxCycle=2
 000,NoVarAcc,NoIncFock) scrf=(iefpcm,read,solvent=water)
 ----------------------------------------------------------------------

 -------------
 159.n.pdb.xyz
 -------------
 Symbolic Z-matrix:
 Charge =  0 Multiplicity = 1

 SCF Done:  E(RB3LYP) =  -765.253105156     A.U. after   13 cycles
 SCF Done:  E(RB3LYP) =  -765.256268139     A.U. after   11 cycles
 SCF Done:  E(RB3LYP) =  -765.253065379     A.U. after   11 cycles
 SCF Done:  E(RB3LYP) =  -765.254920504     A.U. after   12 cycles
 SCF Done:  E(RB3LYP) =  -765.257180211     A.U. after    8 cycles
 SCF Done:  E(RB3LYP) =  -765.257442420     A.U. after   11 cycles
 SCF Done:  E(RB3LYP) =  -765.258114931     A.U. after   11 cycles
 SCF Done:  E(RB3LYP) =  -765.257759572     A.U. after   11 cycles
 SCF Done:  E(RB3LYP) =  -765.258466753     A.U. after   10 cycles
 SCF Done:  E(RB3LYP) =  -765.258123408     A.U. after   11 cycles
 SCF Done:  E(RB3LYP) =  -765.263755374     A.U. after   10 cycles
 SCF Done:  E(RB3LYP) =  -765.263802325     A.U. after   10 cycles
 SCF Done:  E(RB3LYP) =  -765.263833581     A.U. after    9 cycles
 SCF Done:  E(RB3LYP) =  -765.263850809     A.U. after    8 cycles
 SCF Done:  E(RB3LYP) =  -765.263859126     A.U. after    8 cycles
 SCF Done:  E(RB3LYP) =  -765.263857628     A.U. after    7 cycles
 SCF Done:  E(RB3LYP) =  -765.263856835     A.U. after    6 cycles
 Optimization completed.
    -- Stationary point found.
 Normal termination of Gaussian 16 at Wed Mar  2 05:42:49 2022.

 --------------------------------------------------------------------
 #P Geom=AllCheck Guess=TCheck SCRF=Check GenChk RB3LYP/6-31G(d) Freq
 --------------------------------------------------------------------

 Structure from the checkpoint file:  "159.n.pdb.xyz.mst.wat.chk"
 -------------
 159.n.pdb.xyz
 -------------
 Charge =  0 Multiplicity = 1

 SCF Done:  E(RB3LYP) =  -765.263856835     A.U. after    1 cycles

  Exact polarizability: 185.334  13.913 186.070  19.396  -3.984 159.600
 Approx polarizability: 193.610  16.677 207.250  26.411  -6.084 179.345

                      1                      2                      3
                      A                      A                      A
 Frequencies --     30.2290                65.3415                72.4287
 Red. masses --      4.7105                 3.1487                 2.0975
 Frc consts  --      0.0025                 0.0079                 0.0065
 IR Inten    --      0.4411                 0.7097                 0.1913

                      4                      5                      6
                      A                      A                      A
 Frequencies --     75.3202                99.9107               133.7852
 Red. masses --      1.7137                 3.8499                 6.0554
 Frc consts  --      0.0057                 0.0226                 0.0639
 IR Inten    --      0.2883                 0.2126                 1.2423

                      7                      8                      9
                      A                      A                      A
 Frequencies --    142.2802               163.9589               178.4701
 Red. masses --      7.1694                 2.7017                 3.1400
 Frc consts  --      0.0855                 0.0428                 0.0589
 IR Inten    --     10.4456                 2.1325                 0.1499

                     10                     11                     12
                      A                      A                      A
 Frequencies --    192.8235               216.3954               234.5015
 Red. masses --      1.9395                 3.3441                 1.6489
 Frc consts  --      0.0425                 0.0923                 0.0534
 IR Inten    --      0.1825                 0.5556                 0.1671

                     13                     14                     15
                      A                      A                      A
 Frequencies --    247.2999               261.5682               308.1001
 Red. masses --      1.7002                 1.4159                 1.7373
 Frc consts  --      0.0613                 0.0571                 0.0972
 IR Inten    --      1.8515                 1.3350                 0.9508

                     16                     17                     18
                      A                      A                      A
 Frequencies --    320.1513               342.2764               356.5382
 Red. masses --      3.0111                 3.5807                 3.4248
 Frc consts  --      0.1818                 0.2472                 0.2565
 IR Inten    --      6.7142                14.1468                18.1589

                     19                     20                     21
                      A                      A                      A
 Frequencies --    386.6095               392.6209               433.6247
 Red. masses --      4.3475                 5.7955                 4.3939
 Frc consts  --      0.3829                 0.5264                 0.4868
 IR Inten    --     19.5097                43.1208                 2.7832

                     22                     23                     24
                      A                      A                      A
 Frequencies --    456.5687               508.6703               560.1711
 Red. masses --      2.9351                 8.9633                 3.9724
 Frc consts  --      0.3605                 1.3664                 0.7344
 IR Inten    --      1.4774                18.0591                49.9893

                     25                     26                     27
                      A                      A                      A
 Frequencies --    596.1858               642.1039               650.9375
 Red. masses --      1.1777                 4.2331                 1.1745
 Frc consts  --      0.2466                 1.0283                 0.2932
 IR Inten    --     59.7372                 7.8187               252.8437

                     28                     29                     30
                      A                      A                      A
 Frequencies --    696.3930               717.0092               726.4356
 Red. masses --      5.2563                 3.7033                 4.9784
 Frc consts  --      1.5019                 1.1217                 1.5479
 IR Inten    --      7.3459                 1.3133                68.8007

                     31                     32                     33
                      A                      A                      A
 Frequencies --    746.5344               749.4582               753.3503
 Red. masses --      6.9531                11.5313                 1.1212
 Frc consts  --      2.2831                 3.8161                 0.3749
 IR Inten    --      7.1040                49.7514                 9.2138

                     34                     35                     36
                      A                      A                      A
 Frequencies --    781.4210               866.8637               894.8573
 Red. masses --      1.3767                 1.4535                 1.7894
 Frc consts  --      0.4953                 0.6435                 0.8443
 IR Inten    --     24.2284                 0.0663                 3.3530

                     37                     38                     39
                      A                      A                      A
 Frequencies --    933.4653               951.2571               972.3902
 Red. masses --      2.2939                 2.2126                 2.5488
 Frc consts  --      1.1777                 1.1796                 1.4200
 IR Inten    --     14.8817                 3.1059                 5.4421

                     40                     41                     42
                      A                      A                      A
 Frequencies --    980.7755              1027.4959              1037.1606
 Red. masses --      2.1444                 1.3882                 2.1076
 Frc consts  --      1.2153                 0.8635                 1.3358
 IR Inten    --     25.2550                 1.0955                10.7814

                     43                     44                     45
                      A                      A                      A
 Frequencies --   1047.5432              1069.3102              1101.0348
 Red. masses --      3.0385                 2.3670                 2.2198
 Frc consts  --      1.9645                 1.5946                 1.5855
 IR Inten    --      6.0751                 4.3518                12.1806

                     46                     47                     48
                      A                      A                      A
 Frequencies --   1135.7309              1145.6402              1161.4431
 Red. masses --      2.2035                 1.8779                 2.9570
 Frc consts  --      1.6746                 1.4522                 2.3502
 IR Inten    --      3.4086                10.1571                74.8344

                     49                     50                     51
                      A                      A                      A
 Frequencies --   1184.3821              1206.1981              1239.7565
 Red. masses --      2.5944                 2.0292                 4.3094
 Frc consts  --      2.1442                 1.7394                 3.9025
 IR Inten    --      5.3338                 4.3060                97.1094

                     52                     53                     54
                      A                      A                      A
 Frequencies --   1281.6326              1317.7524              1335.8989
 Red. masses --      1.3403                 1.2953                 1.2631
 Frc consts  --      1.2971                 1.3252                 1.3281
 IR Inten    --      3.1304                81.2792                69.0502

                     55                     56                     57
                      A                      A                      A
 Frequencies --   1346.3742              1357.6104              1367.7254
 Red. masses --      1.1538                 2.3988                 1.4050
 Frc consts  --      1.2323                 2.6050                 1.5485
 IR Inten    --      2.3225               451.0292                86.8537

                     58                     59                     60
                      A                      A                      A
 Frequencies --   1386.6950              1407.4439              1414.0617
 Red. masses --      1.3317                 1.4446                 2.6818
 Frc consts  --      1.5087                 1.6860                 3.1595
 IR Inten    --      3.5224                14.9099               289.8800

                     61                     62                     63
                      A                      A                      A
 Frequencies --   1415.2740              1427.3691              1432.2476
 Red. masses --      1.4373                 1.2511                 1.2592
 Frc consts  --      1.6962                 1.5018                 1.5218
 IR Inten    --     11.0325                 9.1716                 7.0283

                     64                     65                     66
                      A                      A                      A
 Frequencies --   1435.3051              1437.3953              1464.4312
 Red. masses --      1.3528                 1.8987                 2.1243
 Frc consts  --      1.6420                 2.3114                 2.6841
 IR Inten    --     94.4292               200.4245               117.1587

                     67                     68                     69
                      A                      A                      A
 Frequencies --   1504.0359              1506.9129              1513.0395
 Red. masses --      1.0644                 1.0602                 1.0515
 Frc consts  --      1.4186                 1.4185                 1.4183
 IR Inten    --      4.2776                 5.2626                 2.9280

                     70                     71                     72
                      A                      A                      A
 Frequencies --   1514.3517              1518.1406              1521.9656
 Red. masses --      1.0531                 1.0413                 1.0642
 Frc consts  --      1.4229                 1.4140                 1.4524
 IR Inten    --      1.5941                 7.5672                 0.6375

                     73                     74                     75
                      A                      A                      A
 Frequencies --   1525.8695              1536.4175              1538.5090
 Red. masses --      1.0580                 1.0789                 1.0630
 Frc consts  --      1.4513                 1.5006                 1.4824
 IR Inten    --      6.2792                 0.3918                18.3957

                     76                     77                     78
                      A                      A                      A
 Frequencies --   1750.3899              1768.0707              1813.9140
 Red. masses --      9.8360                 6.9777                12.1579
 Frc consts  --     17.7557                12.8517                23.5690
 IR Inten    --    714.7184              1396.1445               181.6672

                     79                     80                     81
                      A                      A                      A
 Frequencies --   3045.4026              3046.4818              3053.3680
 Red. masses --      1.0633                 1.0784                 1.0372
 Frc consts  --      5.8102                 5.8967                 5.6972
 IR Inten    --     20.7785                34.4956                39.4752

                     82                     83                     84
                      A                      A                      A
 Frequencies --   3064.9798              3068.9304              3072.7476
 Red. masses --      1.0642                 1.0606                 1.0507
 Frc consts  --      5.8900                 5.8852                 5.8450
 IR Inten    --     74.3873                40.5705                67.6433

                     85                     86                     87
                      A                      A                      A
 Frequencies --   3077.5806              3084.8199              3113.8536
 Red. masses --      1.0900                 1.0451                 1.1013
 Frc consts  --      6.0825                 5.8594                 6.2915
 IR Inten    --      8.2728                42.7494                 8.5085

                     88                     89                     90
                      A                      A                      A
 Frequencies --   3121.0257              3123.6831              3128.0599
 Red. masses --      1.1018                 1.1019                 1.0947
 Frc consts  --      6.3234                 6.3348                 6.3110
 IR Inten    --    128.9128                66.9270                17.6881

                     91                     92                     93
                      A                      A                      A
 Frequencies --   3134.9315              3145.9796              3169.4543
 Red. masses --      1.0965                 1.1014                 1.1006
 Frc consts  --      6.3492                 6.4226                 6.5139
 IR Inten    --     74.8061                46.5983                26.6189

                     94                     95                     96
                      A                      A                      A
 Frequencies --   3179.7194              3559.7154              3562.9756
 Red. masses --      1.1008                 1.0773                 1.0800
 Frc consts  --      6.5575                 8.0430                 8.0782
 IR Inten    --     26.0299               246.8040               122.6785

 - Thermochemistry -
 -------------------
 Temperature   298.150 Kelvin.  Pressure   1.00000 Atm.
 Atom     1 has atomic number  6 and mass  12.00000

 Molecular mass:   226.13174 amu.
 Principal axes and moments of inertia in atomic units:
                           1         2         3
     Eigenvalues --  2636.188604495.672135297.60162
           X            0.99964  -0.02403  -0.01179
           Y            0.02440   0.99919   0.03209
           Z            0.01101  -0.03237   0.99942
 This molecule is an asymmetric top.
 Rotational symmetry number  1.
 Warning -- assumption of classical behavior for rotation
           may cause significant error
 Rotational temperatures (Kelvin)      0.03286     0.01927     0.01635
 Rotational constants (GHZ):           0.68460     0.40144     0.34067
 Zero-point vibrational energy     764337.9 (Joules/Mol)
                                  182.68115 (Kcal/Mol)
 Warning -- explicit consideration of  25 degrees of freedom as
           vibrations may cause significant error
 Vibrational temperatures:     43.49    94.01   104.21   108.37   143.75
          (Kelvin)            192.49   204.71   235.90   256.78   277.43
                              311.34   337.40   355.81   376.34   443.29
                              460.63   492.46   512.98   556.24   564.89
                              623.89   656.90   731.86   805.96   857.78
                              923.84   936.55  1001.95  1031.62  1045.18
                             1074.10  1078.30  1083.90  1124.29  1247.22
                             1287.50  1343.05  1368.65  1399.05  1411.12
                             1478.34  1492.24  1507.18  1538.50  1584.14
                             1634.06  1648.32  1671.06  1704.06  1735.45
                             1783.73  1843.98  1895.95  1922.06  1937.13
                             1953.30  1967.85  1995.14  2025.00  2034.52
                             2036.26  2053.67  2060.68  2065.08  2068.09
                             2106.99  2163.97  2168.11  2176.93  2178.81
                             2184.27  2189.77  2195.39  2210.56  2213.57
                             2518.42  2543.86  2609.82  4381.66  4383.21
                             4393.12  4409.82  4415.51  4421.00  4427.95
                             4438.37  4480.14  4490.46  4494.28  4500.58
                             4510.47  4526.36  4560.14  4574.91  5121.64
                             5126.33

 Zero-point correction=                           0.291121 (Hartree/Particle)
 Thermal correction to Energy=                    0.308003
 Thermal correction to Enthalpy=                  0.308947
 Thermal correction to Gibbs Free Energy=         0.246745
 Sum of electronic and zero-point Energies=           -764.972736
 Sum of electronic and thermal Energies=              -764.955854
 Sum of electronic and thermal Enthalpies=            -764.954910
 Sum of electronic and thermal Free Energies=         -765.017112

                     E (Thermal)             CV                S
                      KCal/Mol        Cal/Mol-Kelvin    Cal/Mol-Kelvin
 Total                  193.275             63.147            130.916
 Electronic               0.000              0.000              0.000
 Translational            0.889              2.981             42.150
 Rotational               0.889              2.981             32.507
 Vibrational            191.497             57.185             56.259
 Vibration     1          0.594              1.984              5.814
 Vibration     2          0.597              1.971              4.289
 Vibration     3          0.599              1.967              4.086
 Vibration     4          0.599              1.965              4.009
 Vibration     5          0.604              1.949              3.456
 Vibration     6          0.613              1.920              2.891
 Vibration     7          0.616              1.911              2.773
 Vibration     8          0.623              1.887              2.504
 Vibration     9          0.629              1.869              2.344
 Vibration    10          0.635              1.850              2.201
 Vibration    11          0.645              1.816              1.989
 Vibration    12          0.654              1.788              1.844
 Vibration    13          0.661              1.767              1.750
 Vibration    14          0.669              1.743              1.651
 Vibration    15          0.698              1.658              1.373
 Vibration    16          0.706              1.635              1.309
 Vibration    17          0.721              1.591              1.202
 Vibration    18          0.732              1.562              1.137
 Vibration    19          0.755              1.499              1.013
 Vibration    20          0.760              1.486              0.990
 Vibration    21          0.794              1.397              0.847
 Vibration    22          0.815              1.346              0.776
 Vibration    23          0.864              1.231              0.637
 Vibration    24          0.916              1.117              0.523
 Vibration    25          0.954              1.040              0.456

                           ! Non-Optimized Parameters !
 Normal termination of Gaussian 16 at Wed Mar  2 06:15:52 2022.

 ------------------------------------------
 #p b3lyp/6-31G(d) geom=allcheck guess=read
 ------------------------------------------

 Structure from the checkpoint file:  "159.n.pdb.xyz.mst.wat.chk"
 -------------
 159.n.pdb.xyz
 -------------
 Charge =  0 Multiplicity = 1

 SCF Done:  E(RB3LYP) =  -765.243944149     A.U. after   11 cycles
 Normal termination of Gaussian 16 at Wed Mar  2 06:18:14 2022.
 Gaussian 16:  ES64L-G16RevA.03 25-Dec-2016

 ----------------------------------------------------------------------
 #p b3lyp/6-31G(d) scrf=(iefpcm,read,solvent=water) geom=allcheck guess
 =read
 ----------------------------------------------------------------------

 Structure from the checkpoint file:  "159.n.pdb.xyz.mst.wat.chk"
 -------------
 159.n.pdb.xyz
 -------------
 Charge =  0 Multiplicity = 1

                         Standard orientation:
 ---------------------------------------------------------------------
 Center     Atomic      Atomic             Coordinates (Angstroms)
 Number     Number       Type             X           Y           Z
 ---------------------------------------------------------------------
      1          6           0        4.380624   -1.449645   -0.181106
      2          6           0        3.037440   -1.161617   -0.854434
      3          6           0        2.136336   -0.255493   -0.005993
      4          6           0        0.777097    0.034538   -0.671240
      5          6           0        0.921503    0.971057   -1.880197
      6          6           0       -0.310301    0.514353    0.402000
      7          6           0        0.176050    1.591181    1.407686
      8          6           0        0.834998    2.862149    0.864402
      9          6           0       -1.529980    1.009666   -0.373159
     10          8           0       -1.711070    2.178155   -0.677501
     11          7           0       -2.419975    0.038833   -0.806045
     12          6           0       -2.543547   -1.246915   -0.308342
     13          8           0       -3.409306   -2.019287   -0.685272
     14          7           0       -1.624154   -1.577680    0.672145
     15          6           0       -0.641647   -0.757930    1.198276
     16          8           0       -0.031465   -1.102810    2.198870
     17          1           0        4.239996   -1.937769    0.789531
     18          1           0        4.942545   -0.525141   -0.008522
     19          1           0        5.001360   -2.106497   -0.798434
     20          1           0        3.213851   -0.703257   -1.834418
     21          1           0        2.512058   -2.105695   -1.046807
     22          1           0        2.655386    0.689235    0.194960
     23          1           0        1.970462   -0.735802    0.962806
     24          1           0        0.401241   -0.919876   -1.059371
     25          1           0       -0.009146    1.062667   -2.445968
     26          1           0        1.243528    1.971908   -1.588524
     27          1           0        1.675601    0.558131   -2.554150
     28          1           0        0.865116    1.092415    2.092782
     29          1           0       -0.692006    1.876939    2.011576
     30          1           0        1.053050    3.533778    1.701830
     31          1           0        1.781770    2.649340    0.362504
     32          1           0        0.180815    3.383461    0.165756
     33          1           0       -3.177171    0.348107   -1.410802
     34          1           0       -1.766261   -2.476559    1.126412
 ---------------------------------------------------------------------

 SCF Done:  E(RB3LYP) =  -765.262991953     A.U. after   11 cycles

 The electronic state is 1-A.
 Alpha  occ. eigenvalues --  -19.14896 -19.14708 -19.14433 -14.39095 -14.39000
 Alpha  occ. eigenvalues --  -10.34953 -10.31970 -10.31871 -10.23063 -10.21072
 Alpha  occ. eigenvalues --  -10.18892 -10.17867 -10.17813 -10.17523 -10.17057
 Alpha  occ. eigenvalues --  -10.16970  -1.08834  -1.06296  -1.05915  -0.96431
 Alpha  occ. eigenvalues --   -0.92271  -0.84115  -0.78787  -0.74980  -0.72859
 Alpha  occ. eigenvalues --   -0.68170  -0.67367  -0.65086  -0.62422  -0.61234
 Alpha  occ. eigenvalues --   -0.57747  -0.56170  -0.54555  -0.49449  -0.49141
 Alpha  occ. eigenvalues --   -0.47890  -0.46992  -0.46108  -0.45040  -0.44918
 Alpha  occ. eigenvalues --   -0.44206  -0.42565  -0.41471  -0.40689  -0.40679
 Alpha  occ. eigenvalues --   -0.39326  -0.38434  -0.37798  -0.36722  -0.36086
 Alpha  occ. eigenvalues --   -0.35283  -0.34694  -0.33673  -0.32599  -0.32407
 Alpha  occ. eigenvalues --   -0.31126  -0.30787  -0.29574  -0.29351  -0.28165
 Alpha  occ. eigenvalues --   -0.26256
 Alpha virt. eigenvalues --   -0.04477   0.00281   0.06023   0.08638   0.10151
 Alpha virt. eigenvalues --    0.10821   0.11739   0.12224   0.12831   0.14293
 Alpha virt. eigenvalues --    0.14879   0.15943   0.16314   0.16854   0.17394

 Mulliken charges:
               1
     1  C   -0.452229
     2  C   -0.260453
     3  C   -0.274500
     4  C   -0.099437
     5  C   -0.474622
     6  C   -0.130241
     7  C   -0.264001
     8  C   -0.470985
     9  C    0.644596
    10  O   -0.529231
    11  N   -0.654090
    12  C    0.778344
    13  O   -0.540964
    14  N   -0.659333
    15  C    0.651058
    16  O   -0.527595
    17  H    0.146380
    18  H    0.146663
    19  H    0.146890
    20  H    0.143672
    21  H    0.138528
    22  H    0.145760
    23  H    0.156864
    24  H    0.149435
    25  H    0.158575
    26  H    0.165196
    27  H    0.162994
    28  H    0.167113
    29  H    0.151581
    30  H    0.147359
    31  H    0.155893
    32  H    0.169562
    33  H    0.405203
    34  H    0.406016
 Sum of Mulliken charges =  -0.00000

 Dipole moment (field-independent basis, Debye):
    X=              1.1503    Y=             -0.5144    Z=             -1.0548  Tot=              1.6433
 Quadrupole moment (field-independent basis, Debye-Ang):
   XX=            -99.7364   YY=           -104.1577   ZZ=            -99.6683
   XY=             -1.8626   XZ=             -5.0961   YZ=              0.9215

 Normal termination of Gaussian 16 at Wed Mar  2 06:21:01 2022.
