 Gaussian 16, Revision A.03,

 ----------------------------------------------------------------------
 #p b3lyp/6-31G(d) opt=(MaxStep=10,MaxCycles=1000) freq scf=(MaxCycle=2
 000,NoVarAcc,NoIncFock) scrf=(iefpcm,read,solvent=water)
 ----------------------------------------------------------------------

 -------------
 160.n.pdb.xyz
 -------------
 Symbolic Z-matrix:
 Charge =  0 Multiplicity = 1

 SCF Done:  E(RB3LYP) =  -837.138840217     A.U. after   11 cycles
 SCF Done:  E(RB3LYP) =  -837.139274416     A.U. after    9 cycles
 SCF Done:  E(RB3LYP) =  -837.139306988     A.U. after    8 cycles
 SCF Done:  E(RB3LYP) =  -837.139310766     A.U. after    8 cycles
 Optimization completed.
    -- Stationary point found.
 Normal termination of Gaussian 16 at Tue Mar  1 04:07:37 2022.

 --------------------------------------------------------------------
 #P Geom=AllCheck Guess=TCheck SCRF=Check GenChk RB3LYP/6-31G(d) Freq
 --------------------------------------------------------------------

 Structure from the checkpoint file:  "160.n.pdb.xyz.mst.wat.chk"
 -------------
 160.n.pdb.xyz
 -------------
 Charge =  0 Multiplicity = 1

 SCF Done:  E(RB3LYP) =  -837.139310766     A.U. after    1 cycles

  Exact polarizability:  45.483  -6.804  35.837  -0.016   0.023  32.017
 Approx polarizability:  51.086  -9.812  41.942  -0.022   0.025  37.863

                      1                      2                      3
                      A                      A                      A
 Frequencies --     96.5257               179.7897               347.8770
 Red. masses --      5.9573                18.2963                16.4750
 Frc consts  --      0.0327                 0.3485                 1.1747
 IR Inten    --      5.3019                 2.9607                 0.3693

                      4                      5                      6
                      A                      A                      A
 Frequencies --    349.0669               521.0362               524.8172
 Red. masses --      3.4801                 7.5190                13.0913
 Frc consts  --      0.2498                 1.2027                 2.1245
 IR Inten    --      1.7775                 2.8278                10.8329

                      7                      8                      9
                      A                      A                      A
 Frequencies --    624.6922               777.6547               850.8377
 Red. masses --      9.3864                 6.9695                 6.9609
 Frc consts  --      2.1582                 2.4833                 2.9690
 IR Inten    --     42.4263                59.2764                21.9725

                     10                     11                     12
                      A                      A                      A
 Frequencies --    924.4751              1116.5293              1166.1486
 Red. masses --      1.8401                 1.6779                 6.0445
 Frc consts  --      0.9266                 1.2324                 4.8430
 IR Inten    --     25.5234               184.3849               367.0370

                     13                     14                     15
                      A                      A                      A
 Frequencies --   1270.7895              1296.9329              1365.4218
 Red. masses --      3.4401                 1.9443                 1.8058
 Frc consts  --      3.2732                 1.9269                 1.9836
 IR Inten    --    210.9434               179.2458                56.1870

                     16                     17                     18
                      A                      A                      A
 Frequencies --   1492.5168              3153.2593              3223.4700
 Red. masses --      1.1119                 1.0589                 1.1115
 Frc consts  --      1.4593                 6.2034                 6.8048
 IR Inten    --     22.7479                 8.9532                 0.1117

 - Thermochemistry -
 -------------------
 Temperature   298.150 Kelvin.  Pressure   1.00000 Atm.
 Atom     1 has atomic number  9 and mass  18.99840

 Molecular mass:   117.97971 amu.
 Principal axes and moments of inertia in atomic units:
                           1         2         3
     Eigenvalues --   342.602861016.496161027.64163
           X            0.99996   0.00890   0.00002
           Y           -0.00890   0.99996   0.00232
           Z           -0.00000  -0.00232   1.00000
 This molecule is an asymmetric top.
 Rotational symmetry number  1.
 Rotational temperatures (Kelvin)      0.25281     0.08521     0.08428
 Rotational constants (GHZ):           5.26774     1.77545     1.75620
 Zero-point vibrational energy     115331.0 (Joules/Mol)
                                   27.56477 (Kcal/Mol)
 Warning -- explicit consideration of   6 degrees of freedom as
           vibrations may cause significant error
 Vibrational temperatures:    138.88   258.68   500.52   502.23   749.65
          (Kelvin)            755.09   898.79  1118.87  1224.17  1330.11
                             1606.44  1677.83  1828.38  1866.00  1964.54
                             2147.40  4536.84  4637.85

 Zero-point correction=                           0.043927 (Hartree/Particle)
 Thermal correction to Energy=                    0.049662
 Thermal correction to Enthalpy=                  0.050606
 Thermal correction to Gibbs Free Energy=         0.013489
 Sum of electronic and zero-point Energies=           -837.095384
 Sum of electronic and thermal Energies=              -837.089649
 Sum of electronic and thermal Enthalpies=            -837.088705
 Sum of electronic and thermal Free Energies=         -837.125822

                     E (Thermal)             CV                S
                      KCal/Mol        Cal/Mol-Kelvin    Cal/Mol-Kelvin
 Total                   31.163             19.045             78.119
 Electronic               0.000              0.000              0.000
 Translational            0.889              2.981             40.211
 Rotational               0.889              2.981             27.373
 Vibrational             29.386             13.083             10.535
 Vibration     1          0.603              1.952              3.523
 Vibration     2          0.629              1.867              2.331
 Vibration     3          0.726              1.580              1.176
 Vibration     4          0.726              1.577              1.170
 Vibration     5          0.876              1.203              0.608
 Vibration     6          0.880              1.195              0.599

 Optimization completed.
    -- Stationary point found.
 Normal termination of Gaussian 16 at Tue Mar  1 04:08:39 2022.

 ------------------------------------------
 #p b3lyp/6-31G(d) geom=allcheck guess=read
 ------------------------------------------

 Structure from the checkpoint file:  "160.n.pdb.xyz.mst.wat.chk"
 -------------
 160.n.pdb.xyz
 -------------
 Charge =  0 Multiplicity = 1

 SCF Done:  E(RB3LYP) =  -837.139624331     A.U. after   10 cycles
 Normal termination of Gaussian 16 at Tue Mar  1 04:08:48 2022.
 Gaussian 16:  ES64L-G16RevA.03 25-Dec-2016

 ----------------------------------------------------------------------
 #p b3lyp/6-31G(d) scrf=(iefpcm,read,solvent=water) geom=allcheck guess
 =read
 ----------------------------------------------------------------------

 Structure from the checkpoint file:  "160.n.pdb.xyz.mst.wat.chk"
 -------------
 160.n.pdb.xyz
 -------------
 Charge =  0 Multiplicity = 1

                         Standard orientation:
 ---------------------------------------------------------------------
 Center     Atomic      Atomic             Coordinates (Angstroms)
 Number     Number       Type             X           Y           Z
 ---------------------------------------------------------------------
      1          9           0       -0.838139   -0.789652    1.086388
      2          6           0       -0.784871    0.003930    0.000082
      3          9           0       -1.889653    0.776710   -0.002192
      4          9           0       -0.834461   -0.790709   -1.085419
      5          6           0        0.441760    0.896926    0.001143
      6         17           0        1.955693   -0.071278    0.000111
      7          1           0        0.435428    1.521504    0.892756
      8          1           0        0.436726    1.517944   -0.890989
 ---------------------------------------------------------------------

 SCF Done:  E(RB3LYP) =  -837.139182747     A.U. after   10 cycles

 The electronic state is 1-A.
 Alpha  occ. eigenvalues -- -101.55536 -24.73621 -24.73460 -24.73455 -10.44593
 Alpha  occ. eigenvalues --  -10.26741  -9.47206  -7.23631  -7.22608  -7.22582
 Alpha  occ. eigenvalues --   -1.31426  -1.22708  -1.22593  -0.87944  -0.75788
 Alpha  occ. eigenvalues --   -0.66624  -0.59585  -0.59428  -0.55591  -0.47953
 Alpha  occ. eigenvalues --   -0.46960  -0.46205  -0.44755  -0.42038  -0.41635
 Alpha  occ. eigenvalues --   -0.40902  -0.40025  -0.31925  -0.31557
 Alpha virt. eigenvalues --    0.00617   0.10897   0.11627   0.18046   0.19601
 Alpha virt. eigenvalues --    0.20420   0.21202   0.37008   0.42885   0.43936
 Alpha virt. eigenvalues --    0.44054   0.48469   0.51227   0.53934   0.56453

 Mulliken charges:
               1
     1  F   -0.259929
     2  C    0.819802
     3  F   -0.264192
     4  F   -0.259814
     5  C   -0.464202
     6  Cl  -0.069965
     7  H    0.249087
     8  H    0.249214
 Sum of Mulliken charges =  -0.00000

 Dipole moment (field-independent basis, Debye):
    X=             -0.1379    Y=              2.4073    Z=              0.0010  Tot=              2.4112
 Quadrupole moment (field-independent basis, Debye-Ang):
   XX=            -42.9974   YY=            -36.7021   ZZ=            -38.8704
   XY=              0.6110   XZ=             -0.0016   YZ=              0.0074

 Normal termination of Gaussian 16 at Tue Mar  1 04:08:59 2022.
