 Gaussian 16, Revision A.03,

 ----------------------------------------------------------------------
 #p b3lyp/6-31G(d) opt=(MaxStep=10,MaxCycles=1000) freq scf=(MaxCycle=2
 000,NoVarAcc,NoIncFock) scrf=(iefpcm,read,solvent=water)
 ----------------------------------------------------------------------

 -------------
 163.n.pdb.xyz
 -------------
 Symbolic Z-matrix:
 Charge =  0 Multiplicity = 1

 SCF Done:  E(RB3LYP) =  -272.989145309     A.U. after   11 cycles
 SCF Done:  E(RB3LYP) =  -272.990312380     A.U. after    9 cycles
 SCF Done:  E(RB3LYP) =  -272.990409582     A.U. after    9 cycles
 SCF Done:  E(RB3LYP) =  -272.990382712     A.U. after    7 cycles
 SCF Done:  E(RB3LYP) =  -272.990391835     A.U. after    7 cycles
 SCF Done:  E(RB3LYP) =  -272.990408656     A.U. after    8 cycles
 SCF Done:  E(RB3LYP) =  -272.990408366     A.U. after    6 cycles
 SCF Done:  E(RB3LYP) =  -272.990408290     A.U. after    4 cycles
 SCF Done:  E(RB3LYP) =  -272.990408270     A.U. after    4 cycles
 SCF Done:  E(RB3LYP) =  -272.990408265     A.U. after    2 cycles
 SCF Done:  E(RB3LYP) =  -272.990408264     A.U. after    2 cycles
 SCF Done:  E(RB3LYP) =  -272.990393673     A.U. after    7 cycles
 SCF Done:  E(RB3LYP) =  -272.990409194     A.U. after    7 cycles
 SCF Done:  E(RB3LYP) =  -272.990392878     A.U. after    7 cycles
 Optimization completed.
    -- Stationary point found.
 Normal termination of Gaussian 16 at Tue Mar  1 17:23:07 2022.

 --------------------------------------------------------------------
 #P Geom=AllCheck Guess=TCheck SCRF=Check GenChk RB3LYP/6-31G(d) Freq
 --------------------------------------------------------------------

 Structure from the checkpoint file:  "163.n.pdb.xyz.mst.wat.chk"
 -------------
 163.n.pdb.xyz
 -------------
 Charge =  0 Multiplicity = 1

 SCF Done:  E(RB3LYP) =  -272.990392878     A.U. after    1 cycles

  Exact polarizability:  77.415  -1.714  71.854  -1.394   0.832  73.008
 Approx polarizability:  76.215  -2.135  73.313  -0.948   0.406  78.060

                      1                      2                      3
                      A                      A                      A
 Frequencies --     95.2342               191.5389               224.8109
 Red. masses --      1.8270                 1.2534                 1.0935
 Frc consts  --      0.0098                 0.0271                 0.0326
 IR Inten    --      3.0720                 2.5910                 4.7380

                      4                      5                      6
                      A                      A                      A
 Frequencies --    250.5136               278.1974               328.7466
 Red. masses --      1.6450                 1.2272                 1.1698
 Frc consts  --      0.0608                 0.0560                 0.0745
 IR Inten    --      3.8975                 0.6846               140.0359

                      7                      8                      9
                      A                      A                      A
 Frequencies --    338.0150               364.5761               411.6669
 Red. masses --      1.8915                 2.5656                 2.2064
 Frc consts  --      0.1273                 0.2009                 0.2203
 IR Inten    --     45.2471                 8.5039                 2.2878

                     10                     11                     12
                      A                      A                      A
 Frequencies --    457.5076               522.7841               732.0262
 Red. masses --      2.9415                 2.7722                 3.2273
 Frc consts  --      0.3628                 0.4464                 1.0189
 IR Inten    --     12.4980                 9.0859                 3.5109

                     13                     14                     15
                      A                      A                      A
 Frequencies --    788.4008               894.4675               932.0671
 Red. masses --      1.1989                 2.1282                 1.5538
 Frc consts  --      0.4391                 1.0032                 0.7953
 IR Inten    --      1.9046                33.3261                 2.7640

                     16                     17                     18
                      A                      A                      A
 Frequencies --    955.3986              1009.8316              1017.4668
 Red. masses --      2.2332                 1.2672                 1.5225
 Frc consts  --      1.2010                 0.7614                 0.9286
 IR Inten    --     46.5174                 7.3204                 7.4158

                     19                     20                     21
                      A                      A                      A
 Frequencies --   1073.6330              1083.0038              1176.3758
 Red. masses --      1.8108                 1.6860                 1.5069
 Frc consts  --      1.2298                 1.1651                 1.2286
 IR Inten    --     39.7677                 9.7755                66.2123

                     22                     23                     24
                      A                      A                      A
 Frequencies --   1221.5203              1237.5464              1338.8904
 Red. masses --      2.5095                 2.5157                 1.2635
 Frc consts  --      2.2062                 2.2700                 1.3345
 IR Inten    --     69.1818                22.4497                 5.2249

                     25                     26                     27
                      A                      A                      A
 Frequencies --   1378.2246              1410.6979              1417.5917
 Red. masses --      1.3443                 1.3068                 1.5929
 Frc consts  --      1.5045                 1.5323                 1.8859
 IR Inten    --     37.4307                21.1080                24.4565

                     28                     29                     30
                      A                      A                      A
 Frequencies --   1422.9859              1439.6403              1500.3298
 Red. masses --      1.3257                 1.2534                 1.0461
 Frc consts  --      1.5816                 1.5306                 1.3874
 IR Inten    --     12.5374                 2.5790                 1.5627

                     31                     32                     33
                      A                      A                      A
 Frequencies --   1503.9122              1508.6320              1510.5525
 Red. masses --      1.0581                 1.0469                 1.0546
 Frc consts  --      1.4100                 1.4038                 1.4178
 IR Inten    --      0.5549                 6.1352                 1.5859

                     34                     35                     36
                      A                      A                      A
 Frequencies --   1525.4824              1526.7620              1532.5855
 Red. masses --      1.0631                 1.0670                 1.1038
 Frc consts  --      1.4577                 1.4654                 1.5276
 IR Inten    --      7.1262                 9.4084                 3.3803

                     37                     38                     39
                      A                      A                      A
 Frequencies --   3050.9030              3055.1031              3061.3485
 Red. masses --      1.0390                 1.0530                 1.0383
 Frc consts  --      5.6980                 5.7908                 5.7335
 IR Inten    --     17.0522                77.9013                49.5166

                     40                     41                     42
                      A                      A                      A
 Frequencies --   3065.7048              3093.4698              3116.9563
 Red. masses --      1.0396                 1.1007                 1.1019
 Frc consts  --      5.7570                 6.2058                 6.3075
 IR Inten    --      8.5188                28.9788                20.8439

                     43                     44                     45
                      A                      A                      A
 Frequencies --   3123.9102              3124.3622              3131.3378
 Red. masses --      1.1021                 1.1021                 1.1028
 Frc consts  --      6.3370                 6.3388                 6.3709
 IR Inten    --    129.3453                22.2575                60.7278

                     46                     47                     48
                      A                      A                      A
 Frequencies --   3139.5779              3142.8438              3734.5309
 Red. masses --      1.1019                 1.1018                 1.0661
 Frc consts  --      6.3993                 6.4121                 8.7607
 IR Inten    --     90.7451                43.3225                51.9417

 - Thermochemistry -
 -------------------
 Temperature   298.150 Kelvin.  Pressure   1.00000 Atm.
 Atom     1 has atomic number  6 and mass  12.00000

 Molecular mass:    88.08882 amu.
 Principal axes and moments of inertia in atomic units:
                           1         2         3
     Eigenvalues --   398.49822 697.65777 714.00370
           X            0.99995   0.00404   0.00894
           Y           -0.00446   0.99885   0.04772
           Z           -0.00874  -0.04776   0.99882
 This molecule is an asymmetric top.
 Rotational symmetry number  1.
 Rotational temperatures (Kelvin)      0.21735     0.12415     0.12131
 Rotational constants (GHZ):           4.52886     2.58686     2.52764
 Zero-point vibrational energy     433297.4 (Joules/Mol)
                                  103.56056 (Kcal/Mol)
 Warning -- explicit consideration of  11 degrees of freedom as
           vibrations may cause significant error
 Vibrational temperatures:    137.02   275.58   323.45   360.43   400.26
          (Kelvin)            472.99   486.33   524.54   592.30   658.25
                              752.17  1053.22  1134.33  1286.94  1341.04
                             1374.61  1452.92  1463.91  1544.72  1558.20
                             1692.54  1757.50  1780.55  1926.36  1982.96
                             2029.68  2039.60  2047.36  2071.32  2158.64
                             2163.79  2170.58  2173.35  2194.83  2196.67
                             2205.05  4389.57  4395.61  4404.60  4410.87
                             4450.81  4484.60  4494.61  4495.26  4505.30
                             4517.15  4521.85  5373.16

 Zero-point correction=                           0.165034 (Hartree/Particle)
 Thermal correction to Energy=                    0.173089
 Thermal correction to Enthalpy=                  0.174033
 Thermal correction to Gibbs Free Energy=         0.133908
 Sum of electronic and zero-point Energies=           -272.825359
 Sum of electronic and thermal Energies=              -272.817304
 Sum of electronic and thermal Enthalpies=            -272.816360
 Sum of electronic and thermal Free Energies=         -272.856485

                     E (Thermal)             CV                S
                      KCal/Mol        Cal/Mol-Kelvin    Cal/Mol-Kelvin
 Total                  108.615             29.681             84.452
 Electronic               0.000              0.000              0.000
 Translational            0.889              2.981             39.340
 Rotational               0.889              2.981             26.787
 Vibrational            106.838             23.719             18.325
 Vibration     1          0.603              1.953              3.550
 Vibration     2          0.634              1.852              2.213
 Vibration     3          0.649              1.803              1.920
 Vibration     4          0.663              1.762              1.727
 Vibration     5          0.679              1.714              1.545
 Vibration     6          0.712              1.618              1.266
 Vibration     7          0.718              1.600              1.222
 Vibration     8          0.738              1.545              1.103
 Vibration     9          0.776              1.445              0.921
 Vibration    10          0.816              1.344              0.773
 Vibration    11          0.878              1.200              0.604

 Optimization completed.
    -- Stationary point found.
 Normal termination of Gaussian 16 at Tue Mar  1 17:26:51 2022.

 ------------------------------------------
 #p b3lyp/6-31G(d) geom=allcheck guess=read
 ------------------------------------------

 Structure from the checkpoint file:  "163.n.pdb.xyz.mst.wat.chk"
 -------------
 163.n.pdb.xyz
 -------------
 Charge =  0 Multiplicity = 1

 SCF Done:  E(RB3LYP) =  -272.983021656     A.U. after   10 cycles

 1\1\GINC-PIRINEUS6\SP\RB3LYP\6-31G(d)\C5H12O1\UBATOR01\01-Mar-2022\0\\
 #p b3lyp/6-31G(d) geom=allcheck guess=read\\163.n.pdb.xyz\\0,1\C,0,2.0
 657822625,-0.5490782562,-0.1052839467\C,0,1.0077104654,0.5245540934,0.
 1533875202\C,0,-0.4337368997,0.1159414367,-0.1964760831\C,0,-0.9053789
 946,-1.0889482336,0.6270458214\C,0,-1.3764883406,1.3077941701,0.011149
 8339\O,0,-0.4086741562,-0.2325306104,-1.5952570528\H,0,2.0504112655,-0
 .8631012801,-1.1521145594\H,0,1.9028249718,-1.4365206902,0.5138156469\
 H,0,3.0659486385,-0.1670380026,0.1209685354\H,0,1.2489555402,1.4194617

 Normal termination of Gaussian 16 at Tue Mar  1 17:27:16 2022.
 Gaussian 16:  ES64L-G16RevA.03 25-Dec-2016

 ----------------------------------------------------------------------
 #p b3lyp/6-31G(d) scrf=(iefpcm,read,solvent=water) geom=allcheck guess
 =read
 ----------------------------------------------------------------------

 Structure from the checkpoint file:  "163.n.pdb.xyz.mst.wat.chk"
 -------------
 163.n.pdb.xyz
 -------------
 Charge =  0 Multiplicity = 1

                         Standard orientation:
 ---------------------------------------------------------------------
 Center     Atomic      Atomic             Coordinates (Angstroms)
 Number     Number       Type             X           Y           Z
 ---------------------------------------------------------------------
      1          6           0        2.158740   -0.024908   -0.011738
      2          6           0        0.861467   -0.705959   -0.450333
      3          6           0       -0.429187   -0.005532    0.008746
      4          6           0       -0.539834    1.418696   -0.549577
      5          6           0       -1.648208   -0.838852   -0.405945
      6          8           0       -0.352976    0.042179    1.447692
      7          1           0        2.197026    0.070115    1.076474
      8          1           0        2.255328    0.977488   -0.439834
      9          1           0        3.027633   -0.607128   -0.333489
     10          1           0        0.839281   -1.729839   -0.057547
     11          1           0        0.834383   -0.790542   -1.542572
     12          1           0       -0.563649    1.413043   -1.644151
     13          1           0        0.305902    2.032219   -0.227847
     14          1           0       -1.460791    1.896385   -0.197349
     15          1           0       -1.577337   -1.847774    0.012059
     16          1           0       -1.721956   -0.921463   -1.494987
     17          1           0       -2.573406   -0.379159   -0.040329
     18          1           0       -1.156478    0.488553    1.761114
 ---------------------------------------------------------------------

 SCF Done:  E(RB3LYP) =  -272.989303668     A.U. after    9 cycles

 The electronic state is 1-A.
 Alpha  occ. eigenvalues --  -19.13338 -10.23468 -10.17422 -10.16814 -10.16808
 Alpha  occ. eigenvalues --  -10.16678  -1.00663  -0.78937  -0.72767  -0.68470
 Alpha  occ. eigenvalues --   -0.62628  -0.55392  -0.48123  -0.45520  -0.43277
 Alpha  occ. eigenvalues --   -0.41724  -0.40591  -0.39131  -0.37790  -0.35801
 Alpha  occ. eigenvalues --   -0.34532  -0.33684  -0.32808  -0.30537  -0.26067
 Alpha virt. eigenvalues --    0.07565   0.12052   0.13017   0.13758   0.14527
 Alpha virt. eigenvalues --    0.16534   0.17479   0.17704   0.18938   0.19807
 Alpha virt. eigenvalues --    0.22098   0.22719   0.23369   0.25305   0.25491

 Mulliken charges:
               1
     1  C   -0.459025
     2  C   -0.251147
     3  C    0.313370
     4  C   -0.469670
     5  C   -0.463142
     6  O   -0.686794
     7  H    0.152502
     8  H    0.147079
     9  H    0.142778
    10  H    0.133434
    11  H    0.136556
    12  H    0.147396
    13  H    0.154151
    14  H    0.143249
    15  H    0.147243
    16  H    0.146728
    17  H    0.142660
    18  H    0.422634
 Sum of Mulliken charges =  -0.00000

 Dipole moment (field-independent basis, Debye):
    X=             -1.5211    Y=              0.7522    Z=             -1.0012  Tot=              1.9703
 Quadrupole moment (field-independent basis, Debye-Ang):
   XX=            -37.4764   YY=            -39.3005   ZZ=            -40.1348
   XY=             -1.4357   XZ=             -2.6573   YZ=              1.5057

 1\1\GINC-PIRINEUS6\SP\RB3LYP\6-31G(d)\C5H12O1\UBATOR01\01-Mar-2022\0\\
 #p b3lyp/6-31G(d) scrf=(iefpcm,read,solvent=water) geom=allcheck guess
 =read\\163.n.pdb.xyz\\0,1\C,0,2.0657822625,-0.5490782562,-0.1052839467
 \C,0,1.0077104654,0.5245540934,0.1533875202\C,0,-0.4337368997,0.115941
 4367,-0.1964760831\C,0,-0.9053789946,-1.0889482336,0.6270458214\C,0,-1
 .3764883406,1.3077941701,0.0111498339\O,0,-0.4086741562,-0.2325306104,
 -1.5952570528\H,0,2.0504112655,-0.8631012801,-1.1521145594\H,0,1.90282
 49718,-1.4365206902,0.5138156469\H,0,3.0659486385,-0.1670380026,0.1209

 Normal termination of Gaussian 16 at Tue Mar  1 17:27:44 2022.
