 Gaussian 16, Revision A.03,

 ----------------------------------------------------------------------
 #p b3lyp/6-31G(d) opt=(MaxStep=10,MaxCycles=1000) freq scf=(MaxCycle=2
 000,NoVarAcc,NoIncFock) scrf=(iefpcm,read,solvent=water)
 ----------------------------------------------------------------------

 -------------
 164.n.pdb.xyz
 -------------
 Symbolic Z-matrix:
 Charge =  0 Multiplicity = 1

 SCF Done:  E(RB3LYP) =  -1106.60099650     A.U. after   14 cycles
 SCF Done:  E(RB3LYP) =  -1106.60528518     A.U. after   11 cycles
 SCF Done:  E(RB3LYP) =  -1106.60428466     A.U. after   12 cycles
 SCF Done:  E(RB3LYP) =  -1106.60636746     A.U. after   12 cycles
 SCF Done:  E(RB3LYP) =  -1106.60522942     A.U. after   12 cycles
 SCF Done:  E(RB3LYP) =  -1106.60656493     A.U. after   12 cycles
 SCF Done:  E(RB3LYP) =  -1106.60797789     A.U. after   11 cycles
 SCF Done:  E(RB3LYP) =  -1106.60809723     A.U. after   11 cycles
 SCF Done:  E(RB3LYP) =  -1106.60810966     A.U. after   10 cycles
 SCF Done:  E(RB3LYP) =  -1106.60811117     A.U. after    9 cycles
 SCF Done:  E(RB3LYP) =  -1106.60811296     A.U. after    8 cycles
 SCF Done:  E(RB3LYP) =  -1106.60811874     A.U. after    8 cycles
 SCF Done:  E(RB3LYP) =  -1106.60812350     A.U. after    7 cycles
 SCF Done:  E(RB3LYP) =  -1106.60812936     A.U. after    7 cycles
 SCF Done:  E(RB3LYP) =  -1106.60813218     A.U. after    7 cycles
 Optimization completed.
    -- Stationary point found.
 Normal termination of Gaussian 16 at Tue Mar  1 21:14:57 2022.

 --------------------------------------------------------------------
 #P Geom=AllCheck Guess=TCheck SCRF=Check GenChk RB3LYP/6-31G(d) Freq
 --------------------------------------------------------------------

 Structure from the checkpoint file:  "164.n.pdb.xyz.mst.wat.chk"
 -------------
 164.n.pdb.xyz
 -------------
 Charge =  0 Multiplicity = 1

 SCF Done:  E(RB3LYP) =  -1106.60813218     A.U. after    1 cycles

  Exact polarizability: 315.849 -16.648 353.301  23.553  24.737 190.197
 Approx polarizability: 363.837 -13.721 409.909  38.332  33.313 229.767

                      1                      2                      3
                      A                      A                      A
 Frequencies --     26.8474                41.0648                53.9109
 Red. masses --      7.0956                 6.3335                 9.9332
 Frc consts  --      0.0030                 0.0063                 0.0170
 IR Inten    --      0.5946                 3.5027                 0.4466

                      4                      5                      6
                      A                      A                      A
 Frequencies --     65.1163                73.4193               103.0367
 Red. masses --      9.3976                 5.6290                 4.7940
 Frc consts  --      0.0235                 0.0179                 0.0300
 IR Inten    --      6.5199                 1.2610                 5.6531

                      7                      8                      9
                      A                      A                      A
 Frequencies --    115.6444               148.9056               157.9009
 Red. masses --      4.2387                 4.3188                 6.5202
 Frc consts  --      0.0334                 0.0564                 0.0958
 IR Inten    --      4.0536                 0.4266                 3.6023

                     10                     11                     12
                      A                      A                      A
 Frequencies --    165.3749               208.3421               221.9700
 Red. masses --      1.2486                 5.1890                 6.1977
 Frc consts  --      0.0201                 0.1327                 0.1799
 IR Inten    --      0.0037                 6.4367                 1.8995

                     13                     14                     15
                      A                      A                      A
 Frequencies --    248.1031               284.3767               297.0945
 Red. masses --      5.4363                 6.6999                 5.5109
 Frc consts  --      0.1972                 0.3192                 0.2866
 IR Inten    --      3.5307                 1.2885                 5.6895

                     16                     17                     18
                      A                      A                      A
 Frequencies --    317.0543               331.8221               380.7414
 Red. masses --      7.5152                 4.3425                 4.7389
 Frc consts  --      0.4451                 0.2817                 0.4047
 IR Inten    --      3.0055                11.4369                 3.8399

                     19                     20                     21
                      A                      A                      A
 Frequencies --    395.7652               420.7251               426.4763
 Red. masses --      3.9328                 5.8904                 5.3979
 Frc consts  --      0.3629                 0.6143                 0.5785
 IR Inten    --     18.3359                 9.5452                 1.3655

                     22                     23                     24
                      A                      A                      A
 Frequencies --    452.5561               489.7338               500.9889
 Red. masses --      5.4218                 4.5946                 4.3642
 Frc consts  --      0.6542                 0.6493                 0.6454
 IR Inten    --      9.1067                 4.7226                12.1942

                     25                     26                     27
                      A                      A                      A
 Frequencies --    510.5507               536.1105               549.4245
 Red. masses --      4.1953                 4.4782                 5.6404
 Frc consts  --      0.6443                 0.7583                 1.0032
 IR Inten    --      1.4244                10.5345                 9.7203

                     28                     29                     30
                      A                      A                      A
 Frequencies --    554.6357               562.8196               596.7976
 Red. masses --      4.5813                 4.9539                 5.4610
 Frc consts  --      0.8303                 0.9246                 1.1460
 IR Inten    --      1.0754                 5.4600                10.6892

                     31                     32                     33
                      A                      A                      A
 Frequencies --    634.3134               657.8273               691.7585
 Red. masses --      5.5152                 5.4037                 6.5280
 Frc consts  --      1.3074                 1.3777                 1.8405
 IR Inten    --      9.8043                24.4586                 3.0697

                     34                     35                     36
                      A                      A                      A
 Frequencies --    703.3311               734.8268               760.2232
 Red. masses --      5.4940                 5.4519                 3.3915
 Frc consts  --      1.6013                 1.7345                 1.1548
 IR Inten    --      6.5649                10.4577                33.9602

                     37                     38                     39
                      A                      A                      A
 Frequencies --    763.9261               777.9752               784.7143
 Red. masses --      6.0812                 2.7888                 1.9832
 Frc consts  --      2.0909                 0.9945                 0.7195
 IR Inten    --     37.3531                59.3923                26.0654

                     40                     41                     42
                      A                      A                      A
 Frequencies --    789.5113               830.3631               860.2606
 Red. masses --      7.2333                 5.9150                 1.6529
 Frc consts  --      2.6565                 2.4029                 0.7207
 IR Inten    --    109.8073                40.6086                23.4777

                     43                     44                     45
                      A                      A                      A
 Frequencies --    881.3250               899.4160               932.7768
 Red. masses --      1.3955                 6.7561                 2.8327
 Frc consts  --      0.6387                 3.2201                 1.4521
 IR Inten    --      2.6427                31.3680                44.2352

                     46                     47                     48
                      A                      A                      A
 Frequencies --    947.1425               965.1857               971.5896
 Red. masses --      1.5513                 1.6041                 2.7098
 Frc consts  --      0.8200                 0.8804                 1.5071
 IR Inten    --     36.5410                15.2399                 3.3870

                     49                     50                     51
                      A                      A                      A
 Frequencies --    993.3690               997.5332              1003.8132
 Red. masses --      1.3245                 1.2697                 2.9638
 Frc consts  --      0.7701                 0.7444                 1.7595
 IR Inten    --      0.5586                 0.4620                47.8940

                     52                     53                     54
                      A                      A                      A
 Frequencies --   1045.4844              1066.0753              1090.6473
 Red. masses --      4.7903                 2.1699                 3.6206
 Frc consts  --      3.0850                 1.4530                 2.5375
 IR Inten    --     11.1900                15.2690               157.0524

                     55                     56                     57
                      A                      A                      A
 Frequencies --   1120.7442              1137.3075              1153.7115
 Red. masses --      2.0881                 1.8735                 1.6860
 Frc consts  --      1.5453                 1.4278                 1.3222
 IR Inten    --    106.0780               115.1572               111.7977

                     58                     59                     60
                      A                      A                      A
 Frequencies --   1159.8110              1180.7006              1183.1827
 Red. masses --      1.3885                 1.6588                 1.1570
 Frc consts  --      1.1004                 1.3624                 0.9543
 IR Inten    --      7.4666                 6.3682                 5.4486

                     61                     62                     63
                      A                      A                      A
 Frequencies --   1197.3996              1243.4262              1257.2972
 Red. masses --      2.1559                 1.3487                 3.1686
 Frc consts  --      1.8212                 1.2285                 2.9512
 IR Inten    --     29.4708                44.5194                89.0386

                     64                     65                     66
                      A                      A                      A
 Frequencies --   1293.1660              1299.2139              1314.5753
 Red. masses --      1.7127                 1.6695                 2.8621
 Frc consts  --      1.6875                 1.6603                 2.9141
 IR Inten    --     26.0874                35.5840                83.0672

                     67                     68                     69
                      A                      A                      A
 Frequencies --   1332.5362              1350.5002              1356.6223
 Red. masses --      3.3795                 1.6903                 5.8941
 Frc consts  --      3.5356                 1.8163                 6.3912
 IR Inten    --     62.4266               310.0918               242.8018

                     70                     71                     72
                      A                      A                      A
 Frequencies --   1359.2790              1386.7219              1391.5511
 Red. masses --      4.0695                 6.0789                 7.6011
 Frc consts  --      4.4301                 6.8874                 8.6721
 IR Inten    --    726.2496               407.9929               146.6041

                     73                     74                     75
                      A                      A                      A
 Frequencies --   1453.8711              1468.2942              1492.5374
 Red. masses --      3.8820                 1.2674                 2.3501
 Frc consts  --      4.8346                 1.6098                 3.0845
 IR Inten    --     63.5701                18.2932                46.4728

                     76                     77                     78
                      A                      A                      A
 Frequencies --   1508.6673              1509.4991              1525.5542
 Red. masses --      1.0956                 1.0913                 2.3917
 Frc consts  --      1.4692                 1.4651                 3.2795
 IR Inten    --     42.9702                 4.6592               101.8469

                     79                     80                     81
                      A                      A                      A
 Frequencies --   1534.3012              1541.7279              1583.7944
 Red. masses --      2.7101                 1.1255                11.2760
 Frc consts  --      3.7588                 1.5761                16.6650
 IR Inten    --     95.9133                39.3363               236.4395

                     82                     83                     84
                      A                      A                      A
 Frequencies --   1629.5665              1631.8525              1658.6070
 Red. masses --      7.2504                 6.1890                 7.2977
 Frc consts  --     11.3438                 9.7103                11.8283
 IR Inten    --    135.2039                72.5791               353.3418

                     85                     86                     87
                      A                      A                      A
 Frequencies --   1664.5143              1682.8870              1751.1972
 Red. masses --      6.7567                10.3596                10.6050
 Frc consts  --     11.0297                17.2864                19.1616
 IR Inten    --    101.0093               183.9438               902.4968

                     88                     89                     90
                      A                      A                      A
 Frequencies --   3044.8011              3090.9879              3164.0721
 Red. masses --      1.0691                 1.0406                 1.0956
 Frc consts  --      5.8396                 5.8579                 6.4623
 IR Inten    --     31.9555                47.8065                42.6207

                     91                     92                     93
                      A                      A                      A
 Frequencies --   3172.8018              3215.8832              3216.6530
 Red. masses --      1.0970                 1.0863                 1.1050
 Frc consts  --      6.5062                 6.6194                 6.7361
 IR Inten    --     20.6619                 0.1717                 2.4102

                     94                     95                     96
                      A                      A                      A
 Frequencies --   3224.3062              3234.5972              3241.8731
 Red. masses --      1.0901                 1.0941                 1.0966
 Frc consts  --      6.6774                 6.7447                 6.7905
 IR Inten    --     14.9237                26.0081                12.2614

                     97                     98                     99
                      A                      A                      A
 Frequencies --   3255.2360              3267.6980              3268.3915
 Red. masses --      1.0892                 1.0910                 1.0947
 Frc consts  --      6.8000                 6.8638                 6.8897
 IR Inten    --      2.7157                 1.9374                 2.0395

 - Thermochemistry -
 -------------------
 Temperature   298.150 Kelvin.  Pressure   1.00000 Atm.
 Atom     1 has atomic number  6 and mass  12.00000

 Molecular mass:   313.08627 amu.
 Principal axes and moments of inertia in atomic units:
                           1         2         3
     Eigenvalues --  6577.518757306.23568**********
           X            0.98520  -0.17140  -0.00314
           Y            0.17141   0.98520   0.00130
           Z            0.00287  -0.00182   0.99999
 This molecule is an asymmetric top.
 Rotational symmetry number  1.
 Warning -- assumption of classical behavior for rotation
           may cause significant error
 Rotational temperatures (Kelvin)      0.01317     0.01185     0.00730
 Rotational constants (GHZ):           0.27438     0.24701     0.15202
 Zero-point vibrational energy     686492.7 (Joules/Mol)
                                  164.07569 (Kcal/Mol)
 Warning -- explicit consideration of  30 degrees of freedom as
           vibrations may cause significant error
 Vibrational temperatures:     38.63    59.08    77.57    93.69   105.63
          (Kelvin)            148.25   166.39   214.24   227.18   237.94
                              299.76   319.37   356.97   409.15   427.45
                              456.17   477.42   547.80   569.42   605.33
                              613.60   651.13   704.62   720.81   734.57
                              771.34   790.50   798.00   809.77   858.66
                              912.64   946.47   995.29  1011.94  1057.25
                             1093.79  1099.12  1119.33  1129.03  1135.93
                             1194.71  1237.72  1268.03  1294.06  1342.06
                             1362.73  1388.69  1397.90  1429.24  1435.23
                             1444.26  1504.22  1533.84  1569.20  1612.50
                             1636.33  1659.93  1668.71  1698.76  1702.34
                             1722.79  1789.01  1808.97  1860.58  1869.28
                             1891.38  1917.22  1943.07  1951.88  1955.70
                             1995.18  2002.13  2091.80  2112.55  2147.43
                             2170.64  2171.83  2194.93  2207.52  2218.20
                             2278.73  2344.58  2347.87  2386.37  2394.86
                             2421.30  2519.58  4380.79  4447.24  4552.39
                             4564.95  4626.94  4628.05  4639.06  4653.86
                             4664.33  4683.56  4701.49  4702.49

 Zero-point correction=                           0.261471 (Hartree/Particle)
 Thermal correction to Energy=                    0.280016
 Thermal correction to Enthalpy=                  0.280960
 Thermal correction to Gibbs Free Energy=         0.213510
 Sum of electronic and zero-point Energies=          -1106.346661
 Sum of electronic and thermal Energies=             -1106.328116
 Sum of electronic and thermal Enthalpies=           -1106.327172
 Sum of electronic and thermal Free Energies=        -1106.394622

                     E (Thermal)             CV                S
                      KCal/Mol        Cal/Mol-Kelvin    Cal/Mol-Kelvin
 Total                  175.713             71.735            141.960
 Electronic               0.000              0.000              0.000
 Translational            0.889              2.981             43.120
 Rotational               0.889              2.981             34.700
 Vibrational            173.935             65.774             64.141
 Vibration     1          0.593              1.984              6.050
 Vibration     2          0.594              1.981              5.207
 Vibration     3          0.596              1.976              4.669
 Vibration     4          0.597              1.971              4.296
 Vibration     5          0.599              1.967              4.060
 Vibration     6          0.605              1.947              3.396
 Vibration     7          0.608              1.936              3.172
 Vibration     8          0.618              1.904              2.686
 Vibration     9          0.621              1.894              2.575
 Vibration    10          0.624              1.885              2.487
 Vibration    11          0.642              1.828              2.058
 Vibration    12          0.648              1.808              1.943
 Vibration    13          0.662              1.766              1.744
 Vibration    14          0.683              1.703              1.507
 Vibration    15          0.691              1.679              1.433
 Vibration    16          0.704              1.641              1.325
 Vibration    17          0.714              1.612              1.251
 Vibration    18          0.750              1.511              1.036
 Vibration    19          0.762              1.479              0.978
 Vibration    20          0.783              1.425              0.890
 Vibration    21          0.788              1.413              0.870
 Vibration    22          0.811              1.355              0.788
 Vibration    23          0.846              1.273              0.684
 Vibration    24          0.856              1.248              0.656
 Vibration    25          0.866              1.227              0.632
 Vibration    26          0.891              1.170              0.574
 Vibration    27          0.905              1.141              0.545
 Vibration    28          0.910              1.130              0.535
 Vibration    29          0.919              1.112              0.518
 Vibration    30          0.955              1.039              0.455

                           ! Non-Optimized Parameters !
 Normal termination of Gaussian 16 at Tue Mar  1 22:07:26 2022.

 ------------------------------------------
 #p b3lyp/6-31G(d) geom=allcheck guess=read
 ------------------------------------------

 Structure from the checkpoint file:  "164.n.pdb.xyz.mst.wat.chk"
 -------------
 164.n.pdb.xyz
 -------------
 Charge =  0 Multiplicity = 1

 SCF Done:  E(RB3LYP) =  -1106.59219578     A.U. after   13 cycles
 Normal termination of Gaussian 16 at Tue Mar  1 22:11:35 2022.
 Gaussian 16:  ES64L-G16RevA.03 25-Dec-2016

 ----------------------------------------------------------------------
 #p b3lyp/6-31G(d) scrf=(iefpcm,read,solvent=water) geom=allcheck guess
 =read
 ----------------------------------------------------------------------

 Structure from the checkpoint file:  "164.n.pdb.xyz.mst.wat.chk"
 -------------
 164.n.pdb.xyz
 -------------
 Charge =  0 Multiplicity = 1

                         Standard orientation:
 ---------------------------------------------------------------------
 Center     Atomic      Atomic             Coordinates (Angstroms)
 Number     Number       Type             X           Y           Z
 ---------------------------------------------------------------------
      1          6           0        2.822849   -2.450448    1.557403
      2          7           0        1.884798   -2.019629    0.510765
      3          6           0        1.764366   -0.646910    0.233631
      4          6           0        2.893046    0.173040    0.435870
      5          6           0        2.841240    1.535808    0.210622
      6          6           0        1.635737    2.099250   -0.210997
      7          6           0        0.496813    1.327305   -0.383790
      8          6           0        0.538518   -0.053823   -0.169595
      9          6           0       -0.715762   -0.834099   -0.338064
     10          7           0       -0.777653   -1.988850   -0.898718
     11          6           0        0.464831   -2.532537   -1.434163
     12          6           0        1.351787   -3.014452   -0.296750
     13          8           0        1.580259   -4.198963   -0.089543
     14          6           0       -1.972612   -0.233508    0.189771
     15          6           0       -3.180225   -0.286742   -0.518540
     16          9           0       -3.211319   -0.837844   -1.750219
     17          6           0       -4.363680    0.239481   -0.018540
     18          6           0       -4.361114    0.837281    1.241351
     19          6           0       -3.176814    0.911439    1.977234
     20          6           0       -1.998647    0.389253    1.449199
     21          7           0        1.565011    3.530219   -0.459062
     22          8           0        0.496688    4.004060   -0.855117
     23          8           0        2.579002    4.204869   -0.261538
     24          1           0        3.846791   -2.512822    1.178952
     25          1           0        2.512350   -3.437824    1.890508
     26          1           0        2.782147   -1.745220    2.386207
     27          1           0        3.823999   -0.277198    0.752688
     28          1           0        3.713826    2.160453    0.345324
     29          1           0       -0.427758    1.803559   -0.679265
     30          1           0        1.009313   -1.792020   -2.034865
     31          1           0        0.240934   -3.397932   -2.056208
     32          1           0       -5.262836    0.177871   -0.620243
     33          1           0       -5.282226    1.246617    1.641434
     34          1           0       -3.169919    1.374740    2.957046
     35          1           0       -1.079452    0.446446    2.021233
 ---------------------------------------------------------------------

 SCF Done:  E(RB3LYP) =  -1106.60658283     A.U. after   12 cycles

 The electronic state is 1-A.
 Alpha  occ. eigenvalues --  -24.71333 -19.19107 -19.19086 -19.14081 -14.58251
 Alpha  occ. eigenvalues --  -14.39750 -14.34436 -10.30985 -10.28361 -10.27182
 Alpha  occ. eigenvalues --  -10.25879 -10.25648 -10.23151 -10.22891 -10.22616
 Alpha  occ. eigenvalues --  -10.22539 -10.22231 -10.21777 -10.21562 -10.20752
 Alpha  occ. eigenvalues --  -10.20591 -10.20186 -10.19823  -1.23341  -1.22518
 Alpha  occ. eigenvalues --   -1.06047  -1.05884  -0.97559  -0.94204  -0.89463
 Alpha  occ. eigenvalues --   -0.87030  -0.81777  -0.79671  -0.77678  -0.75693
 Alpha  occ. eigenvalues --   -0.74533  -0.72450  -0.69809  -0.66131  -0.63875
 Alpha  occ. eigenvalues --   -0.62477  -0.61806  -0.59293  -0.57050  -0.55955
 Alpha  occ. eigenvalues --   -0.54036  -0.54001  -0.53094  -0.52064  -0.50572
 Alpha  occ. eigenvalues --   -0.50402  -0.49275  -0.48516  -0.47940  -0.46900
 Alpha  occ. eigenvalues --   -0.46297  -0.45687  -0.45099  -0.44436  -0.44156
 Alpha  occ. eigenvalues --   -0.42690  -0.41515  -0.40473  -0.40226  -0.39373
 Alpha  occ. eigenvalues --   -0.38909  -0.38322  -0.37574  -0.36945  -0.35405
 Alpha  occ. eigenvalues --   -0.33672  -0.32250  -0.32164  -0.31666  -0.30234
 Alpha  occ. eigenvalues --   -0.28766  -0.27867  -0.26959  -0.25714  -0.24896
 Alpha  occ. eigenvalues --   -0.24696
 Alpha virt. eigenvalues --   -0.09886  -0.06439  -0.03115  -0.01661  -0.00609
 Alpha virt. eigenvalues --    0.00882   0.03969   0.08819   0.09009   0.11647
 Alpha virt. eigenvalues --    0.12830   0.13038   0.14064   0.14144   0.14863

 Mulliken charges:
               1
     1  C   -0.338089
     2  N   -0.517707
     3  C    0.307040
     4  C   -0.177881
     5  C   -0.150874
     6  C    0.313720
     7  C   -0.210322
     8  C    0.068709
     9  C    0.228086
    10  N   -0.446987
    11  C   -0.256583
    12  C    0.593326
    13  O   -0.538969
    14  C    0.009201
    15  C    0.339839
    16  F   -0.292985
    17  C   -0.206469
    18  C   -0.135295
    19  C   -0.146128
    20  C   -0.174884
    21  N    0.386731
    22  O   -0.433720
    23  O   -0.431264
    24  H    0.191088
    25  H    0.199309
    26  H    0.190331
    27  H    0.190475
    28  H    0.197862
    29  H    0.198674
    30  H    0.193909
    31  H    0.183231
    32  H    0.170289
    33  H    0.167800
    34  H    0.161982
    35  H    0.166555
 Sum of Mulliken charges =  -0.00000

 Dipole moment (field-independent basis, Debye):
    X=              2.0075    Y=              0.2612    Z=              3.6987  Tot=              4.2165
 Quadrupole moment (field-independent basis, Debye-Ang):
   XX=           -107.0433   YY=           -176.9907   ZZ=           -121.2741
   XY=            -12.7636   XZ=             -1.1764   YZ=              3.4090

 Normal termination of Gaussian 16 at Tue Mar  1 22:16:09 2022.
