 Gaussian 16, Revision A.03,

 ----------------------------------------------------------------------
 #p b3lyp/6-31G(d) opt=(MaxStep=10,MaxCycles=1000) freq scf=(MaxCycle=2
 000,NoVarAcc,NoIncFock) scrf=(iefpcm,read,solvent=water)
 ----------------------------------------------------------------------

 -------------
 165.n.pdb.xyz
 -------------
 Symbolic Z-matrix:
 Charge =  0 Multiplicity = 1

 SCF Done:  E(RB3LYP) =  -641.078198111     A.U. after   13 cycles
 SCF Done:  E(RB3LYP) =  -641.082329404     A.U. after   10 cycles
 SCF Done:  E(RB3LYP) =  -641.083440843     A.U. after   11 cycles
 SCF Done:  E(RB3LYP) =  -641.083778867     A.U. after   10 cycles
 SCF Done:  E(RB3LYP) =  -641.083787049     A.U. after    9 cycles
 SCF Done:  E(RB3LYP) =  -641.083787235     A.U. after    8 cycles
 SCF Done:  E(RB3LYP) =  -641.083789552     A.U. after    7 cycles
 Optimization completed.
    -- Stationary point found.
 Normal termination of Gaussian 16 at Tue Mar  1 21:13:21 2022.

 --------------------------------------------------------------------
 #P Geom=AllCheck Guess=TCheck SCRF=Check GenChk RB3LYP/6-31G(d) Freq
 --------------------------------------------------------------------

 Structure from the checkpoint file:  "165.n.pdb.xyz.mst.wat.chk"
 -------------
 165.n.pdb.xyz
 -------------
 Charge =  0 Multiplicity = 1

 SCF Done:  E(RB3LYP) =  -641.083789552     A.U. after    1 cycles

  Exact polarizability: 182.205  -2.770 160.678   0.000   0.001  64.857
 Approx polarizability: 197.400   1.062 202.022  -0.001   0.003  75.143

                      1                      2                      3
                      A                      A                      A
 Frequencies --     85.3672                97.9043               109.4082
 Red. masses --      2.2782                 1.3160                 2.5305
 Frc consts  --      0.0098                 0.0074                 0.0178
 IR Inten    --      2.1314                 2.3811                 3.3689

                      4                      5                      6
                      A                      A                      A
 Frequencies --    124.0801               157.3539               207.5152
 Red. masses --      1.6266                 3.6372                 4.5222
 Frc consts  --      0.0148                 0.0531                 0.1147
 IR Inten    --      1.6870                 3.8594                 0.8878

                      7                      8                      9
                      A                      A                      A
 Frequencies --    210.8883               265.5333               351.5353
 Red. masses --      3.4417                 5.0765                 3.3985
 Frc consts  --      0.0902                 0.2109                 0.2474
 IR Inten    --     12.5961                 2.4882                17.4386

                     10                     11                     12
                      A                      A                      A
 Frequencies --    356.8021               394.8591               406.4238
 Red. masses --      8.0767                 5.5146                 9.4290
 Frc consts  --      0.6058                 0.5066                 0.9176
 IR Inten    --      0.0138                22.1229                21.6614

                     13                     14                     15
                      A                      A                      A
 Frequencies --    455.5525               483.1147               522.8413
 Red. masses --      6.7391                 5.8659                 1.0884
 Frc consts  --      0.8240                 0.8067                 0.1753
 IR Inten    --     33.4831                24.5372               192.2002

                     16                     17                     18
                      A                      A                      A
 Frequencies --    619.4912               625.3626               677.8923
 Red. masses --      3.7440                11.0759                 5.3080
 Frc consts  --      0.8465                 2.5521                 1.4372
 IR Inten    --     21.2769                 0.7941                 1.9619

                     19                     20                     21
                      A                      A                      A
 Frequencies --    700.7347               713.1313               739.3937
 Red. masses --      9.3643                 4.7068                10.8115
 Frc consts  --      2.7091                 1.4103                 3.4825
 IR Inten    --      1.8628                33.0904                49.5367

                     22                     23                     24
                      A                      A                      A
 Frequencies --    750.5572               837.9923               866.3708
 Red. masses --     11.1115                 7.4980                 1.4281
 Frc consts  --      3.6880                 3.1022                 0.6316
 IR Inten    --      1.9276                 0.7301                11.1437

                     25                     26                     27
                      A                      A                      A
 Frequencies --    937.9184              1021.6710              1093.0732
 Red. masses --      4.1478                 2.3849                 1.6455
 Frc consts  --      2.1498                 1.4667                 1.1584
 IR Inten    --     13.6001               225.7629                 7.9816

                     28                     29                     30
                      A                      A                      A
 Frequencies --   1141.6336              1161.3787              1162.4424
 Red. masses --      4.2706                 1.2909                 1.3036
 Frc consts  --      3.2794                 1.0258                 1.0379
 IR Inten    --     32.0702                 0.6980                 0.0516

                     31                     32                     33
                      A                      A                      A
 Frequencies --   1189.4831              1230.3979              1274.4757
 Red. masses --      6.1155                 1.7301                 2.5506
 Frc consts  --      5.0980                 1.5431                 2.4410
 IR Inten    --      1.8219                66.3790                57.6412

                     34                     35                     36
                      A                      A                      A
 Frequencies --   1298.8876              1337.9417              1372.8500
 Red. masses --      5.6397                 2.3877                 6.6320
 Frc consts  --      5.6059                 2.5182                 7.3644
 IR Inten    --     60.5083               104.3609                68.2177

                     37                     38                     39
                      A                      A                      A
 Frequencies --   1396.1032              1440.8225              1464.7920
 Red. masses --      3.7992                 1.7455                 1.3709
 Frc consts  --      4.3630                 2.1350                 1.7330
 IR Inten    --    113.1977                 5.1263                58.0322

                     40                     41                     42
                      A                      A                      A
 Frequencies --   1474.4934              1501.1659              1508.3914
 Red. masses --      2.0427                 1.0406                 1.0450
 Frc consts  --      2.6166                 1.3817                 1.4008
 IR Inten    --    114.8178                14.4532                13.0114

                     43                     44                     45
                      A                      A                      A
 Frequencies --   1512.5930              1518.3516              1544.4902
 Red. masses --      1.4449                 1.0804                 1.7980
 Frc consts  --      1.9478                 1.4675                 2.5270
 IR Inten    --    131.1328                32.1558                78.8618

                     46                     47                     48
                      A                      A                      A
 Frequencies --   1602.0498              1630.2518              1707.1784
 Red. masses --      5.2433                11.0214                11.5892
 Frc consts  --      7.9288                17.2583                19.9004
 IR Inten    --    281.4552               142.0360              1482.2983

                     49                     50                     51
                      A                      A                      A
 Frequencies --   1763.9121              3099.2705              3103.3774
 Red. masses --      9.8352                 1.0346                 1.0315
 Frc consts  --     18.0296                 5.8553                 5.8533
 IR Inten    --    905.9559                47.8373                39.8846

                     52                     53                     54
                      A                      A                      A
 Frequencies --   3164.6539              3179.6900              3199.3124
 Red. masses --      1.1066                 1.1073                 1.1064
 Frc consts  --      6.5300                 6.5958                 6.6720
 IR Inten    --     25.3846                14.6617                11.5588

                     55                     56                     57
                      A                      A                      A
 Frequencies --   3224.2780              3296.0988              3594.9593
 Red. masses --      1.1018                 1.0977                 1.0797
 Frc consts  --      6.7485                 7.0263                 8.2211
 IR Inten    --      1.7191                 1.2888               253.2508

 - Thermochemistry -
 -------------------
 Temperature   298.150 Kelvin.  Pressure   1.00000 Atm.
 Atom     1 has atomic number  6 and mass  12.00000

 Molecular mass:   180.06473 amu.
 Principal axes and moments of inertia in atomic units:
                           1         2         3
     Eigenvalues --  1237.302582481.798793696.38126
           X            1.00000  -0.00190  -0.00000
           Y            0.00190   1.00000  -0.00000
           Z            0.00000   0.00000   1.00000
 This molecule is an asymmetric top.
 Rotational symmetry number  1.
 Warning -- assumption of classical behavior for rotation
           may cause significant error
 Rotational temperatures (Kelvin)      0.07000     0.03490     0.02343
 Rotational constants (GHZ):           1.45861     0.72719     0.48825
 Zero-point vibrational energy     424127.0 (Joules/Mol)
                                  101.36878 (Kcal/Mol)
 Warning -- explicit consideration of  16 degrees of freedom as
           vibrations may cause significant error
 Vibrational temperatures:    122.82   140.86   157.41   178.52   226.40
          (Kelvin)            298.57   303.42   382.04   505.78   513.36
                              568.11   584.75   655.44   695.09   752.25
                              891.31   899.76   975.34  1008.20  1026.04
                             1063.82  1079.88  1205.68  1246.51  1349.46
                             1469.96  1572.69  1642.56  1670.96  1672.50
                             1711.40  1770.27  1833.69  1868.81  1925.00
                             1975.22  2008.68  2073.02  2107.51  2121.47
                             2159.84  2170.24  2176.28  2184.57  2222.18
                             2304.99  2345.57  2456.25  2537.88  4459.16
                             4465.07  4553.23  4574.86  4603.10  4639.02
                             4742.35  5172.34

 Zero-point correction=                           0.161541 (Hartree/Particle)
 Thermal correction to Energy=                    0.172762
 Thermal correction to Enthalpy=                  0.173706
 Thermal correction to Gibbs Free Energy=         0.124384
 Sum of electronic and zero-point Energies=           -640.922248
 Sum of electronic and thermal Energies=              -640.911027
 Sum of electronic and thermal Enthalpies=            -640.910083
 Sum of electronic and thermal Free Energies=         -640.959405

                     E (Thermal)             CV                S
                      KCal/Mol        Cal/Mol-Kelvin    Cal/Mol-Kelvin
 Total                  108.410             41.671            103.807
 Electronic               0.000              0.000              0.000
 Translational            0.889              2.981             41.471
 Rotational               0.889              2.981             30.807
 Vibrational            106.632             35.710             31.528
 Vibration     1          0.601              1.959              3.764
 Vibration     2          0.603              1.951              3.496
 Vibration     3          0.606              1.942              3.279
 Vibration     4          0.610              1.929              3.036
 Vibration     5          0.621              1.894              2.581
 Vibration     6          0.641              1.829              2.065
 Vibration     7          0.643              1.824              2.036
 Vibration     8          0.671              1.736              1.625
 Vibration     9          0.728              1.572              1.159
 Vibration    10          0.732              1.561              1.136
 Vibration    11          0.762              1.481              0.982
 Vibration    12          0.771              1.456              0.939
 Vibration    13          0.814              1.349              0.779
 Vibration    14          0.839              1.287              0.702
 Vibration    15          0.878              1.199              0.603
 Vibration    16          0.979              0.991              0.417

 Optimization completed.
    -- Stationary point found.
 Normal termination of Gaussian 16 at Tue Mar  1 21:25:08 2022.

 ------------------------------------------
 #p b3lyp/6-31G(d) geom=allcheck guess=read
 ------------------------------------------

 Structure from the checkpoint file:  "165.n.pdb.xyz.mst.wat.chk"
 -------------
 165.n.pdb.xyz
 -------------
 Charge =  0 Multiplicity = 1

 SCF Done:  E(RB3LYP) =  -641.064007381     A.U. after   12 cycles
 Normal termination of Gaussian 16 at Tue Mar  1 21:26:26 2022.
 Gaussian 16:  ES64L-G16RevA.03 25-Dec-2016

 ----------------------------------------------------------------------
 #p b3lyp/6-31G(d) scrf=(iefpcm,read,solvent=water) geom=allcheck guess
 =read
 ----------------------------------------------------------------------

 Structure from the checkpoint file:  "165.n.pdb.xyz.mst.wat.chk"
 -------------
 165.n.pdb.xyz
 -------------
 Charge =  0 Multiplicity = 1

                         Standard orientation:
 ---------------------------------------------------------------------
 Center     Atomic      Atomic             Coordinates (Angstroms)
 Number     Number       Type             X           Y           Z
 ---------------------------------------------------------------------
      1          6           0        2.960871    1.405409   -0.000085
      2          7           0        2.148103    0.195509    0.000109
      3          6           0        2.596484   -1.078368   -0.000051
      4          7           0        1.622858   -1.993053    0.000041
      5          6           0        0.490598   -1.244717    0.000001
      6          6           0        0.763055    0.109808    0.000082
      7          6           0       -0.257109    1.112109    0.000090
      8          8           0       -0.085741    2.333258    0.000044
      9          7           0       -1.555395    0.542282   -0.000058
     10          6           0       -2.706050    1.448568   -0.000032
     11          6           0       -1.868975   -0.824325   -0.000118
     12          8           0       -3.034392   -1.213554    0.000074
     13          7           0       -0.802620   -1.696631   -0.000059
     14          1           0        2.749570    1.999861    0.889073
     15          1           0        4.008761    1.109235   -0.000254
     16          1           0        2.749241    1.999740   -0.889241
     17          1           0        3.652525   -1.305034   -0.000033
     18          1           0       -2.318120    2.463012    0.000199
     19          1           0       -3.317432    1.278633    0.887341
     20          1           0       -3.317297    1.278953   -0.887618
     21          1           0       -1.010055   -2.689680    0.000040
 ---------------------------------------------------------------------

 SCF Done:  E(RB3LYP) =  -641.083146271     A.U. after   11 cycles

 The electronic state is 1-A.
 Alpha  occ. eigenvalues --  -19.13064 -19.12623 -14.41365 -14.39211 -14.38911
 Alpha  occ. eigenvalues --  -14.33776 -10.33383 -10.31149 -10.26788 -10.26387
 Alpha  occ. eigenvalues --  -10.23033 -10.22622 -10.21365  -1.07248  -1.04549
 Alpha  occ. eigenvalues --   -1.03688  -0.96684  -0.93315  -0.89892  -0.78725
 Alpha  occ. eigenvalues --   -0.73000  -0.72190  -0.66561  -0.64084  -0.62118
 Alpha  occ. eigenvalues --   -0.57906  -0.54188  -0.52188  -0.49826  -0.47589
 Alpha  occ. eigenvalues --   -0.47235  -0.46432  -0.44498  -0.43489  -0.42868
 Alpha  occ. eigenvalues --   -0.42626  -0.41439  -0.40520  -0.39360  -0.39151
 Alpha  occ. eigenvalues --   -0.33043  -0.30918  -0.29337  -0.28172  -0.27122
 Alpha  occ. eigenvalues --   -0.26634  -0.22378
 Alpha virt. eigenvalues --   -0.03102   0.01906   0.03751   0.10667   0.10932
 Alpha virt. eigenvalues --    0.12068   0.13258   0.13388   0.15083   0.15413
 Alpha virt. eigenvalues --    0.16994   0.17583   0.17802   0.18923   0.19972

 Mulliken charges:
               1
     1  C   -0.317004
     2  N   -0.479151
     3  C    0.227478
     4  N   -0.563617
     5  C    0.494955
     6  C    0.230930
     7  C    0.648931
     8  O   -0.587544
     9  N   -0.556394
    10  C   -0.314128
    11  C    0.798332
    12  O   -0.583852
    13  N   -0.751408
    14  H    0.198055
    15  H    0.194544
    16  H    0.198088
    17  H    0.204985
    18  H    0.190469
    19  H    0.181431
    20  H    0.181414
    21  H    0.403486
 Sum of Mulliken charges =  -0.00000

 Dipole moment (field-independent basis, Debye):
    X=              5.3072    Y=              0.2041    Z=             -0.0008  Tot=              5.3111
 Quadrupole moment (field-independent basis, Debye-Ang):
   XX=            -66.7493   YY=            -81.0461   ZZ=            -72.9586
   XY=              0.2411   XZ=             -0.0005   YZ=              0.0001

 Normal termination of Gaussian 16 at Tue Mar  1 21:27:48 2022.
