 Gaussian 16, Revision A.03,

 ----------------------------------------------------------------------
 #p b3lyp/6-31G(d) opt=(MaxStep=10,MaxCycles=1000) freq scf=(MaxCycle=2
 000,NoVarAcc,NoIncFock) scrf=(iefpcm,read,solvent=water)
 ----------------------------------------------------------------------

 -------------
 167.n.pdb.xyz
 -------------
 Symbolic Z-matrix:
 Charge =  0 Multiplicity = 1

 SCF Done:  E(RB3LYP) =  -558.129108743     A.U. after   13 cycles
 SCF Done:  E(RB3LYP) =  -558.132040502     A.U. after   11 cycles
 SCF Done:  E(RB3LYP) =  -558.130234419     A.U. after   11 cycles
 SCF Done:  E(RB3LYP) =  -558.133141455     A.U. after   11 cycles
 SCF Done:  E(RB3LYP) =  -558.133931894     A.U. after   11 cycles
 SCF Done:  E(RB3LYP) =  -558.133920000     A.U. after   13 cycles
 SCF Done:  E(RB3LYP) =  -558.134144059     A.U. after   10 cycles
 SCF Done:  E(RB3LYP) =  -558.134213336     A.U. after    9 cycles
 SCF Done:  E(RB3LYP) =  -558.134212379     A.U. after    8 cycles
 SCF Done:  E(RB3LYP) =  -558.134216685     A.U. after    7 cycles
 Optimization completed.
    -- Stationary point found.
 Normal termination of Gaussian 16 at Wed Mar  2 03:13:51 2022.

 --------------------------------------------------------------------
 #P Geom=AllCheck Guess=TCheck SCRF=Check GenChk RB3LYP/6-31G(d) Freq
 --------------------------------------------------------------------

 Structure from the checkpoint file:  "167.n.pdb.xyz.mst.wat.chk"
 -------------
 167.n.pdb.xyz
 -------------
 Charge =  0 Multiplicity = 1

 SCF Done:  E(RB3LYP) =  -558.134216685     A.U. after    1 cycles

  Exact polarizability: 272.755  16.759 185.935  -0.013   0.015  90.850
 Approx polarizability: 290.034  31.338 232.434   0.003   0.017  99.769

                      1                      2                      3
                      A                      A                      A
 Frequencies --     51.0377                60.5268               107.7095
 Red. masses --      3.1648                 4.0972                 5.0427
 Frc consts  --      0.0049                 0.0088                 0.0345
 IR Inten    --      0.2086                 2.7070                 4.8167

                      4                      5                      6
                      A                      A                      A
 Frequencies --    138.3492               199.8742               242.6275
 Red. masses --      4.0860                 1.1764                 1.6922
 Frc consts  --      0.0461                 0.0277                 0.0587
 IR Inten    --      5.1556                 1.4069                 3.3096

                      7                      8                      9
                      A                      A                      A
 Frequencies --    249.7908               261.9528               298.3989
 Red. masses --      2.0410                 1.8235                 2.8034
 Frc consts  --      0.0750                 0.0737                 0.1471
 IR Inten    --      4.3648                 1.0589                 1.4058

                     10                     11                     12
                      A                      A                      A
 Frequencies --    325.3178               343.5305               344.7115
 Red. masses --      1.7175                 2.0108                 2.0679
 Frc consts  --      0.1071                 0.1398                 0.1448
 IR Inten    --      1.8818                 1.7330                 1.8599

                     13                     14                     15
                      A                      A                      A
 Frequencies --    392.4227               394.4429               422.3058
 Red. masses --      2.8223                 3.6136                 3.0515
 Frc consts  --      0.2561                 0.3313                 0.3206
 IR Inten    --      2.3304                22.1653                 0.0185

                     16                     17                     18
                      A                      A                      A
 Frequencies --    458.8052               524.1149               542.2448
 Red. masses --      2.9140                 3.0435                 3.6868
 Frc consts  --      0.3614                 0.4926                 0.6387
 IR Inten    --     10.3276                 7.1760                22.4768

                     19                     20                     21
                      A                      A                      A
 Frequencies --    615.0064               631.7387               679.8826
 Red. masses --      5.2867                 6.4058                 6.2026
 Frc consts  --      1.1781                 1.5062                 1.6892
 IR Inten    --      1.6289                 0.5058                 1.1098

                     22                     23                     24
                      A                      A                      A
 Frequencies --    709.2629               776.1846               800.4367
 Red. masses --      1.9030                 1.6279                 3.5159
 Frc consts  --      0.5640                 0.5778                 1.3272
 IR Inten    --     38.3319                32.6865                 0.3901

                     25                     26                     27
                      A                      A                      A
 Frequencies --    849.0486               853.1630               869.4814
 Red. masses --      1.3021                 4.0535                 1.2623
 Frc consts  --      0.5531                 1.7384                 0.5623
 IR Inten    --     28.5731                 0.7822                 4.9789

                     28                     29                     30
                      A                      A                      A
 Frequencies --    925.8626               939.3530               945.9645
 Red. masses --      5.4469                 1.4020                 1.6719
 Frc consts  --      2.7510                 0.7289                 0.8815
 IR Inten    --     20.4904                 7.8205                 1.0072

                     31                     32                     33
                      A                      A                      A
 Frequencies --    947.5573               984.1811               984.7383
 Red. masses --      1.5795                 1.2046                 1.3379
 Frc consts  --      0.8355                 0.6874                 0.7644
 IR Inten    --      1.8047                 0.1366                 0.0031

                     34                     35                     36
                      A                      A                      A
 Frequencies --   1011.7893              1012.2409              1056.0900
 Red. masses --      1.2597                 6.1233                 2.1526
 Frc consts  --      0.7598                 3.6966                 1.4146
 IR Inten    --      0.5541                 0.1685                12.2279

                     37                     38                     39
                      A                      A                      A
 Frequencies --   1058.1589              1066.0622              1113.5780
 Red. masses --      1.3933                 1.4223                 1.5776
 Frc consts  --      0.9191                 0.9523                 1.1526
 IR Inten    --      0.0662                 2.2673                17.2503

                     40                     41                     42
                      A                      A                      A
 Frequencies --   1168.4452              1186.3316              1206.3399
 Red. masses --      3.6703                 1.1188                 1.1455
 Frc consts  --      2.9523                 0.9278                 0.9822
 IR Inten    --    238.3721                18.8402                14.6417

                     43                     44                     45
                      A                      A                      A
 Frequencies --   1223.9845              1258.5632              1268.7000
 Red. masses --      2.1396                 2.6703                 2.8464
 Frc consts  --      1.8886                 2.4921                 2.6994
 IR Inten    --    147.7155                23.3932                11.9558

                     46                     47                     48
                      A                      A                      A
 Frequencies --   1290.8845              1360.9903              1365.8101
 Red. masses --      2.7670                 1.7337                 3.5708
 Frc consts  --      2.7166                 1.8920                 3.9246
 IR Inten    --     16.9904                33.2403                 9.3769

                     49                     50                     51
                      A                      A                      A
 Frequencies --   1412.7346              1417.4486              1442.9089
 Red. masses --      1.2517                 1.2544                 1.2418
 Frc consts  --      1.4718                 1.4849                 1.5233
 IR Inten    --     17.0757                28.1848                11.8591

                     52                     53                     54
                      A                      A                      A
 Frequencies --   1476.5544              1493.4288              1497.0473
 Red. masses --      1.8161                 1.9648                 1.0495
 Frc consts  --      2.3328                 2.5819                 1.3858
 IR Inten    --     60.5751                65.2305                 0.1131

                     55                     56                     57
                      A                      A                      A
 Frequencies --   1513.4855              1514.0099              1519.7011
 Red. masses --      1.0676                 1.0491                 1.1123
 Frc consts  --      1.4409                 1.4168                 1.5135
 IR Inten    --      4.2992                 0.6587                18.4001

                     58                     59                     60
                      A                      A                      A
 Frequencies --   1522.0761              1538.0990              1541.7134
 Red. masses --      1.0526                 1.9754                 1.1147
 Frc consts  --      1.4367                 2.7535                 1.5611
 IR Inten    --      9.0441                 5.4117                28.3141

                     61                     62                     63
                      A                      A                      A
 Frequencies --   1623.3929              1648.3330              1658.4243
 Red. masses --      5.5117                 5.1763                 5.7202
 Frc consts  --      8.5583                 8.2863                 9.2694
 IR Inten    --     16.2888                77.1799                13.9485

                     64                     65                     66
                      A                      A                      A
 Frequencies --   3073.0197              3074.7724              3081.3128
 Red. masses --      1.0355                 1.0363                 1.0377
 Frc consts  --      5.7617                 5.7724                 5.8046
 IR Inten    --     17.7991                45.8758                19.7232

                     67                     68                     69
                      A                      A                      A
 Frequencies --   3143.4990              3143.6522              3148.1516
 Red. masses --      1.1031                 1.1025                 1.1026
 Frc consts  --      6.4223                 6.4193                 6.4385
 IR Inten    --      6.7430                 6.2865                64.7779

                     70                     71                     72
                      A                      A                      A
 Frequencies --   3149.7688              3170.8036              3178.4412
 Red. masses --      1.1022                 1.1021                 1.1014
 Frc consts  --      6.4425                 6.5283                 6.5559
 IR Inten    --     74.6314                11.5975                26.3926

                     73                     74                     75
                      A                      A                      A
 Frequencies --   3197.4994              3203.7767              3212.8775
 Red. masses --      1.0863                 1.0882                 1.0929
 Frc consts  --      6.5434                 6.5809                 6.6471
 IR Inten    --      9.5105                 1.9994                56.8346

                     76                     77                     78
                      A                      A                      A
 Frequencies --   3224.6040              3282.0735              3297.5320
 Red. masses --      1.0974                 1.0913                 1.0884
 Frc consts  --      6.7228                 6.9262                 6.9728
 IR Inten    --     49.1691                 5.9565                 2.4378

 - Thermochemistry -
 -------------------
 Temperature   298.150 Kelvin.  Pressure   1.00000 Atm.
 Atom     1 has atomic number  6 and mass  12.00000

 Molecular mass:   177.11536 amu.
 Principal axes and moments of inertia in atomic units:
                           1         2         3
     Eigenvalues --   888.641714492.086794980.18860
           X            0.99998  -0.00585   0.00001
           Y            0.00585   0.99998   0.00001
           Z           -0.00001  -0.00001   1.00000
 This molecule is an asymmetric top.
 Rotational symmetry number  1.
 Warning -- assumption of classical behavior for rotation
           may cause significant error
 Rotational temperatures (Kelvin)      0.09747     0.01928     0.01739
 Rotational constants (GHZ):           2.03090     0.40176     0.36238
 Zero-point vibrational energy     633537.1 (Joules/Mol)
                                  151.41901 (Kcal/Mol)
 Warning -- explicit consideration of  19 degrees of freedom as
           vibrations may cause significant error
 Vibrational temperatures:     73.43    87.08   154.97   199.05   287.57
          (Kelvin)            349.09   359.39   376.89   429.33   468.06
                              494.26   495.96   564.61   567.52   607.60
                              660.12   754.08   780.17   884.86   908.93
                              978.20  1020.47  1116.76  1151.65  1221.59
                             1227.51  1250.99  1332.11  1351.52  1361.03
                             1363.32  1416.02  1416.82  1455.74  1456.39
                             1519.48  1522.45  1533.83  1602.19  1681.13
                             1706.87  1735.65  1761.04  1810.79  1825.38
                             1857.29  1958.16  1965.10  2032.61  2039.39
                             2076.02  2124.43  2148.71  2153.92  2177.57
                             2178.32  2186.51  2189.93  2212.98  2218.18
                             2335.70  2371.58  2386.10  4421.39  4423.91
                             4433.32  4522.79  4523.01  4529.49  4531.81
                             4562.08  4573.07  4600.49  4609.52  4622.61
                             4639.49  4722.17  4744.41

 Zero-point correction=                           0.241302 (Hartree/Particle)
 Thermal correction to Energy=                    0.253822
 Thermal correction to Enthalpy=                  0.254766
 Thermal correction to Gibbs Free Energy=         0.202831
 Sum of electronic and zero-point Energies=           -557.892915
 Sum of electronic and thermal Energies=              -557.880395
 Sum of electronic and thermal Enthalpies=            -557.879451
 Sum of electronic and thermal Free Energies=         -557.931386

                     E (Thermal)             CV                S
                      KCal/Mol        Cal/Mol-Kelvin    Cal/Mol-Kelvin
 Total                  159.275             49.279            109.306
 Electronic               0.000              0.000              0.000
 Translational            0.889              2.981             41.422
 Rotational               0.889              2.981             31.364
 Vibrational            157.498             43.317             36.520
 Vibration     1          0.595              1.977              4.777
 Vibration     2          0.597              1.973              4.440
 Vibration     3          0.606              1.943              3.310
 Vibration     4          0.614              1.915              2.827
 Vibration     5          0.638              1.840              2.134
 Vibration     6          0.659              1.775              1.784
 Vibration     7          0.663              1.763              1.732
 Vibration     8          0.669              1.742              1.649
 Vibration     9          0.691              1.677              1.426
 Vibration    10          0.709              1.625              1.283
 Vibration    11          0.722              1.588              1.196
 Vibration    12          0.723              1.586              1.190
 Vibration    13          0.760              1.486              0.991
 Vibration    14          0.761              1.482              0.983
 Vibration    15          0.785              1.422              0.884
 Vibration    16          0.817              1.341              0.770
 Vibration    17          0.879              1.197              0.600
 Vibration    18          0.897              1.157              0.560
 Vibration    19          0.975              1.000              0.425

 Optimization completed.
    -- Stationary point found.
 Normal termination of Gaussian 16 at Wed Mar  2 03:30:20 2022.

 ------------------------------------------
 #p b3lyp/6-31G(d) geom=allcheck guess=read
 ------------------------------------------

 Structure from the checkpoint file:  "167.n.pdb.xyz.mst.wat.chk"
 -------------
 167.n.pdb.xyz
 -------------
 Charge =  0 Multiplicity = 1

 SCF Done:  E(RB3LYP) =  -558.125702713     A.U. after   11 cycles
 Normal termination of Gaussian 16 at Wed Mar  2 03:31:47 2022.
 Gaussian 16:  ES64L-G16RevA.03 25-Dec-2016

 ----------------------------------------------------------------------
 #p b3lyp/6-31G(d) scrf=(iefpcm,read,solvent=water) geom=allcheck guess
 =read
 ----------------------------------------------------------------------

 Structure from the checkpoint file:  "167.n.pdb.xyz.mst.wat.chk"
 -------------
 167.n.pdb.xyz
 -------------
 Charge =  0 Multiplicity = 1

                         Standard orientation:
 ---------------------------------------------------------------------
 Center     Atomic      Atomic             Coordinates (Angstroms)
 Number     Number       Type             X           Y           Z
 ---------------------------------------------------------------------
      1          6           0       -2.682947    1.679437    0.014042
      2          6           0       -2.550344    0.156585    0.000288
      3          6           0       -3.182382   -0.420755   -1.272328
      4          6           0       -3.188468   -0.444579    1.258153
      5          7           0       -1.094127   -0.308782    0.000536
      6          8           0       -0.951661   -1.589868    0.000143
      7          6           0       -0.096407    0.543140   -0.000037
      8          6           0        1.321183    0.231099   -0.000258
      9          6           0        2.203247    1.334042   -0.000066
     10          6           0        3.581160    1.150122    0.000182
     11          6           0        4.113932   -0.142977    0.000156
     12          6           0        3.253620   -1.242937   -0.000130
     13          6           0        1.870798   -1.068153   -0.000313
     14          1           0       -2.240810    2.122979    0.910120
     15          1           0       -3.747407    1.926896    0.012570
     16          1           0       -2.234862    2.139685   -0.869991
     17          1           0       -3.055263   -1.504058   -1.304162
     18          1           0       -4.250038   -0.187865   -1.286378
     19          1           0       -2.724001    0.015671   -2.164795
     20          1           0       -2.745977   -0.013705    2.161131
     21          1           0       -4.259705   -0.228836    1.263603
     22          1           0       -3.042837   -1.524635    1.275201
     23          1           0       -0.368555    1.586185   -0.000586
     24          1           0        1.790108    2.338338    0.000052
     25          1           0        4.239895    2.012166    0.000400
     26          1           0        5.189070   -0.289683    0.000369
     27          1           0        3.661806   -2.248592   -0.000125
     28          1           0        1.200403   -1.914278   -0.000444
 ---------------------------------------------------------------------

 SCF Done:  E(RB3LYP) =  -558.133471503     A.U. after   11 cycles

 The electronic state is 1-A.
 Alpha  occ. eigenvalues --  -19.12360 -14.46335 -10.24382 -10.22970 -10.20871
 Alpha  occ. eigenvalues --  -10.19632 -10.19429 -10.19326 -10.19202 -10.18928
 Alpha  occ. eigenvalues --  -10.18408 -10.17762 -10.17714  -1.09243  -0.87126
 Alpha  occ. eigenvalues --   -0.85503  -0.81265  -0.75490  -0.74747  -0.69686
 Alpha  occ. eigenvalues --   -0.69396  -0.65217  -0.61420  -0.59499  -0.54913
 Alpha  occ. eigenvalues --   -0.51537  -0.50136  -0.48356  -0.47010  -0.45317
 Alpha  occ. eigenvalues --   -0.44235  -0.43228  -0.42984  -0.42274  -0.41232
 Alpha  occ. eigenvalues --   -0.39404  -0.38478  -0.37992  -0.37232  -0.36847
 Alpha  occ. eigenvalues --   -0.35162  -0.34393  -0.34079  -0.33866  -0.28087
 Alpha  occ. eigenvalues --   -0.25599  -0.24649  -0.21048
 Alpha virt. eigenvalues --   -0.05115  -0.00393   0.04402   0.08531   0.09971
 Alpha virt. eigenvalues --    0.10922   0.12795   0.14540   0.15205   0.15737
 Alpha virt. eigenvalues --    0.16301   0.16365   0.16845   0.17724   0.19046

 Mulliken charges:
               1
     1  C   -0.489091
     2  C    0.169084
     3  C   -0.444786
     4  C   -0.445524
     5  N    0.014633
     6  O   -0.552513
     7  C   -0.016975
     8  C    0.145763
     9  C   -0.199649
    10  C   -0.154401
    11  C   -0.141262
    12  C   -0.150038
    13  C   -0.194416
    14  H    0.170007
    15  H    0.173819
    16  H    0.170098
    17  H    0.167740
    18  H    0.161826
    19  H    0.156803
    20  H    0.156551
    21  H    0.161554
    22  H    0.168386
    23  H    0.188431
    24  H    0.156075
    25  H    0.154182
    26  H    0.153280
    27  H    0.151717
    28  H    0.168706
 Sum of Mulliken charges =  -0.00000

 Dipole moment (field-independent basis, Debye):
    X=             -1.0468    Y=              4.3861    Z=             -0.0042  Tot=              4.5093
 Quadrupole moment (field-independent basis, Debye-Ang):
   XX=            -62.0027   YY=            -76.4915   ZZ=            -80.2847
   XY=             -4.1905   XZ=              0.0185   YZ=              0.0031

 Normal termination of Gaussian 16 at Wed Mar  2 03:33:33 2022.
