 Gaussian 16, Revision A.03,

 ----------------------------------------------------------------------
 #p b3lyp/6-31G(d) opt=(MaxStep=10,MaxCycles=1000) freq scf=(MaxCycle=2
 000,NoVarAcc,NoIncFock) scrf=(iefpcm,read,solvent=water)
 ----------------------------------------------------------------------

 -------------
 168.n.pdb.xyz
 -------------
 Symbolic Z-matrix:
 Charge =  0 Multiplicity = 1

 SCF Done:  E(RB3LYP) =  -1334.83131338     A.U. after   13 cycles
 SCF Done:  E(RB3LYP) =  -1334.83476015     A.U. after   10 cycles
 SCF Done:  E(RB3LYP) =  -1334.83538512     A.U. after   11 cycles
 SCF Done:  E(RB3LYP) =  -1334.83635671     A.U. after   10 cycles
 SCF Done:  E(RB3LYP) =  -1334.83648898     A.U. after    9 cycles
 SCF Done:  E(RB3LYP) =  -1334.83654080     A.U. after    9 cycles
 SCF Done:  E(RB3LYP) =  -1334.83653980     A.U. after    9 cycles
 SCF Done:  E(RB3LYP) =  -1334.83653120     A.U. after    8 cycles
 SCF Done:  E(RB3LYP) =  -1334.83654456     A.U. after    9 cycles
 SCF Done:  E(RB3LYP) =  -1334.83652073     A.U. after    8 cycles
 SCF Done:  E(RB3LYP) =  -1334.83654450     A.U. after    7 cycles
 SCF Done:  E(RB3LYP) =  -1334.83652491     A.U. after    8 cycles
 SCF Done:  E(RB3LYP) =  -1334.83652295     A.U. after    7 cycles
 SCF Done:  E(RB3LYP) =  -1334.83654306     A.U. after    8 cycles
 SCF Done:  E(RB3LYP) =  -1334.83654446     A.U. after    7 cycles
 SCF Done:  E(RB3LYP) =  -1334.83652387     A.U. after    8 cycles
 SCF Done:  E(RB3LYP) =  -1334.83652346     A.U. after    6 cycles
 Optimization completed on the basis of negligible forces.
    -- Stationary point found.
 Normal termination of Gaussian 16 at Wed Mar  2 04:50:27 2022.

 --------------------------------------------------------------------
 #P Geom=AllCheck Guess=TCheck SCRF=Check GenChk RB3LYP/6-31G(d) Freq
 --------------------------------------------------------------------

 Structure from the checkpoint file:  "168.n.pdb.xyz.mst.wat.chk"
 -------------
 168.n.pdb.xyz
 -------------
 Charge =  0 Multiplicity = 1

 SCF Done:  E(RB3LYP) =  -1334.83652346     A.U. after    1 cycles

  Exact polarizability: 344.134  11.209 312.244   1.104  47.871 213.785
 Approx polarizability: 376.373  17.713 358.984  -0.292  62.492 252.971

                      1                      2                      3
                      A                      A                      A
 Frequencies --     36.7078                44.9555                63.7476
 Red. masses --      4.8431                 4.2244                 8.7840
 Frc consts  --      0.0038                 0.0050                 0.0210
 IR Inten    --      0.7564                 0.1059                 5.6602

                      4                      5                      6
                      A                      A                      A
 Frequencies --     69.7291                93.1996               116.9946
 Red. masses --      5.4579                 3.1332                 6.6548
 Frc consts  --      0.0156                 0.0160                 0.0537
 IR Inten    --      3.1175                 2.9442                 7.9647

                      7                      8                      9
                      A                      A                      A
 Frequencies --    152.8783               174.7639               187.1805
 Red. masses --      1.9112                 4.5167                 2.3972
 Frc consts  --      0.0263                 0.0813                 0.0495
 IR Inten    --      2.0589                 1.0011                 1.2643

                     10                     11                     12
                      A                      A                      A
 Frequencies --    197.9277               249.7431               258.3794
 Red. masses --      4.3987                 4.1745                 5.9659
 Frc consts  --      0.1015                 0.1534                 0.2347
 IR Inten    --      0.0776                 0.9139                 1.4499

                     13                     14                     15
                      A                      A                      A
 Frequencies --    280.6023               314.2460               323.7495
 Red. masses --      3.7691                 6.0777                 5.2514
 Frc consts  --      0.1749                 0.3536                 0.3243
 IR Inten    --     10.7801                 0.5466                 2.1786

                     16                     17                     18
                      A                      A                      A
 Frequencies --    342.3899               346.2358               413.5264
 Red. masses --      3.7320                 4.7061                 4.1308
 Frc consts  --      0.2578                 0.3324                 0.4162
 IR Inten    --      3.8932                 0.3021                 1.1029

                     19                     20                     21
                      A                      A                      A
 Frequencies --    418.3124               442.3207               462.7739
 Red. masses --      2.9692                 4.9497                 5.0279
 Frc consts  --      0.3061                 0.5706                 0.6344
 IR Inten    --      0.2212                 3.7274                 6.7917

                     22                     23                     24
                      A                      A                      A
 Frequencies --    475.2171               507.1837               536.1318
 Red. masses --      7.5339                 4.0749                 4.3059
 Frc consts  --      1.0024                 0.6176                 0.7292
 IR Inten    --     11.6887                 3.1326                23.2433

                     25                     26                     27
                      A                      A                      A
 Frequencies --    554.9981               589.2165               631.5219
 Red. masses --      4.4761                 4.8237                 6.4315
 Frc consts  --      0.8123                 0.9867                 1.5113
 IR Inten    --     28.5071                14.2296                 0.0128

                     28                     29                     30
                      A                      A                      A
 Frequencies --    648.1006               669.3630               686.7376
 Red. masses --      4.6756                 5.7332                 6.4799
 Frc consts  --      1.1571                 1.5135                 1.8005
 IR Inten    --      6.0887                14.1551                 3.5124

                     31                     32                     33
                      A                      A                      A
 Frequencies --    696.2251               702.3745               711.4118
 Red. masses --      6.3309                 5.7095                 1.7932
 Frc consts  --      1.8081                 1.6595                 0.5347
 IR Inten    --      6.8160                 1.2133                50.2032

                     34                     35                     36
                      A                      A                      A
 Frequencies --    732.3375               758.3149               803.1201
 Red. masses --      6.0404                 3.2775                 2.5376
 Frc consts  --      1.9087                 1.1104                 0.9643
 IR Inten    --      1.3539                19.4503                12.5477

                     37                     38                     39
                      A                      A                      A
 Frequencies --    810.1580               825.5266               845.4526
 Red. masses --      5.8791                 6.4307                 1.5018
 Frc consts  --      2.2735                 2.5821                 0.6325
 IR Inten    --     26.2492                50.6497                45.6390

                     40                     41                     42
                      A                      A                      A
 Frequencies --    865.4570               912.7240               942.9035
 Red. masses --      1.2519                 1.4672                 2.1834
 Frc consts  --      0.5525                 0.7202                 1.1437
 IR Inten    --      3.7794                17.0770                17.9378

                     43                     44                     45
                      A                      A                      A
 Frequencies --    951.6201               974.3936               985.3186
 Red. masses --      1.8182                 1.3307                 1.3638
 Frc consts  --      0.9701                 0.7444                 0.7801
 IR Inten    --     23.0099                 2.3470                 3.9825

                     46                     47                     48
                      A                      A                      A
 Frequencies --    995.5415              1012.3532              1016.1254
 Red. masses --      2.3145                 1.3009                 6.0989
 Frc consts  --      1.3515                 0.7855                 3.7102
 IR Inten    --     11.8180                 1.2746                 7.1985

                     49                     50                     51
                      A                      A                      A
 Frequencies --   1022.1033              1037.0481              1040.3174
 Red. masses --      6.3648                 7.2699                 1.9047
 Frc consts  --      3.9176                 4.6066                 1.2145
 IR Inten    --     59.3980                24.9792                 1.1899

                     52                     53                     54
                      A                      A                      A
 Frequencies --   1053.5261              1069.2158              1080.1719
 Red. masses --      2.0778                 4.8702                 1.7367
 Frc consts  --      1.3587                 3.2804                 1.1939
 IR Inten    --      7.8643                 9.2092                 7.8321

                     55                     56                     57
                      A                      A                      A
 Frequencies --   1087.4878              1106.9345              1120.0569
 Red. masses --      4.5213                 1.5358                 1.9977
 Frc consts  --      3.1504                 1.1087                 1.4766
 IR Inten    --      2.3569                 8.7188                50.7046

                     58                     59                     60
                      A                      A                      A
 Frequencies --   1157.3454              1187.0018              1189.0364
 Red. masses --      2.0987                 1.2853                 1.3028
 Frc consts  --      1.6563                 1.0670                 1.0852
 IR Inten    --     14.0870                 9.0090                 6.4417

                     61                     62                     63
                      A                      A                      A
 Frequencies --   1199.9253              1236.9689              1280.9057
 Red. masses --      1.2716                 1.3190                 1.6054
 Frc consts  --      1.0787                 1.1890                 1.5519
 IR Inten    --     18.2736                28.9638                32.1876

                     64                     65                     66
                      A                      A                      A
 Frequencies --   1304.9975              1331.7682              1338.7795
 Red. masses --      3.7183                 2.6903                 2.2052
 Frc consts  --      3.7309                 2.8113                 2.3287
 IR Inten    --     72.0460                 3.1883                19.5173

                     67                     68                     69
                      A                      A                      A
 Frequencies --   1346.6703              1356.4294              1360.7226
 Red. masses --      3.7034                 1.5742                 3.5821
 Frc consts  --      3.9571                 1.7065                 3.9078
 IR Inten    --     69.7769                49.3089                 2.9846

                     70                     71                     72
                      A                      A                      A
 Frequencies --   1371.5190              1424.8133              1440.7444
 Red. masses --      5.5245                 2.9703                 1.5579
 Frc consts  --      6.1227                 3.5528                 1.9053
 IR Inten    --     21.8416                15.5771                12.9301

                     73                     74                     75
                      A                      A                      A
 Frequencies --   1466.7611              1490.4604              1496.3053
 Red. masses --      3.4530                 2.1488                 1.1731
 Frc consts  --      4.3768                 2.8125                 1.5475
 IR Inten    --    236.3005                16.2433                 6.3662

                     76                     77                     78
                      A                      A                      A
 Frequencies --   1498.6296              1506.9536              1525.0090
 Red. masses --      1.1167                 1.2963                 2.2149
 Frc consts  --      1.4776                 1.7344                 3.0349
 IR Inten    --      5.7771                66.8988               153.4591

                     79                     80                     81
                      A                      A                      A
 Frequencies --   1536.0838              1573.6486              1586.1044
 Red. masses --      2.2981                 5.0808                 9.3044
 Frc consts  --      3.1948                 7.4130                13.7912
 IR Inten    --      2.9966                35.0585                90.7642

                     82                     83                     84
                      A                      A                      A
 Frequencies --   1616.5399              1632.4972              1647.8985
 Red. masses --      7.1885                 5.5868                 6.9323
 Frc consts  --     11.0678                 8.7724                11.0915
 IR Inten    --     62.8919                19.4736                11.9159

                     85                     86                     87
                      A                      A                      A
 Frequencies --   1654.1913              1674.7761              3039.9164
 Red. masses --      5.8993                 9.3647                 1.0705
 Frc consts  --      9.5110                15.4760                 5.8283
 IR Inten    --     46.5788               223.0009                36.9052

                     88                     89                     90
                      A                      A                      A
 Frequencies --   3082.3803              3142.7051              3154.7764
 Red. masses --      1.0373                 1.1021                 1.0938
 Frc consts  --      5.8065                 6.4133                 6.4138
 IR Inten    --     16.5019                11.5553                37.6566

                     91                     92                     93
                      A                      A                      A
 Frequencies --   3176.8587              3205.3187              3213.4279
 Red. masses --      1.1018                 1.0858                 1.0891
 Frc consts  --      6.5513                 6.5729                 6.6263
 IR Inten    --     12.0991                 0.5295                15.7960

                     94                     95                     96
                      A                      A                      A
 Frequencies --   3223.8004              3232.2634              3236.8708
 Red. masses --      1.0927                 1.0940                 1.0944
 Frc consts  --      6.6912                 6.7340                 6.7560
 IR Inten    --     46.5933                31.1582                11.7374

                     97                     98                     99
                      A                      A                      A
 Frequencies --   3247.3300              3254.0744              3260.7863
 Red. masses --      1.0897                 1.0915                 1.0946
 Frc consts  --      6.7706                 6.8099                 6.8571
 IR Inten    --      1.8254                 1.0649                 4.7942

 - Thermochemistry -
 -------------------
 Temperature   298.150 Kelvin.  Pressure   1.00000 Atm.
 Atom     1 has atomic number  6 and mass  12.00000

 Molecular mass:   308.08287 amu.
 Principal axes and moments of inertia in atomic units:
                           1         2         3
     Eigenvalues --  6066.390847738.70295**********
           X            0.99545  -0.09511  -0.00515
           Y            0.09516   0.99539   0.01189
           Z            0.00399  -0.01233   0.99992
 This molecule is an asymmetric top.
 Rotational symmetry number  1.
 Warning -- assumption of classical behavior for rotation
           may cause significant error
 Rotational temperatures (Kelvin)      0.01428     0.01119     0.00739
 Rotational constants (GHZ):           0.29750     0.23321     0.15408
 Zero-point vibrational energy     707896.5 (Joules/Mol)
                                  169.19132 (Kcal/Mol)
 Warning -- explicit consideration of  26 degrees of freedom as
           vibrations may cause significant error
 Vibrational temperatures:     52.81    64.68    91.72   100.32   134.09
          (Kelvin)            168.33   219.96   251.45   269.31   284.77
                              359.32   371.75   403.72   452.13   465.80
                              492.62   498.16   594.97   601.86   636.40
                              665.83   683.73   729.72   771.37   798.52
                              847.75   908.62   932.47   963.06   988.06
                             1001.71  1010.56  1023.56  1053.67  1091.05
                             1155.51  1165.64  1187.75  1216.42  1245.20
                             1313.21  1356.63  1369.17  1401.94  1417.65
                             1432.36  1456.55  1461.98  1470.58  1492.08
                             1496.78  1515.79  1538.36  1554.13  1564.65
                             1592.63  1611.51  1665.16  1707.83  1710.76
                             1726.42  1779.72  1842.94  1877.60  1916.12
                             1926.21  1937.56  1951.60  1957.78  1973.31
                             2049.99  2072.91  2110.34  2144.44  2152.85
                             2156.19  2168.17  2194.15  2210.08  2264.13
                             2282.05  2325.84  2348.80  2370.96  2380.01
                             2409.63  4373.76  4434.86  4521.65  4539.02
                             4570.79  4611.74  4623.41  4638.33  4650.51
                             4657.14  4672.18  4681.89  4691.54

 Zero-point correction=                           0.269624 (Hartree/Particle)
 Thermal correction to Energy=                    0.286877
 Thermal correction to Enthalpy=                  0.287821
 Thermal correction to Gibbs Free Energy=         0.223693
 Sum of electronic and zero-point Energies=          -1334.566900
 Sum of electronic and thermal Energies=             -1334.549646
 Sum of electronic and thermal Enthalpies=           -1334.548702
 Sum of electronic and thermal Free Energies=        -1334.612830

                     E (Thermal)             CV                S
                      KCal/Mol        Cal/Mol-Kelvin    Cal/Mol-Kelvin
 Total                  180.018             68.183            134.969
 Electronic               0.000              0.000              0.000
 Translational            0.889              2.981             43.072
 Rotational               0.889              2.981             34.663
 Vibrational            178.241             62.222             57.234
 Vibration     1          0.594              1.982              5.429
 Vibration     2          0.595              1.979              5.028
 Vibration     3          0.597              1.972              4.338
 Vibration     4          0.598              1.969              4.161
 Vibration     5          0.602              1.954              3.592
 Vibration     6          0.608              1.935              3.149
 Vibration     7          0.619              1.899              2.636
 Vibration     8          0.627              1.873              2.384
 Vibration     9          0.632              1.857              2.256
 Vibration    10          0.637              1.843              2.152
 Vibration    11          0.663              1.763              1.732
 Vibration    12          0.667              1.749              1.673
 Vibration    13          0.680              1.709              1.530
 Vibration    14          0.702              1.646              1.340
 Vibration    15          0.708              1.628              1.291
 Vibration    16          0.722              1.591              1.201
 Vibration    17          0.724              1.583              1.183
 Vibration    18          0.777              1.441              0.914
 Vibration    19          0.781              1.430              0.898
 Vibration    20          0.802              1.378              0.819
 Vibration    21          0.820              1.333              0.758
 Vibration    22          0.832              1.305              0.723
 Vibration    23          0.862              1.234              0.640
 Vibration    24          0.891              1.170              0.574
 Vibration    25          0.910              1.129              0.534
 Vibration    26          0.946              1.055              0.469

 Optimization completed.
    -- Stationary point found.
 Normal termination of Gaussian 16 at Wed Mar  2 05:43:04 2022.

 ------------------------------------------
 #p b3lyp/6-31G(d) geom=allcheck guess=read
 ------------------------------------------

 Structure from the checkpoint file:  "168.n.pdb.xyz.mst.wat.chk"
 -------------
 168.n.pdb.xyz
 -------------
 Charge =  0 Multiplicity = 1

 SCF Done:  E(RB3LYP) =  -1334.81854264     A.U. after   12 cycles
 Normal termination of Gaussian 16 at Wed Mar  2 05:46:51 2022.
 Gaussian 16:  ES64L-G16RevA.03 25-Dec-2016

 ----------------------------------------------------------------------
 #p b3lyp/6-31G(d) scrf=(iefpcm,read,solvent=water) geom=allcheck guess
 =read
 ----------------------------------------------------------------------

 Structure from the checkpoint file:  "168.n.pdb.xyz.mst.wat.chk"
 -------------
 168.n.pdb.xyz
 -------------
 Charge =  0 Multiplicity = 1

                         Standard orientation:
 ---------------------------------------------------------------------
 Center     Atomic      Atomic             Coordinates (Angstroms)
 Number     Number       Type             X           Y           Z
 ---------------------------------------------------------------------
      1          6           0       -3.599457   -0.019687    2.126248
      2          6           0       -3.229893   -0.832084    0.933591
      3          7           0       -3.793588   -1.969403    0.592595
      4          7           0       -3.158470   -2.446926   -0.545827
      5          6           0       -2.228616   -1.582412   -0.859768
      6          6           0       -1.203051   -1.656784   -1.938478
      7          7           0        0.118084   -1.869336   -1.334858
      8          6           0        0.634740   -0.922477   -0.633216
      9          6           0        1.980086   -1.168934   -0.037593
     10          6           0        2.358050   -0.586089    1.181772
     11          6           0        3.598583   -0.876303    1.750996
     12          6           0        4.480750   -1.743163    1.103386
     13          6           0        4.113790   -2.325792   -0.113889
     14          6           0        2.871808   -2.045316   -0.676666
     15          6           0        0.001124    0.413730   -0.387330
     16          6           0        0.804226    1.559100   -0.502556
     17          6           0        0.267956    2.822116   -0.291772
     18         17           0        1.301055    4.232910   -0.459603
     19          6           0       -1.072465    2.990653    0.049479
     20          6           0       -1.881940    1.866335    0.159374
     21          6           0       -1.359659    0.587338   -0.055096
     22          7           0       -2.220303   -0.538086    0.037536
     23          1           0       -4.245805   -0.622236    2.765454
     24          1           0       -2.714800    0.277571    2.695603
     25          1           0       -4.142503    0.888938    1.851947
     26          1           0       -1.224520   -0.739889   -2.543585
     27          1           0       -1.435913   -2.500332   -2.588148
     28          1           0        1.675435    0.082830    1.692805
     29          1           0        3.873057   -0.426016    2.699223
     30          1           0        5.448541   -1.962819    1.541861
     31          1           0        4.797850   -2.995400   -0.624733
     32          1           0        2.577881   -2.494457   -1.617910
     33          1           0        1.849384    1.452351   -0.760994
     34          1           0       -1.481541    3.980006    0.210072
     35          1           0       -2.931260    1.984856    0.394639
 ---------------------------------------------------------------------

 SCF Done:  E(RB3LYP) =  -1334.83530562     A.U. after   11 cycles

 The electronic state is 1-A.
 Alpha  occ. eigenvalues -- -101.56217 -14.41803 -14.35305 -14.35162 -14.34322
 Alpha  occ. eigenvalues --  -10.26953 -10.26795 -10.26687 -10.26325 -10.25874
 Alpha  occ. eigenvalues --  -10.23417 -10.23257 -10.22298 -10.22229 -10.22109
 Alpha  occ. eigenvalues --  -10.20829 -10.20027 -10.19981 -10.19843 -10.19717
 Alpha  occ. eigenvalues --  -10.19667 -10.19608  -9.47842  -7.24239  -7.23273
 Alpha  occ. eigenvalues --   -7.23235  -1.07358  -0.95886  -0.93523  -0.90468
 Alpha  occ. eigenvalues --   -0.86359  -0.85082  -0.83952  -0.79552  -0.76767
 Alpha  occ. eigenvalues --   -0.75865  -0.75198  -0.73674  -0.71362  -0.67102
 Alpha  occ. eigenvalues --   -0.65203  -0.62270  -0.61536  -0.60608  -0.59092
 Alpha  occ. eigenvalues --   -0.56662  -0.53848  -0.52300  -0.50821  -0.50154
 Alpha  occ. eigenvalues --   -0.48915  -0.47569  -0.47005  -0.46451  -0.45541
 Alpha  occ. eigenvalues --   -0.45033  -0.44281  -0.43417  -0.42681  -0.41760
 Alpha  occ. eigenvalues --   -0.41314  -0.40968  -0.40797  -0.39913  -0.38656
 Alpha  occ. eigenvalues --   -0.37967  -0.36156  -0.35260  -0.34905  -0.33519
 Alpha  occ. eigenvalues --   -0.32717  -0.32112  -0.31439  -0.28506  -0.27891
 Alpha  occ. eigenvalues --   -0.27594  -0.25999  -0.25537  -0.25152  -0.24848
 Alpha virt. eigenvalues --   -0.06671  -0.03991  -0.02956  -0.00680   0.01360
 Alpha virt. eigenvalues --    0.01809   0.03096   0.04253   0.09588   0.10045
 Alpha virt. eigenvalues --    0.12210   0.12509   0.13045   0.13893   0.14351

 Mulliken charges:
               1
     1  C   -0.535353
     2  C    0.505718
     3  N   -0.420063
     4  N   -0.428866
     5  C    0.498348
     6  C   -0.239650
     7  N   -0.456398
     8  C    0.227197
     9  C    0.094204
    10  C   -0.182815
    11  C   -0.150211
    12  C   -0.136276
    13  C   -0.150511
    14  C   -0.169788
    15  C    0.081079
    16  C   -0.192166
    17  C   -0.059184
    18  Cl  -0.018590
    19  C   -0.139682
    20  C   -0.145026
    21  C    0.266181
    22  N   -0.583031
    23  H    0.195504
    24  H    0.194181
    25  H    0.199275
    26  H    0.192856
    27  H    0.189963
    28  H    0.159292
    29  H    0.157918
    30  H    0.157763
    31  H    0.157191
    32  H    0.155382
    33  H    0.192660
    34  H    0.192094
    35  H    0.190806
 Sum of Mulliken charges =  -0.00000

 Dipole moment (field-independent basis, Debye):
    X=              3.3869    Y=              7.0988    Z=              1.6045  Tot=              8.0274
 Quadrupole moment (field-independent basis, Debye-Ang):
   XX=           -136.0536   YY=           -150.3413   ZZ=           -123.3691
   XY=            -31.6738   XZ=             -0.7635   YZ=              3.2077

 Normal termination of Gaussian 16 at Wed Mar  2 05:51:07 2022.
