 Gaussian 16, Revision A.03,

 ----------------------------------------------------------------------
 #p b3lyp/6-31G(d) opt=(MaxStep=10,MaxCycles=1000) freq scf=(MaxCycle=2
 000,NoVarAcc,NoIncFock) scrf=(iefpcm,read,solvent=water)
 ----------------------------------------------------------------------

 -------------
 169.n.pdb.xyz
 -------------
 Symbolic Z-matrix:
 Charge =  0 Multiplicity = 1

 SCF Done:  E(RB3LYP) =  -633.428490400     A.U. after   12 cycles
 SCF Done:  E(RB3LYP) =  -633.431385784     A.U. after   11 cycles
 SCF Done:  E(RB3LYP) =  -633.431686040     A.U. after   11 cycles
 SCF Done:  E(RB3LYP) =  -633.432691133     A.U. after   11 cycles
 SCF Done:  E(RB3LYP) =  -633.432972702     A.U. after   11 cycles
 SCF Done:  E(RB3LYP) =  -633.433657010     A.U. after   10 cycles
 SCF Done:  E(RB3LYP) =  -633.433555502     A.U. after   11 cycles
 SCF Done:  E(RB3LYP) =  -633.433963611     A.U. after   11 cycles
 SCF Done:  E(RB3LYP) =  -633.434028259     A.U. after   10 cycles
 SCF Done:  E(RB3LYP) =  -633.434016482     A.U. after    9 cycles
 SCF Done:  E(RB3LYP) =  -633.434026964     A.U. after    8 cycles
 SCF Done:  E(RB3LYP) =  -633.434026460     A.U. after    8 cycles
 SCF Done:  E(RB3LYP) =  -633.434028610     A.U. after    8 cycles
 SCF Done:  E(RB3LYP) =  -633.434025029     A.U. after    9 cycles
 SCF Done:  E(RB3LYP) =  -633.434026466     A.U. after    7 cycles
 SCF Done:  E(RB3LYP) =  -633.434030254     A.U. after    8 cycles
 SCF Done:  E(RB3LYP) =  -633.434025141     A.U. after    8 cycles
 Optimization completed.
    -- Stationary point found.
 Normal termination of Gaussian 16 at Wed Mar  2 04:56:21 2022.

 --------------------------------------------------------------------
 #P Geom=AllCheck Guess=TCheck SCRF=Check GenChk RB3LYP/6-31G(d) Freq
 --------------------------------------------------------------------

 Structure from the checkpoint file:  "169.n.pdb.xyz.mst.wat.chk"
 -------------
 169.n.pdb.xyz
 -------------
 Charge =  0 Multiplicity = 1

 SCF Done:  E(RB3LYP) =  -633.434025141     A.U. after    1 cycles

  Exact polarizability: 207.762  -4.010 161.863   6.494  35.655 123.307
 Approx polarizability: 216.805  -0.316 190.740   9.362  48.225 139.623

                      1                      2                      3
                      A                      A                      A
 Frequencies --     41.9954                79.8156                83.6470
 Red. masses --      4.0582                 3.8812                 5.0958
 Frc consts  --      0.0042                 0.0146                 0.0210
 IR Inten    --      2.1495                 2.4779                 9.1961

                      4                      5                      6
                      A                      A                      A
 Frequencies --     98.3682               118.7888               152.8108
 Red. masses --      2.5961                 3.5748                 3.8765
 Frc consts  --      0.0148                 0.0297                 0.0533
 IR Inten    --      1.8929                 4.0372                 1.9358

                      7                      8                      9
                      A                      A                      A
 Frequencies --    226.6231               245.9372               258.4893
 Red. masses --      2.2807                 3.6940                 1.6722
 Frc consts  --      0.0690                 0.1316                 0.0658
 IR Inten    --      4.5438                20.2070                 1.9541

                     10                     11                     12
                      A                      A                      A
 Frequencies --    289.4882               325.6177               353.2339
 Red. masses --      3.5311                 3.1669                 3.7194
 Frc consts  --      0.1743                 0.1978                 0.2734
 IR Inten    --      6.4638                 6.7863                 5.9059

                     13                     14                     15
                      A                      A                      A
 Frequencies --    369.0194               416.4446               434.8518
 Red. masses --      2.7307                 2.8503                 3.2111
 Frc consts  --      0.2191                 0.2912                 0.3578
 IR Inten    --     35.9038                 6.6598                 4.7226

                     16                     17                     18
                      A                      A                      A
 Frequencies --    458.1543               493.0063               506.7475
 Red. masses --      1.3033                 1.6515                 1.4705
 Frc consts  --      0.1612                 0.2365                 0.2225
 IR Inten    --    242.1150                41.1673               358.9030

                     19                     20                     21
                      A                      A                      A
 Frequencies --    538.6277               579.0463               603.0940
 Red. masses --      3.2821                 3.1784                 2.1502
 Frc consts  --      0.5610                 0.6279                 0.4608
 IR Inten    --     34.7810                29.2326                81.0590

                     22                     23                     24
                      A                      A                      A
 Frequencies --    634.1159               666.4779               693.7683
 Red. masses --      6.2919                 2.5638                 1.8289
 Frc consts  --      1.4906                 0.6710                 0.5186
 IR Inten    --      0.2306                18.7733                 3.7468

                     25                     26                     27
                      A                      A                      A
 Frequencies --    720.2043               766.3471               779.7121
 Red. masses --      1.8955                 2.0115                 1.4587
 Frc consts  --      0.5793                 0.6960                 0.5225
 IR Inten    --     31.5816                21.8905                21.6535

                     28                     29                     30
                      A                      A                      A
 Frequencies --    805.9242               858.3193               869.9843
 Red. masses --      2.2450                 4.0914                 1.2601
 Frc consts  --      0.8591                 1.7759                 0.5619
 IR Inten    --     13.1466                 5.6271                 0.5606

                     31                     32                     33
                      A                      A                      A
 Frequencies --    903.9230               941.1044               965.2663
 Red. masses --      2.3711                 1.5013                 2.8632
 Frc consts  --      1.1415                 0.7834                 1.5718
 IR Inten    --     25.4462                 7.4558                15.0526

                     34                     35                     36
                      A                      A                      A
 Frequencies --    984.6868               991.5259              1007.9174
 Red. masses --      1.3602                 1.8087                 1.2707
 Frc consts  --      0.7771                 1.0477                 0.7606
 IR Inten    --      2.9897                53.8470                 1.6328

                     37                     38                     39
                      A                      A                      A
 Frequencies --   1016.0980              1020.2846              1060.9521
 Red. masses --      4.6548                 2.5429                 2.3233
 Frc consts  --      2.8315                 1.5596                 1.5408
 IR Inten    --      8.8505                41.2523                 7.6182

                     40                     41                     42
                      A                      A                      A
 Frequencies --   1085.6569              1111.8791              1115.8791
 Red. masses --      2.3644                 1.8883                 1.6091
 Frc consts  --      1.6420                 1.3754                 1.1805
 IR Inten    --     30.0717                 8.5712                 9.6155

                     43                     44                     45
                      A                      A                      A
 Frequencies --   1142.4551              1183.3842              1189.9902
 Red. masses --      1.8103                 1.8971                 1.0985
 Frc consts  --      1.3921                 1.5653                 0.9165
 IR Inten    --     10.5950                 7.9425                 0.9375

                     46                     47                     48
                      A                      A                      A
 Frequencies --   1213.6525              1226.9493              1250.4497
 Red. masses --      1.2184                 2.6128                 1.3402
 Frc consts  --      1.0574                 2.3175                 1.2347
 IR Inten    --     14.5752                10.5570               114.5722

                     49                     50                     51
                      A                      A                      A
 Frequencies --   1327.3823              1340.3025              1348.7537
 Red. masses --      1.4800                 1.3746                 2.3952
 Frc consts  --      1.5364                 1.4549                 2.5671
 IR Inten    --      3.0723                16.8669                13.8239

                     52                     53                     54
                      A                      A                      A
 Frequencies --   1355.6120              1374.3995              1393.8777
 Red. masses --      1.4125                 1.8239                 2.3081
 Frc consts  --      1.5294                 2.0299                 2.6421
 IR Inten    --     13.2238                13.8576               100.0302

                     55                     56                     57
                      A                      A                      A
 Frequencies --   1409.9676              1431.8418              1486.5666
 Red. masses --      1.9322                 1.2431                 1.0854
 Frc consts  --      2.2632                 1.5016                 1.4132
 IR Inten    --    149.8450                 1.5109                 4.2411

                     58                     59                     60
                      A                      A                      A
 Frequencies --   1491.1546              1495.3351              1521.1991
 Red. masses --      2.2211                 1.0775                 1.0463
 Frc consts  --      2.9098                 1.4195                 1.4266
 IR Inten    --     14.0232                 1.9816                 8.9519

                     61                     62                     63
                      A                      A                      A
 Frequencies --   1532.0803              1542.6666              1619.5901
 Red. masses --      1.0551                 2.1222                 1.2684
 Frc consts  --      1.4592                 2.9756                 1.9603
 IR Inten    --      9.0843                16.0148               248.2503

                     64                     65                     66
                      A                      A                      A
 Frequencies --   1639.6261              1660.9453              1730.6976
 Red. masses --      5.4997                 5.5684                 8.1318
 Frc consts  --      8.7112                 9.0509                14.3510
 IR Inten    --      1.3330                 4.9897               637.9228

                     67                     68                     69
                      A                      A                      A
 Frequencies --   3062.2410              3067.1383              3073.6903
 Red. masses --      1.0690                 1.0607                 1.0383
 Frc consts  --      5.9059                 5.8788                 5.7796
 IR Inten    --     25.3490                39.2327                34.5923

                     70                     71                     72
                      A                      A                      A
 Frequencies --   3104.3216              3135.6990              3155.8007
 Red. masses --      1.1033                 1.0998                 1.1034
 Frc consts  --      6.2643                 6.3715                 6.4742
 IR Inten    --     27.1502                50.6029                45.5015

                     73                     74                     75
                      A                      A                      A
 Frequencies --   3160.1771              3200.6360              3207.0441
 Red. masses --      1.0926                 1.0853                 1.0882
 Frc consts  --      6.4286                 6.5502                 6.5940
 IR Inten    --     23.0109                 3.9841                10.2761

                     76                     77                     78
                      A                      A                      A
 Frequencies --   3217.5378              3226.3599              3234.8241
 Red. masses --      1.0916                 1.0954                 1.0930
 Frc consts  --      6.6583                 6.7180                 6.7386
 IR Inten    --     56.0827                44.1225                14.1457

                     79                     80                     81
                      A                      A                      A
 Frequencies --   3525.0280              3647.0050              3693.3178
 Red. masses --      1.0470                 1.1043                 1.0663
 Frc consts  --      7.6655                 8.6539                 8.5696
 IR Inten    --    117.2495               180.9410                78.0478

 - Thermochemistry -
 -------------------
 Temperature   298.150 Kelvin.  Pressure   1.00000 Atm.
 Atom     1 has atomic number  6 and mass  12.00000

 Molecular mass:   193.11028 amu.
 Principal axes and moments of inertia in atomic units:
                           1         2         3
     Eigenvalues --  1307.514024568.830364827.01540
           X            0.99985  -0.01643   0.00554
           Y            0.01649   0.99982  -0.00933
           Z           -0.00539   0.00942   0.99994
 This molecule is an asymmetric top.
 Rotational symmetry number  1.
 Warning -- assumption of classical behavior for rotation
           may cause significant error
 Rotational temperatures (Kelvin)      0.06624     0.01896     0.01794
 Rotational constants (GHZ):           1.38028     0.39501     0.37388
 Zero-point vibrational energy     647739.2 (Joules/Mol)
                                  154.81338 (Kcal/Mol)
 Warning -- explicit consideration of  21 degrees of freedom as
           vibrations may cause significant error
 Vibrational temperatures:     60.42   114.84   120.35   141.53   170.91
          (Kelvin)            219.86   326.06   353.85   371.91   416.51
                              468.49   508.22   530.94   599.17   625.65
                              659.18   709.33   729.10   774.97   833.12
                              867.72   912.35   958.91   998.18  1036.21
                             1102.60  1121.83  1159.55  1234.93  1251.71
                             1300.54  1354.04  1388.80  1416.74  1426.58
                             1450.17  1461.94  1467.96  1526.47  1562.02
                             1599.75  1605.50  1643.74  1702.63  1712.13
                             1746.18  1765.31  1799.12  1909.81  1928.40
                             1940.56  1950.42  1977.45  2005.48  2028.63
                             2060.10  2138.84  2145.44  2151.45  2188.67
                             2204.32  2219.55  2330.23  2359.06  2389.73
                             2490.09  4405.88  4412.93  4422.35  4466.43
                             4511.57  4540.49  4546.79  4605.00  4614.22
                             4629.32  4642.01  4654.19  5071.73  5247.23
                             5313.86

 Zero-point correction=                           0.246711 (Hartree/Particle)
 Thermal correction to Energy=                    0.260317
 Thermal correction to Enthalpy=                  0.261261
 Thermal correction to Gibbs Free Energy=         0.206576
 Sum of electronic and zero-point Energies=           -633.187314
 Sum of electronic and thermal Energies=              -633.173708
 Sum of electronic and thermal Enthalpies=            -633.172764
 Sum of electronic and thermal Free Energies=         -633.227449

                     E (Thermal)             CV                S
                      KCal/Mol        Cal/Mol-Kelvin    Cal/Mol-Kelvin
 Total                  163.351             53.087            115.095
 Electronic               0.000              0.000              0.000
 Translational            0.889              2.981             41.680
 Rotational               0.889              2.981             31.734
 Vibrational            161.574             47.125             41.682
 Vibration     1          0.595              1.980              5.163
 Vibration     2          0.600              1.963              3.895
 Vibration     3          0.601              1.960              3.803
 Vibration     4          0.604              1.950              3.486
 Vibration     5          0.609              1.934              3.120
 Vibration     6          0.619              1.900              2.637
 Vibration     7          0.650              1.800              1.906
 Vibration     8          0.660              1.770              1.760
 Vibration     9          0.667              1.748              1.672
 Vibration    10          0.686              1.693              1.477
 Vibration    11          0.710              1.624              1.282
 Vibration    12          0.729              1.569              1.152
 Vibration    13          0.741              1.536              1.084
 Vibration    14          0.780              1.435              0.904
 Vibration    15          0.795              1.394              0.843
 Vibration    16          0.816              1.343              0.771
 Vibration    17          0.849              1.266              0.676
 Vibration    18          0.862              1.235              0.641
 Vibration    19          0.894              1.165              0.568
 Vibration    20          0.936              1.077              0.487
 Vibration    21          0.961              1.025              0.444

 Optimization completed.
    -- Stationary point found.
 Normal termination of Gaussian 16 at Wed Mar  2 05:19:05 2022.

 ------------------------------------------
 #p b3lyp/6-31G(d) geom=allcheck guess=read
 ------------------------------------------

 Structure from the checkpoint file:  "169.n.pdb.xyz.mst.wat.chk"
 -------------
 169.n.pdb.xyz
 -------------
 Charge =  0 Multiplicity = 1

 SCF Done:  E(RB3LYP) =  -633.411710347     A.U. after   12 cycles
 Normal termination of Gaussian 16 at Wed Mar  2 05:21:03 2022.
 Gaussian 16:  ES64L-G16RevA.03 25-Dec-2016

 ----------------------------------------------------------------------
 #p b3lyp/6-31G(d) scrf=(iefpcm,read,solvent=water) geom=allcheck guess
 =read
 ----------------------------------------------------------------------

 Structure from the checkpoint file:  "169.n.pdb.xyz.mst.wat.chk"
 -------------
 169.n.pdb.xyz
 -------------
 Charge =  0 Multiplicity = 1

                         Standard orientation:
 ---------------------------------------------------------------------
 Center     Atomic      Atomic             Coordinates (Angstroms)
 Number     Number       Type             X           Y           Z
 ---------------------------------------------------------------------
      1          6           0       -2.050259    1.337181   -1.702396
      2          6           0       -0.613313    0.886190   -1.430095
      3          6           0       -0.295091    0.347069   -0.016118
      4          8           0       -0.614211    1.410020    0.896997
      5          6           0       -1.088709   -0.934685    0.358133
      6          6           0       -2.612281   -0.860490    0.465487
      7          7           0       -3.111596    0.105999    1.270817
      8          8           0       -3.326026   -1.705143   -0.087508
      9          6           0        1.211843    0.045078    0.036233
     10          6           0        2.094354    0.964250    0.617821
     11          6           0        3.469235    0.723550    0.640087
     12          6           0        3.989631   -0.439857    0.074386
     13          6           0        3.121198   -1.359766   -0.517349
     14          6           0        1.747007   -1.118406   -0.536632
     15          1           0       -2.375357    2.092491   -0.983037
     16          1           0       -2.109763    1.777768   -2.702543
     17          1           0       -2.756200    0.503378   -1.668494
     18          1           0        0.065431    1.728441   -1.598559
     19          1           0       -0.327341    0.113023   -2.151028
     20          1           0       -0.300201    1.148164    1.782063
     21          1           0       -0.879873   -1.721801   -0.365758
     22          1           0       -0.712783   -1.285083    1.327969
     23          1           0       -4.116771    0.242765    1.279467
     24          1           0       -2.517642    0.897347    1.497900
     25          1           0        1.697701    1.874450    1.050718
     26          1           0        4.132284    1.449657    1.099529
     27          1           0        5.057934   -0.627909    0.091577
     28          1           0        3.511547   -2.268323   -0.964605
     29          1           0        1.092399   -1.846066   -1.004163
 ---------------------------------------------------------------------

 SCF Done:  E(RB3LYP) =  -633.432585071     A.U. after   11 cycles

 The electronic state is 1-A.
 Alpha  occ. eigenvalues --  -19.15824 -19.11123 -14.33983 -10.28751 -10.25835
 Alpha  occ. eigenvalues --  -10.19843 -10.19207 -10.19142 -10.19133 -10.19115
 Alpha  occ. eigenvalues --  -10.19023 -10.18899 -10.18445 -10.17108  -1.03345
 Alpha  occ. eigenvalues --   -1.02360  -0.89219  -0.85745  -0.80086  -0.74875
 Alpha  occ. eigenvalues --   -0.74595  -0.73349  -0.66448  -0.60662  -0.60322
 Alpha  occ. eigenvalues --   -0.57889  -0.56759  -0.53590  -0.51467  -0.49666
 Alpha  occ. eigenvalues --   -0.47783  -0.46206  -0.44832  -0.43736  -0.42749
 Alpha  occ. eigenvalues --   -0.42212  -0.41745  -0.40267  -0.39734  -0.38556
 Alpha  occ. eigenvalues --   -0.37936  -0.36529  -0.36023  -0.34907  -0.33874
 Alpha  occ. eigenvalues --   -0.33418  -0.31720  -0.28636  -0.26490  -0.25442
 Alpha  occ. eigenvalues --   -0.25324  -0.24264
 Alpha virt. eigenvalues --   -0.00668  -0.00404   0.02466   0.07611   0.10133
 Alpha virt. eigenvalues --    0.11958   0.12392   0.13037   0.14376   0.15170
 Alpha virt. eigenvalues --    0.15640   0.15925   0.16747   0.17923   0.18116

 Mulliken charges:
               1
     1  C   -0.468760
     2  C   -0.253430
     3  C    0.248137
     4  O   -0.678763
     5  C   -0.387242
     6  C    0.574786
     7  N   -0.749501
     8  O   -0.601216
     9  C    0.113015
    10  C   -0.200792
    11  C   -0.149904
    12  C   -0.146611
    13  C   -0.156848
    14  C   -0.196185
    15  H    0.155884
    16  H    0.150735
    17  H    0.156905
    18  H    0.147346
    19  H    0.149144
    20  H    0.440657
    21  H    0.170620
    22  H    0.180614
    23  H    0.372400
    24  H    0.379601
    25  H    0.146443
    26  H    0.149879
    27  H    0.149765
    28  H    0.151196
    29  H    0.152126
 Sum of Mulliken charges =  -0.00000

 Dipole moment (field-independent basis, Debye):
    X=              2.8534    Y=              2.8504    Z=              2.5306  Tot=              4.7613
 Quadrupole moment (field-independent basis, Debye-Ang):
   XX=            -85.7352   YY=            -87.5790   ZZ=            -77.8782
   XY=            -13.8446   XZ=             -4.7258   YZ=              3.8301

 Normal termination of Gaussian 16 at Wed Mar  2 05:23:09 2022.
