 Gaussian 16, Revision A.03,

 ----------------------------------------------------------------------
 #p b3lyp/6-31G(d) opt=(MaxStep=10,MaxCycles=1000) freq scf=(MaxCycle=2
 000,NoVarAcc,NoIncFock) scrf=(iefpcm,read,solvent=water)
 ----------------------------------------------------------------------

 ------------
 17.n.pdb.xyz
 ------------
 Symbolic Z-matrix:
 Charge =  0 Multiplicity = 1

 SCF Done:  E(RB3LYP) =  -448.458116706     A.U. after   11 cycles
 SCF Done:  E(RB3LYP) =  -448.460093754     A.U. after    9 cycles
 SCF Done:  E(RB3LYP) =  -448.460261053     A.U. after    9 cycles
 SCF Done:  E(RB3LYP) =  -448.460182076     A.U. after    9 cycles
 SCF Done:  E(RB3LYP) =  -448.460429086     A.U. after    9 cycles
 SCF Done:  E(RB3LYP) =  -448.460476088     A.U. after    8 cycles
 SCF Done:  E(RB3LYP) =  -448.460498152     A.U. after    8 cycles
 SCF Done:  E(RB3LYP) =  -448.460522169     A.U. after    7 cycles
 SCF Done:  E(RB3LYP) =  -448.460511907     A.U. after    7 cycles
 SCF Done:  E(RB3LYP) =  -448.460514415     A.U. after    7 cycles
 Optimization completed.
    -- Stationary point found.
 Normal termination of Gaussian 16 at Wed Mar  2 03:12:31 2022.

 --------------------------------------------------------------------
 #P Geom=AllCheck Guess=TCheck SCRF=Check GenChk RB3LYP/6-31G(d) Freq
 --------------------------------------------------------------------

 Structure from the checkpoint file:  "17.n.pdb.xyz.mst.wat.chk"
 ------------
 17.n.pdb.xyz
 ------------
 Charge =  0 Multiplicity = 1

 SCF Done:  E(RB3LYP) =  -448.460514415     A.U. after    1 cycles

  Exact polarizability: 159.408  -1.750 143.589   1.063   0.676 136.341
 Approx polarizability: 151.431  -1.235 145.944   1.231   1.338 147.056

                      1                      2                      3
                      A                      A                      A
 Frequencies --     23.9096                54.4784                82.8130
 Red. masses --      2.6161                 2.6766                 2.1274
 Frc consts  --      0.0009                 0.0047                 0.0086
 IR Inten    --      0.8519                 0.4450                 1.3068

                      4                      5                      6
                      A                      A                      A
 Frequencies --    104.6388               124.1678               179.6991
 Red. masses --      1.8268                 2.7841                 1.9648
 Frc consts  --      0.0118                 0.0253                 0.0374
 IR Inten    --      2.1980                 0.0425                 0.1626

                      7                      8                      9
                      A                      A                      A
 Frequencies --    220.6408               237.7148               261.6180
 Red. masses --      1.0895                 2.0296                 1.9716
 Frc consts  --      0.0312                 0.0676                 0.0795
 IR Inten    --      0.6374                 0.1076                 0.9583

                     10                     11                     12
                      A                      A                      A
 Frequencies --    271.7624               292.7383               350.2625
 Red. masses --      2.6061                 1.9198                 2.0780
 Frc consts  --      0.1134                 0.0969                 0.1502
 IR Inten    --      1.0273                 0.7901                 1.4425

                     13                     14                     15
                      A                      A                      A
 Frequencies --    409.1594               439.1319               462.1515
 Red. masses --      1.8027                 2.0377                 2.8513
 Frc consts  --      0.1778                 0.2315                 0.3588
 IR Inten    --      0.6379                 2.0912                14.4794

                     16                     17                     18
                      A                      A                      A
 Frequencies --    486.9629               516.9486               590.6831
 Red. masses --      3.0162                 2.5269                 1.9789
 Frc consts  --      0.4214                 0.3979                 0.4068
 IR Inten    --      7.5275                 3.5313                 2.8069

                     19                     20                     21
                      A                      A                      A
 Frequencies --    766.0512               782.9986               819.1891
 Red. masses --      1.2712                 2.2442                 1.6856
 Frc consts  --      0.4395                 0.8106                 0.6664
 IR Inten    --      4.6542                 9.1544               112.0448

                     22                     23                     24
                      A                      A                      A
 Frequencies --    834.5389               852.7628               867.4326
 Red. masses --      1.8044                 2.0560                 1.8710
 Frc consts  --      0.7404                 0.8809                 0.8295
 IR Inten    --     38.6751                 2.2184                 4.7684

                     25                     26                     27
                      A                      A                      A
 Frequencies --    902.1355               926.7448               937.2802
 Red. masses --      1.7023                 1.7407                 1.5993
 Frc consts  --      0.8163                 0.8808                 0.8278
 IR Inten    --      1.8003                 1.3301                 2.1841

                     28                     29                     30
                      A                      A                      A
 Frequencies --    941.6797               976.5001              1044.8077
 Red. masses --      2.0796                 1.8952                 1.8879
 Frc consts  --      1.0865                 1.0648                 1.2142
 IR Inten    --      0.4435                 0.3014                 2.5858

                     31                     32                     33
                      A                      A                      A
 Frequencies --   1055.5717              1058.8039              1090.5142
 Red. masses --      1.9592                 1.7071                 1.7160
 Frc consts  --      1.2862                 1.1276                 1.2024
 IR Inten    --      4.6485                 7.7363                 5.7540

                     34                     35                     36
                      A                      A                      A
 Frequencies --   1096.9265              1108.8011              1118.3864
 Red. masses --      2.2803                 2.0581                 2.8032
 Frc consts  --      1.6166                 1.4908                 2.0658
 IR Inten    --      2.9187                 4.5222                 5.8427

                     37                     38                     39
                      A                      A                      A
 Frequencies --   1120.6794              1140.8784              1167.5574
 Red. masses --      1.1112                 1.5144                 1.9591
 Frc consts  --      0.8223                 1.1614                 1.5735
 IR Inten    --      0.5406                 2.5250                15.5380

                     40                     41                     42
                      A                      A                      A
 Frequencies --   1184.9543              1209.7558              1221.0708
 Red. masses --      2.1698                 1.4830                 1.6009
 Frc consts  --      1.7950                 1.2788                 1.4063
 IR Inten    --     45.4506                10.5154                 3.3562

                     43                     44                     45
                      A                      A                      A
 Frequencies --   1248.2338              1267.3254              1287.2227
 Red. masses --      1.4768                 1.2972                 1.2281
 Frc consts  --      1.3557                 1.2275                 1.1989
 IR Inten    --      8.8376                 0.2179                 3.1030

                     46                     47                     48
                      A                      A                      A
 Frequencies --   1309.5503              1324.4121              1342.6167
 Red. masses --      1.2163                 1.1353                 1.2723
 Frc consts  --      1.2290                 1.1733                 1.3513
 IR Inten    --      4.6222                 1.6154                15.8926

                     49                     50                     51
                      A                      A                      A
 Frequencies --   1351.5996              1373.2753              1377.5541
 Red. masses --      1.2691                 1.5055                 1.3051
 Frc consts  --      1.3660                 1.6728                 1.4591
 IR Inten    --      0.3199                 1.1824                 1.3022

                     52                     53                     54
                      A                      A                      A
 Frequencies --   1384.3055              1391.1797              1393.2055
 Red. masses --      1.3872                 1.4228                 1.4627
 Frc consts  --      1.5662                 1.6225                 1.6727
 IR Inten    --     29.3675                 5.3483                 1.5815

                     55                     56                     57
                      A                      A                      A
 Frequencies --   1407.5395              1409.3476              1432.6918
 Red. masses --      1.3531                 1.5613                 1.2691
 Frc consts  --      1.5794                 1.8272                 1.5348
 IR Inten    --      8.5714                 1.4951                14.9265

                     58                     59                     60
                      A                      A                      A
 Frequencies --   1472.2499              1493.9725              1499.4575
 Red. masses --      1.1848                 1.1029                 1.0783
 Frc consts  --      1.5131                 1.4503                 1.4284
 IR Inten    --      1.9343                 4.5514                 3.8703

                     61                     62                     63
                      A                      A                      A
 Frequencies --   1503.0462              1506.4476              1511.1019
 Red. masses --      1.0716                 1.0640                 1.0860
 Frc consts  --      1.4263                 1.4226                 1.4610
 IR Inten    --      2.0729                 3.5136                 4.4315

                     64                     65                     66
                      A                      A                      A
 Frequencies --   1512.4175              1514.8164              1522.2543
 Red. masses --      1.1063                 1.1343                 1.0864
 Frc consts  --      1.4910                 1.5335                 1.4832
 IR Inten    --      6.7989                 3.9646                 1.1392

                     67                     68                     69
                      A                      A                      A
 Frequencies --   1524.7344              1534.2409              1540.3308
 Red. masses --      1.1009                 1.0530                 1.0833
 Frc consts  --      1.5080                 1.4604                 1.5143
 IR Inten    --      0.5007                 7.2446                26.7838

                     70                     71                     72
                      A                      A                      A
 Frequencies --   2917.2720              2969.8347              3013.3493
 Red. masses --      1.0806                 1.0606                 1.0814
 Frc consts  --      5.4182                 5.5113                 5.7852
 IR Inten    --    148.6637               145.5533                25.8811

                     73                     74                     75
                      A                      A                      A
 Frequencies --   3021.2959              3033.8829              3038.2177
 Red. masses --      1.0601                 1.0670                 1.0646
 Frc consts  --      5.7016                 5.7866                 5.7901
 IR Inten    --     55.0834                81.3785                12.9747

                     76                     77                     78
                      A                      A                      A
 Frequencies --   3042.3120              3050.5705              3052.7482
 Red. masses --      1.0615                 1.0630                 1.0673
 Frc consts  --      5.7888                 5.8281                 5.8603
 IR Inten    --     79.2183               136.6211                12.7852

                     79                     80                     81
                      A                      A                      A
 Frequencies --   3060.9867              3067.2551              3072.0505
 Red. masses --      1.1002                 1.0408                 1.0981
 Frc consts  --      6.0737                 5.7691                 6.1061
 IR Inten    --     57.0858                47.3063                68.2996

                     82                     83                     84
                      A                      A                      A
 Frequencies --   3078.4968              3084.0066              3094.1366
 Red. masses --      1.1005                 1.0968                 1.1007
 Frc consts  --      6.1451                 6.1464                 6.2086
 IR Inten    --     84.0686                48.5836               106.3592

                     85                     86                     87
                      A                      A                      A
 Frequencies --   3094.4644              3097.1527              3128.4465
 Red. masses --      1.0734                 1.1036                 1.1010
 Frc consts  --      6.0558                 6.2372                 6.3488
 IR Inten    --     66.4247               229.2716                62.4469

                     88                     89                     90
                      A                      A                      A
 Frequencies --   3136.3266              3160.7629              3490.8888
 Red. masses --      1.1022                 1.0981                 1.0742
 Frc consts  --      6.3881                 6.4636                 7.7129
 IR Inten    --     67.4188                44.0702                 0.4046

 - Thermochemistry -
 -------------------
 Temperature   298.150 Kelvin.  Pressure   1.00000 Atm.
 Atom     1 has atomic number  6 and mass  12.00000

 Molecular mass:   155.16740 amu.
 Principal axes and moments of inertia in atomic units:
                           1         2         3
     Eigenvalues --   705.404243856.725014270.58902
           X            0.99999   0.00223   0.00478
           Y           -0.00223   1.00000  -0.00021
           Z           -0.00478   0.00020   0.99999
 This molecule is an asymmetric top.
 Rotational symmetry number  1.
 Warning -- assumption of classical behavior for rotation
           may cause significant error
 Rotational temperatures (Kelvin)      0.12279     0.02246     0.02028
 Rotational constants (GHZ):           2.55845     0.46795     0.42260
 Zero-point vibrational energy     792377.0 (Joules/Mol)
                                  189.38265 (Kcal/Mol)
 Warning -- explicit consideration of  18 degrees of freedom as
           vibrations may cause significant error
 Vibrational temperatures:     34.40    78.38   119.15   150.55   178.65
          (Kelvin)            258.55   317.45   342.02   376.41   391.01
                              421.19   503.95   588.69   631.81   664.93
                              700.63   743.77   849.86  1102.18  1126.56
                             1178.63  1200.72  1226.94  1248.04  1297.97
                             1333.38  1348.54  1354.87  1404.97  1503.25
                             1518.73  1523.38  1569.01  1578.23  1595.32
                             1609.11  1612.41  1641.47  1679.85  1704.88
                             1740.57  1756.85  1795.93  1823.40  1852.03
                             1884.15  1905.53  1931.73  1944.65  1975.84
                             1981.99  1991.71  2001.60  2004.51  2025.14
                             2027.74  2061.32  2118.24  2149.49  2157.38
                             2162.55  2167.44  2174.14  2176.03  2179.48
                             2190.18  2193.75  2207.43  2216.19  4197.30
                             4272.93  4335.54  4346.97  4365.08  4371.32
                             4377.21  4389.09  4392.22  4404.08  4413.10
                             4420.00  4429.27  4437.20  4451.77  4452.24
                             4456.11  4501.14  4512.47  4547.63  5022.61

 Zero-point correction=                           0.301800 (Hartree/Particle)
 Thermal correction to Energy=                    0.314486
 Thermal correction to Enthalpy=                  0.315430
 Thermal correction to Gibbs Free Energy=         0.262095
 Sum of electronic and zero-point Energies=           -448.158714
 Sum of electronic and thermal Energies=              -448.146029
 Sum of electronic and thermal Enthalpies=            -448.145085
 Sum of electronic and thermal Free Energies=         -448.198420

                     E (Thermal)             CV                S
                      KCal/Mol        Cal/Mol-Kelvin    Cal/Mol-Kelvin
 Total                  197.343             47.812            112.254
 Electronic               0.000              0.000              0.000
 Translational            0.889              2.981             41.028
 Rotational               0.889              2.981             30.830
 Vibrational            195.565             41.850             40.396
 Vibration     1          0.593              1.985              6.280
 Vibration     2          0.596              1.976              4.648
 Vibration     3          0.600              1.961              3.823
 Vibration     4          0.605              1.946              3.366
 Vibration     5          0.610              1.929              3.034
 Vibration     6          0.629              1.867              2.332
 Vibration     7          0.647              1.810              1.954
 Vibration     8          0.656              1.783              1.820
 Vibration     9          0.669              1.743              1.651
 Vibration    10          0.675              1.725              1.585
 Vibration    11          0.688              1.687              1.458
 Vibration    12          0.727              1.575              1.165
 Vibration    13          0.774              1.450              0.930
 Vibration    14          0.799              1.385              0.829
 Vibration    15          0.820              1.334              0.760
 Vibration    16          0.843              1.279              0.692
 Vibration    17          0.872              1.212              0.617
 Vibration    18          0.948              1.052              0.466

                           ! Non-Optimized Parameters !
 Normal termination of Gaussian 16 at Wed Mar  2 03:31:39 2022.

 ------------------------------------------
 #p b3lyp/6-31G(d) geom=allcheck guess=read
 ------------------------------------------

 Structure from the checkpoint file:  "17.n.pdb.xyz.mst.wat.chk"
 ------------
 17.n.pdb.xyz
 ------------
 Charge =  0 Multiplicity = 1

 SCF Done:  E(RB3LYP) =  -448.456210159     A.U. after   10 cycles
 Normal termination of Gaussian 16 at Wed Mar  2 03:33:07 2022.
 Gaussian 16:  ES64L-G16RevA.03 25-Dec-2016

 ----------------------------------------------------------------------
 #p b3lyp/6-31G(d) scrf=(iefpcm,read,solvent=water) geom=allcheck guess
 =read
 ----------------------------------------------------------------------

 Structure from the checkpoint file:  "17.n.pdb.xyz.mst.wat.chk"
 ------------
 17.n.pdb.xyz
 ------------
 Charge =  0 Multiplicity = 1

                         Standard orientation:
 ---------------------------------------------------------------------
 Center     Atomic      Atomic             Coordinates (Angstroms)
 Number     Number       Type             X           Y           Z
 ---------------------------------------------------------------------
      1          6           0        4.339152   -0.377013    0.440110
      2          7           0        3.147664   -0.574411   -0.384675
      3          6           0        1.932438    0.040389    0.181841
      4          6           0        2.037032    1.564678    0.088785
      5          6           0        0.713717   -0.540753   -0.554729
      6          6           0       -0.672334   -0.262669    0.059836
      7          6           0       -1.233551    1.150119   -0.274027
      8          6           0       -2.774226    1.191512   -0.362167
      9          6           0       -3.408554    0.250243    0.666206
     10          6           0       -3.026912   -1.219134    0.368492
     11          6           0       -1.686174   -1.332977   -0.385750
     12          1           0        5.153456   -0.993472    0.049914
     13          1           0        4.665930    0.665896    0.401523
     14          1           0        4.187549   -0.638521    1.502184
     15          1           0        2.983567   -1.578640   -0.442118
     16          1           0        1.834013   -0.227340    1.251887
     17          1           0        2.938162    1.928607    0.590587
     18          1           0        2.082270    1.882406   -0.958704
     19          1           0        1.179493    2.048923    0.559783
     20          1           0        0.849739   -1.630647   -0.583059
     21          1           0        0.728411   -0.203056   -1.599870
     22          1           0       -0.572728   -0.349673    1.151730
     23          1           0       -0.806802    1.492040   -1.224480
     24          1           0       -0.900956    1.864911    0.485852
     25          1           0       -3.100236    0.893268   -1.366604
     26          1           0       -3.125447    2.219301   -0.218711
     27          1           0       -3.056050    0.533000    1.666212
     28          1           0       -4.497726    0.365166    0.680734
     29          1           0       -2.969452   -1.779826    1.308555
     30          1           0       -3.813227   -1.696664   -0.227254
     31          1           0       -1.261299   -2.332820   -0.241445
     32          1           0       -1.855846   -1.228358   -1.465570
 ---------------------------------------------------------------------

 SCF Done:  E(RB3LYP) =  -448.460122708     A.U. after    9 cycles

 The electronic state is 1-A.
 Alpha  occ. eigenvalues --  -14.30983 -10.20458 -10.19354 -10.17900 -10.17164
 Alpha  occ. eigenvalues --  -10.17150 -10.17132 -10.17110 -10.17039 -10.17004
 Alpha  occ. eigenvalues --  -10.16526  -0.89471  -0.82411  -0.76868  -0.73002
 Alpha  occ. eigenvalues --   -0.72419  -0.67868  -0.64655  -0.60497  -0.58859
 Alpha  occ. eigenvalues --   -0.56027  -0.51908  -0.48757  -0.47293  -0.46418
 Alpha  occ. eigenvalues --   -0.44548  -0.42936  -0.42415  -0.40988  -0.39382
 Alpha  occ. eigenvalues --   -0.38373  -0.37600  -0.36916  -0.36020  -0.35023
 Alpha  occ. eigenvalues --   -0.34854  -0.34313  -0.33998  -0.32169  -0.32019
 Alpha  occ. eigenvalues --   -0.29164  -0.29037  -0.28174  -0.22197
 Alpha virt. eigenvalues --    0.08100   0.09154   0.10411   0.11919   0.12648
 Alpha virt. eigenvalues --    0.13485   0.13992   0.14699   0.15219   0.15799
 Alpha virt. eigenvalues --    0.16609   0.17178   0.17328   0.17635   0.18486

 Mulliken charges:
               1
     1  C   -0.312011
     2  N   -0.603316
     3  C    0.063803
     4  C   -0.455527
     5  C   -0.284953
     6  C   -0.073907
     7  C   -0.272144
     8  C   -0.271989
     9  C   -0.265531
    10  C   -0.266334
    11  C   -0.276279
    12  H    0.151878
    13  H    0.154972
    14  H    0.125492
    15  H    0.328762
    16  H    0.103908
    17  H    0.147174
    18  H    0.141405
    19  H    0.152238
    20  H    0.128197
    21  H    0.131174
    22  H    0.122652
    23  H    0.131109
    24  H    0.139803
    25  H    0.134244
    26  H    0.131065
    27  H    0.133169
    28  H    0.132047
    29  H    0.132873
    30  H    0.132548
    31  H    0.130818
    32  H    0.132664
 Sum of Mulliken charges =  -0.00000

 Dipole moment (field-independent basis, Debye):
    X=             -0.4298    Y=             -0.8569    Z=              1.1604  Tot=              1.5051
 Quadrupole moment (field-independent basis, Debye-Ang):
   XX=            -72.7454   YY=            -69.8867   ZZ=            -73.5126
   XY=             -2.7198   XZ=              4.1292   YZ=              0.2374

 Normal termination of Gaussian 16 at Wed Mar  2 03:34:44 2022.
