 Gaussian 16, Revision A.03,

 ----------------------------------------------------------------------
 #p b3lyp/6-31G(d) opt=(MaxStep=10,MaxCycles=1000) freq scf=(MaxCycle=2
 000,NoVarAcc,NoIncFock) scrf=(iefpcm,read,solvent=water)
 ----------------------------------------------------------------------

 -------------
 170.n.pdb.xyz
 -------------
 Symbolic Z-matrix:
 Charge =  0 Multiplicity = 1

 SCF Done:  E(RB3LYP) =  -272.981102547     A.U. after   11 cycles
 SCF Done:  E(RB3LYP) =  -272.982108345     A.U. after    9 cycles
 SCF Done:  E(RB3LYP) =  -272.982132698     A.U. after    8 cycles
 SCF Done:  E(RB3LYP) =  -272.982116800     A.U. after    8 cycles
 SCF Done:  E(RB3LYP) =  -272.982109091     A.U. after    6 cycles
 SCF Done:  E(RB3LYP) =  -272.982130848     A.U. after    7 cycles
 SCF Done:  E(RB3LYP) =  -272.982114542     A.U. after    7 cycles
 SCF Done:  E(RB3LYP) =  -272.982131201     A.U. after    7 cycles
 SCF Done:  E(RB3LYP) =  -272.982132569     A.U. after    7 cycles
 SCF Done:  E(RB3LYP) =  -272.982113636     A.U. after    8 cycles
 SCF Done:  E(RB3LYP) =  -272.982132572     A.U. after    7 cycles
 SCF Done:  E(RB3LYP) =  -272.982114198     A.U. after    8 cycles
 SCF Done:  E(RB3LYP) =  -272.982113610     A.U. after    6 cycles
 SCF Done:  E(RB3LYP) =  -272.982130958     A.U. after    7 cycles
 SCF Done:  E(RB3LYP) =  -272.982132484     A.U. after    7 cycles
 SCF Done:  E(RB3LYP) =  -272.982114488     A.U. after    8 cycles
 SCF Done:  E(RB3LYP) =  -272.982113561     A.U. after    6 cycles
 Optimization completed on the basis of negligible forces.
    -- Stationary point found.
 Normal termination of Gaussian 16 at Tue Mar  1 04:17:59 2022.

 --------------------------------------------------------------------
 #P Geom=AllCheck Guess=TCheck SCRF=Check GenChk RB3LYP/6-31G(d) Freq
 --------------------------------------------------------------------

 Structure from the checkpoint file:  "170.n.pdb.xyz.mst.wat.chk"
 -------------
 170.n.pdb.xyz
 -------------
 Charge =  0 Multiplicity = 1

 SCF Done:  E(RB3LYP) =  -272.982113561     A.U. after    1 cycles

  Exact polarizability:  79.478  -0.088  72.390   0.219  -0.691  69.960
 Approx polarizability:  77.376   0.423  74.267  -0.707  -1.078  74.445

                      1                      2                      3
                      A                      A                      A
 Frequencies --     90.2880               117.8810               203.8867
 Red. masses --      2.2310                 2.2406                 2.9473
 Frc consts  --      0.0107                 0.0183                 0.0722
 IR Inten    --      0.1768                 9.4932                 4.3727

                      4                      5                      6
                      A                      A                      A
 Frequencies --    218.7585               260.5172               297.8966
 Red. masses --      1.0541                 1.1616                 1.5802
 Frc consts  --      0.0297                 0.0465                 0.0826
 IR Inten    --      0.4776                 6.4680                79.4292

                      7                      8                      9
                      A                      A                      A
 Frequencies --    311.8750               387.4108               437.8527
 Red. masses --      1.4324                 2.7907                 2.1681
 Frc consts  --      0.0821                 0.2468                 0.2449
 IR Inten    --    117.4499                 4.6555                 0.7769

                     10                     11                     12
                      A                      A                      A
 Frequencies --    489.5372               779.1929               830.2761
 Red. masses --      2.6987                 1.2936                 1.9157
 Frc consts  --      0.3810                 0.4627                 0.7781
 IR Inten    --     10.6635                 7.1577                 6.1815

                     13                     14                     15
                      A                      A                      A
 Frequencies --    919.0910               933.0904               982.6744
 Red. masses --      2.0735                 1.2398                 1.2376
 Frc consts  --      1.0320                 0.6360                 0.7041
 IR Inten    --      3.3416                 5.2269                17.5810

                     16                     17                     18
                      A                      A                      A
 Frequencies --   1016.1125              1042.8593              1082.5840
 Red. masses --      1.4956                 2.9858                 4.2870
 Frc consts  --      0.9098                 1.9132                 2.9602
 IR Inten    --     14.6664                37.6438               102.3508

                     19                     20                     21
                      A                      A                      A
 Frequencies --   1141.6782              1178.0933              1199.6817
 Red. masses --      1.7172                 1.7840                 1.8177
 Frc consts  --      1.3187                 1.4588                 1.5413
 IR Inten    --      6.8336                 3.5757                 1.8177

                     22                     23                     24
                      A                      A                      A
 Frequencies --   1257.6233              1271.5368              1307.4727
 Red. masses --      1.2310                 1.1729                 1.2349
 Frc consts  --      1.1471                 1.1173                 1.2438
 IR Inten    --     73.0270                 2.6645                 3.8546

                     25                     26                     27
                      A                      A                      A
 Frequencies --   1327.1464              1388.0026              1397.6748
 Red. masses --      1.2351                 1.4035                 1.4453
 Frc consts  --      1.2817                 1.5931                 1.6635
 IR Inten    --     13.3797                 3.0487                 1.5059

                     28                     29                     30
                      A                      A                      A
 Frequencies --   1422.6861              1433.5200              1470.2928
 Red. masses --      1.3519                 1.2392                 1.4413
 Frc consts  --      1.6122                 1.5004                 1.8358
 IR Inten    --      5.6213                 1.0133                 9.4193

                     31                     32                     33
                      A                      A                      A
 Frequencies --   1500.3068              1513.1711              1516.8786
 Red. masses --      1.0688                 1.0461                 1.0576
 Frc consts  --      1.4174                 1.4112                 1.4337
 IR Inten    --      0.2317                10.9671                 6.6640

                     34                     35                     36
                      A                      A                      A
 Frequencies --   1526.7768              1529.2501              1542.9510
 Red. masses --      1.0639                 1.0583                 1.0822
 Frc consts  --      1.4612                 1.4582                 1.5179
 IR Inten    --      9.0363                 2.7916                 4.6374

                     37                     38                     39
                      A                      A                      A
 Frequencies --   2999.3375              3016.2833              3030.5487
 Red. masses --      1.0550                 1.0854                 1.0675
 Frc consts  --      5.5918                 5.8179                 5.7766
 IR Inten    --     88.4060                11.8644                79.7505

                     40                     41                     42
                      A                      A                      A
 Frequencies --   3034.1043              3052.7526              3056.4266
 Red. masses --      1.0958                 1.0410                 1.0390
 Frc consts  --      5.9435                 5.7160                 5.7184
 IR Inten    --    134.0588                50.8386                41.1161

                     43                     44                     45
                      A                      A                      A
 Frequencies --   3065.3034              3118.1051              3120.2802
 Red. masses --      1.1005                 1.1006                 1.0978
 Frc consts  --      6.0923                 6.3048                 6.2976
 IR Inten    --     89.6206               118.4738                23.4710

                     46                     47                     48
                      A                      A                      A
 Frequencies --   3127.6680              3145.8306              3722.9154
 Red. masses --      1.1007                 1.1019                 1.0665
 Frc consts  --      6.3441                 6.4249                 8.7095
 IR Inten    --     83.9642                42.0607                74.1795

 - Thermochemistry -
 -------------------
 Temperature   298.150 Kelvin.  Pressure   1.00000 Atm.
 Atom     1 has atomic number  6 and mass  12.00000

 Molecular mass:    88.08882 amu.
 Principal axes and moments of inertia in atomic units:
                           1         2         3
     Eigenvalues --   264.01903 956.631281114.90008
           X            0.99991  -0.00549   0.01216
           Y            0.00553   0.99998  -0.00258
           Z           -0.01215   0.00265   0.99992
 This molecule is an asymmetric top.
 Rotational symmetry number  1.
 Rotational temperatures (Kelvin)      0.32806     0.09054     0.07769
 Rotational constants (GHZ):           6.83565     1.88656     1.61875
 Zero-point vibrational energy     435536.9 (Joules/Mol)
                                  104.09582 (Kcal/Mol)
 Warning -- explicit consideration of  10 degrees of freedom as
           vibrations may cause significant error
 Vibrational temperatures:    129.90   169.60   293.35   314.74   374.83
          (Kelvin)            428.61   448.72   557.40   629.97   704.33
                             1121.08  1194.58  1322.37  1342.51  1413.85
                             1461.96  1500.44  1557.60  1642.62  1695.01
                             1726.07  1809.44  1829.46  1881.16  1909.47
                             1997.03  2010.94  2046.93  2062.52  2115.42
                             2158.61  2177.12  2182.45  2196.69  2200.25
                             2219.96  4315.38  4339.76  4360.28  4365.40
                             4392.23  4397.52  4410.29  4486.26  4489.39
                             4500.02  4526.15  5356.44

 Zero-point correction=                           0.165887 (Hartree/Particle)
 Thermal correction to Energy=                    0.173938
 Thermal correction to Enthalpy=                  0.174882
 Thermal correction to Gibbs Free Energy=         0.134167
 Sum of electronic and zero-point Energies=           -272.816226
 Sum of electronic and thermal Energies=              -272.808176
 Sum of electronic and thermal Enthalpies=            -272.807232
 Sum of electronic and thermal Free Energies=         -272.847947

                     E (Thermal)             CV                S
                      KCal/Mol        Cal/Mol-Kelvin    Cal/Mol-Kelvin
 Total                  109.147             28.528             85.692
 Electronic               0.000              0.000              0.000
 Translational            0.889              2.981             39.340
 Rotational               0.889              2.981             27.134
 Vibrational            107.370             22.566             19.218
 Vibration     1          0.602              1.956              3.654
 Vibration     2          0.608              1.934              3.135
 Vibration     3          0.640              1.834              2.098
 Vibration     4          0.647              1.813              1.969
 Vibration     5          0.669              1.745              1.658
 Vibration     6          0.691              1.678              1.429
 Vibration     7          0.700              1.651              1.352
 Vibration     8          0.756              1.497              1.010
 Vibration     9          0.798              1.388              0.833
 Vibration    10          0.845              1.273              0.685

 Optimization completed.
    -- Stationary point found.
 Normal termination of Gaussian 16 at Tue Mar  1 04:21:26 2022.

 ------------------------------------------
 #p b3lyp/6-31G(d) geom=allcheck guess=read
 ------------------------------------------

 Structure from the checkpoint file:  "170.n.pdb.xyz.mst.wat.chk"
 -------------
 170.n.pdb.xyz
 -------------
 Charge =  0 Multiplicity = 1

 SCF Done:  E(RB3LYP) =  -272.974368931     A.U. after   10 cycles
 Normal termination of Gaussian 16 at Tue Mar  1 04:21:48 2022.
 Gaussian 16:  ES64L-G16RevA.03 25-Dec-2016

 ----------------------------------------------------------------------
 #p b3lyp/6-31G(d) scrf=(iefpcm,read,solvent=water) geom=allcheck guess
 =read
 ----------------------------------------------------------------------

 Structure from the checkpoint file:  "170.n.pdb.xyz.mst.wat.chk"
 -------------
 170.n.pdb.xyz
 -------------
 Charge =  0 Multiplicity = 1

                         Standard orientation:
 ---------------------------------------------------------------------
 Center     Atomic      Atomic             Coordinates (Angstroms)
 Number     Number       Type             X           Y           Z
 ---------------------------------------------------------------------
      1          6           0       -2.543299   -0.149090   -0.267387
      2          6           0       -1.225949   -0.680964    0.302137
      3          6           0        0.024396    0.050569   -0.214531
      4          6           0        0.066064    1.521573    0.213118
      5          6           0        1.279979   -0.690462    0.240846
      6          8           0        2.427343   -0.078762   -0.347403
      7          1           0       -3.395754   -0.715085    0.121110
      8          1           0       -2.697920    0.903148   -0.009305
      9          1           0       -2.559697   -0.228565   -1.360092
     10          1           0       -1.249846   -0.618878    1.398667
     11          1           0       -1.133457   -1.746775    0.057686
     12          1           0        0.011629    0.009635   -1.313533
     13          1           0       -0.798173    2.074146   -0.166000
     14          1           0        0.063918    1.605860    1.307014
     15          1           0        0.972215    2.004840   -0.160201
     16          1           0        1.345513   -0.664248    1.339027
     17          1           0        1.206426   -1.746607   -0.057244
     18          1           0        3.209258   -0.557134   -0.023011
 ---------------------------------------------------------------------

 SCF Done:  E(RB3LYP) =  -272.982008944     A.U. after    9 cycles

 The electronic state is 1-A.
 Alpha  occ. eigenvalues --  -19.13533 -10.21934 -10.18025 -10.17587 -10.16927
 Alpha  occ. eigenvalues --  -10.16527  -1.00482  -0.80161  -0.72302  -0.67149
 Alpha  occ. eigenvalues --   -0.61391  -0.55350  -0.49744  -0.46690  -0.44141
 Alpha  occ. eigenvalues --   -0.42264  -0.40673  -0.38179  -0.37121  -0.35134
 Alpha  occ. eigenvalues --   -0.34684  -0.31894  -0.31638  -0.30732  -0.26128
 Alpha virt. eigenvalues --    0.08887   0.10385   0.12600   0.13191   0.15033
 Alpha virt. eigenvalues --    0.16426   0.16852   0.17840   0.18493   0.19677
 Alpha virt. eigenvalues --    0.20995   0.22495   0.23400   0.25141   0.25469

 Mulliken charges:
               1
     1  C   -0.455719
     2  C   -0.254737
     3  C   -0.079839
     4  C   -0.457532
     5  C   -0.022069
     6  O   -0.676731
     7  H    0.145270
     8  H    0.150467
     9  H    0.145127
    10  H    0.132368
    11  H    0.133621
    12  H    0.123907
    13  H    0.147336
    14  H    0.137824
    15  H    0.150107
    16  H    0.120044
    17  H    0.123312
    18  H    0.437245
 Sum of Mulliken charges =  -0.00000

 Dipole moment (field-independent basis, Debye):
    X=              0.2559    Y=             -1.5754    Z=              1.1535  Tot=              1.9693
 Quadrupole moment (field-independent basis, Debye-Ang):
   XX=            -35.7583   YY=            -39.1177   ZZ=            -40.1383
   XY=             -4.0354   XZ=              2.8152   YZ=             -0.1326

 Normal termination of Gaussian 16 at Tue Mar  1 04:22:13 2022.
