 Gaussian 16, Revision A.03,

 ----------------------------------------------------------------------
 #p b3lyp/6-31G(d) opt=(MaxStep=10,MaxCycles=1000) freq scf=(MaxCycle=2
 000,NoVarAcc,NoIncFock) scrf=(iefpcm,read,solvent=water)
 ----------------------------------------------------------------------

 -------------
 171.n.pdb.xyz
 -------------
 Symbolic Z-matrix:
 Charge =  0 Multiplicity = 1

 SCF Done:  E(RB3LYP) =  -765.268008513     A.U. after   13 cycles
 SCF Done:  E(RB3LYP) =  -765.270827272     A.U. after   11 cycles
 SCF Done:  E(RB3LYP) =  -765.266910416     A.U. after   11 cycles
 SCF Done:  E(RB3LYP) =  -765.270828136     A.U. after   11 cycles
 SCF Done:  E(RB3LYP) =  -765.271599043     A.U. after   11 cycles
 SCF Done:  E(RB3LYP) =  -765.271573378     A.U. after   10 cycles
 SCF Done:  E(RB3LYP) =  -765.271417188     A.U. after   10 cycles
 SCF Done:  E(RB3LYP) =  -765.271665529     A.U. after   11 cycles
 SCF Done:  E(RB3LYP) =  -765.271605759     A.U. after   11 cycles
 SCF Done:  E(RB3LYP) =  -765.271717668     A.U. after   10 cycles
 SCF Done:  E(RB3LYP) =  -765.271855520     A.U. after   10 cycles
 SCF Done:  E(RB3LYP) =  -765.271898235     A.U. after    9 cycles
 SCF Done:  E(RB3LYP) =  -765.271882694     A.U. after    8 cycles
 SCF Done:  E(RB3LYP) =  -765.271881261     A.U. after    8 cycles
 SCF Done:  E(RB3LYP) =  -765.271882595     A.U. after    8 cycles
 SCF Done:  E(RB3LYP) =  -765.271875103     A.U. after    8 cycles
 SCF Done:  E(RB3LYP) =  -765.271874746     A.U. after    7 cycles
 Optimization completed.
    -- Stationary point found.
 Normal termination of Gaussian 16 at Tue Mar  1 06:52:48 2022.

 --------------------------------------------------------------------
 #P Geom=AllCheck Guess=TCheck SCRF=Check GenChk RB3LYP/6-31G(d) Freq
 --------------------------------------------------------------------

 Structure from the checkpoint file:  "171.n.pdb.xyz.mst.wat.chk"
 -------------
 171.n.pdb.xyz
 -------------
 Charge =  0 Multiplicity = 1

 SCF Done:  E(RB3LYP) =  -765.271874746     A.U. after    1 cycles

  Exact polarizability: 210.323  -6.073 177.279 -11.706  -7.556 143.204
 Approx polarizability: 221.617  -7.113 198.098 -13.707 -12.945 156.651

                      1                      2                      3
                      A                      A                      A
 Frequencies --      7.5363                23.8882                56.9584
 Red. masses --      2.9341                 6.4659                 3.2778
 Frc consts  --      0.0001                 0.0022                 0.0063
 IR Inten    --      0.6200                 1.0041                 0.5128

                      4                      5                      6
                      A                      A                      A
 Frequencies --     95.5808               129.3666               139.5559
 Red. masses --      3.8962                 6.7644                 2.5937
 Frc consts  --      0.0210                 0.0667                 0.0298
 IR Inten    --      0.5610                 1.0713                 1.3943

                      7                      8                      9
                      A                      A                      A
 Frequencies --    144.0179               157.4511               177.3912
 Red. masses --      4.1057                 2.5608                 3.1963
 Frc consts  --      0.0502                 0.0374                 0.0593
 IR Inten    --      8.1814                 1.5044                 0.3957

                     10                     11                     12
                      A                      A                      A
 Frequencies --    207.3102               219.1265               227.1641
 Red. masses --      2.1492                 1.8550                 1.0579
 Frc consts  --      0.0544                 0.0525                 0.0322
 IR Inten    --      1.3597                 4.2673                 0.2040

                     13                     14                     15
                      A                      A                      A
 Frequencies --    252.2071               256.7498               281.4159
 Red. masses --      2.7555                 1.1605                 3.8034
 Frc consts  --      0.1033                 0.0451                 0.1775
 IR Inten    --      1.2929                 0.4659                 2.7696

                     16                     17                     18
                      A                      A                      A
 Frequencies --    286.0723               359.3909               368.3369
 Red. masses --      2.0725                 3.6164                 2.5557
 Frc consts  --      0.0999                 0.2752                 0.2043
 IR Inten    --      5.9594                11.6257                11.7779

                     19                     20                     21
                      A                      A                      A
 Frequencies --    388.5499               410.2049               416.2973
 Red. masses --      7.5433                 4.6784                 3.2706
 Frc consts  --      0.6710                 0.4638                 0.3340
 IR Inten    --     57.2378                 4.2956                 4.1154

                     22                     23                     24
                      A                      A                      A
 Frequencies --    452.4342               505.0059               537.7482
 Red. masses --      2.4131                 9.9204                 4.5345
 Frc consts  --      0.2910                 1.4906                 0.7726
 IR Inten    --      8.1109                22.1531                64.8867

                     25                     26                     27
                      A                      A                      A
 Frequencies --    633.9411               637.8560               676.0757
 Red. masses --      1.5558                 2.7989                 1.2335
 Frc consts  --      0.3684                 0.6709                 0.3322
 IR Inten    --      4.4829                 4.4133               247.4905

                     28                     29                     30
                      A                      A                      A
 Frequencies --    684.4112               729.1070               745.6805
 Red. masses --      3.0352                 4.4846                 6.7840
 Frc consts  --      0.8377                 1.4046                 2.2225
 IR Inten    --     27.8106                83.9575                58.9208

                     31                     32                     33
                      A                      A                      A
 Frequencies --    753.1689               761.3487               769.2407
 Red. masses --      6.0262                 1.3407                 5.6356
 Frc consts  --      2.0141                 0.4579                 1.9648
 IR Inten    --      2.7137                 3.3368                 6.8985

                     34                     35                     36
                      A                      A                      A
 Frequencies --    805.4303               833.0460               916.9682
 Red. masses --      1.3416                 2.5112                 1.9058
 Frc consts  --      0.5128                 1.0268                 0.9441
 IR Inten    --     21.7665                 1.3933                 4.5294

                     37                     38                     39
                      A                      A                      A
 Frequencies --    936.1520               947.7901               974.2945
 Red. masses --      1.1724                 2.2435                 1.8314
 Frc consts  --      0.6054                 1.1874                 1.0243
 IR Inten    --      2.3755                 2.4202                 1.1926

                     40                     41                     42
                      A                      A                      A
 Frequencies --    976.0461              1005.3663              1020.6639
 Red. masses --      1.6400                 1.9637                 1.7768
 Frc consts  --      0.9205                 1.1694                 1.0905
 IR Inten    --      0.1232                 7.5527                 4.8424

                     43                     44                     45
                      A                      A                      A
 Frequencies --   1050.7266              1069.8673              1073.1928
 Red. masses --      2.8160                 3.0448                 2.6651
 Frc consts  --      1.8317                 2.0534                 1.8085
 IR Inten    --      2.9285                 2.0435                 0.4854

                     46                     47                     48
                      A                      A                      A
 Frequencies --   1129.8980              1162.3940              1175.8511
 Red. masses --      2.1461                 2.4683                 2.2824
 Frc consts  --      1.6142                 1.9650                 1.8593
 IR Inten    --     16.1416                16.2602                 2.6168

                     49                     50                     51
                      A                      A                      A
 Frequencies --   1191.1655              1201.5903              1242.9306
 Red. masses --      2.1178                 1.7402                 2.3264
 Frc consts  --      1.7705                 1.4803                 2.1175
 IR Inten    --     40.6974                 5.5625                63.1320

                     52                     53                     54
                      A                      A                      A
 Frequencies --   1266.9612              1292.3321              1321.3440
 Red. masses --      1.7994                 1.2796                 1.3693
 Frc consts  --      1.7018                 1.2591                 1.4086
 IR Inten    --     67.1078                 3.5579               176.0393

                     55                     56                     57
                      A                      A                      A
 Frequencies --   1339.4023              1361.1472              1367.6935
 Red. masses --      1.2941                 1.4604                 2.1971
 Frc consts  --      1.3678                 1.5941                 2.4215
 IR Inten    --     63.0028                62.1503               417.9295

                     58                     59                     60
                      A                      A                      A
 Frequencies --   1376.3669              1382.3590              1411.7149
 Red. masses --      1.3532                 1.4459                 1.5606
 Frc consts  --      1.5103                 1.6280                 1.8325
 IR Inten    --     13.3176                63.9027                30.6241

                     61                     62                     63
                      A                      A                      A
 Frequencies --   1414.8761              1423.6692              1433.7068
 Red. masses --      2.1414                 1.2768                 1.2415
 Frc consts  --      2.5257                 1.5247                 1.5035
 IR Inten    --    111.1504                 9.9277                 9.3264

                     64                     65                     66
                      A                      A                      A
 Frequencies --   1437.4195              1439.4957              1463.3021
 Red. masses --      2.2268                 1.4813                 2.3604
 Frc consts  --      2.7108                 1.8085                 2.9778
 IR Inten    --    324.9245                88.1574               172.4336

                     67                     68                     69
                      A                      A                      A
 Frequencies --   1504.7038              1508.6245              1512.3013
 Red. masses --      1.0691                 1.0441                 1.0484
 Frc consts  --      1.4261                 1.4001                 1.4127
 IR Inten    --      2.7757                 2.5112                 2.0358

                     70                     71                     72
                      A                      A                      A
 Frequencies --   1513.3408              1515.5233              1523.6138
 Red. masses --      1.0638                 1.0599                 1.0649
 Frc consts  --      1.4354                 1.4344                 1.4566
 IR Inten    --      2.6170                 4.6154                 3.4959

                     73                     74                     75
                      A                      A                      A
 Frequencies --   1524.6799              1528.2408              1533.1964
 Red. masses --      1.0769                 1.0514                 1.0714
 Frc consts  --      1.4749                 1.4468                 1.4839
 IR Inten    --     10.4491                21.7474                 0.5356

                     76                     77                     78
                      A                      A                      A
 Frequencies --   1747.9368              1765.1328              1812.2856
 Red. masses --      9.8805                 7.0891                11.9074
 Frc consts  --     17.7861                13.0135                23.0420
 IR Inten    --    704.0346              1349.0924               222.3779

                     79                     80                     81
                      A                      A                      A
 Frequencies --   3011.1074              3043.9400              3047.3552
 Red. masses --      1.0823                 1.0377                 1.0488
 Frc consts  --      5.7819                 5.6650                 5.7386
 IR Inten    --     41.2956                42.3594                16.9679

                     82                     83                     84
                      A                      A                      A
 Frequencies --   3052.5342              3061.5665              3073.7070
 Red. masses --      1.0557                 1.0687                 1.0581
 Frc consts  --      5.7955                 5.9018                 5.8898
 IR Inten    --     41.7418               105.0762                38.4350

                     85                     86                     87
                      A                      A                      A
 Frequencies --   3075.2442              3102.9836              3110.7635
 Red. masses --      1.0427                 1.1018                 1.1008
 Frc consts  --      5.8099                 6.2502                 6.2763
 IR Inten    --     28.4924                42.2053               105.6054

                     88                     89                     90
                      A                      A                      A
 Frequencies --   3119.7742              3121.5427              3123.0552
 Red. masses --      1.0969                 1.0999                 1.0992
 Frc consts  --      6.2901                 6.3146                 6.3165
 IR Inten    --     51.1703                42.5789                 3.8874

                     91                     92                     93
                      A                      A                      A
 Frequencies --   3128.6701              3137.9959              3142.8031
 Red. masses --      1.0970                 1.1008                 1.0956
 Frc consts  --      6.3270                 6.3866                 6.3759
 IR Inten    --     52.8044                56.5143                45.9781

                     94                     95                     96
                      A                      A                      A
 Frequencies --   3161.2875              3561.0401              3564.6790
 Red. masses --      1.1020                 1.0774                 1.0796
 Frc consts  --      6.4887                 8.0496                 8.0829
 IR Inten    --     39.3190               229.4550               131.3832

 - Thermochemistry -
 -------------------
 Temperature   298.150 Kelvin.  Pressure   1.00000 Atm.
 Atom     1 has atomic number  6 and mass  12.00000

 Molecular mass:   226.13174 amu.
 Principal axes and moments of inertia in atomic units:
                           1         2         3
     Eigenvalues --  1967.279215839.676706564.74570
           X            0.99995   0.00507   0.00817
           Y           -0.00543   0.99899   0.04463
           Z           -0.00794  -0.04467   0.99897
 This molecule is an asymmetric top.
 Rotational symmetry number  1.
 Warning -- assumption of classical behavior for rotation
           may cause significant error
 Rotational temperatures (Kelvin)      0.04403     0.01483     0.01319
 Rotational constants (GHZ):           0.91738     0.30905     0.27491
 Zero-point vibrational energy     763010.4 (Joules/Mol)
                                  182.36387 (Kcal/Mol)
 Warning -- explicit consideration of  24 degrees of freedom as
           vibrations may cause significant error
 Vibrational temperatures:     10.84    34.37    81.95   137.52   186.13
          (Kelvin)            200.79   207.21   226.54   255.23   298.27
                              315.27   326.84   362.87   369.41   404.89
                              411.59   517.08   529.95   559.04   590.19
                              598.96   650.95   726.59   773.70   912.10
                              917.73   972.72   984.72  1049.02  1072.87
                             1083.64  1095.41  1106.77  1158.83  1198.57
                             1319.31  1346.91  1363.66  1401.79  1404.31
                             1446.50  1468.51  1511.76  1539.30  1544.09
                             1625.67  1672.43  1691.79  1713.82  1728.82
                             1788.30  1822.87  1859.38  1901.12  1927.10
                             1958.39  1967.81  1980.29  1988.91  2031.14
                             2035.69  2048.34  2062.78  2068.13  2071.11
                             2105.37  2164.93  2170.57  2175.86  2177.36
                             2180.50  2192.14  2193.67  2198.80  2205.93
                             2514.89  2539.63  2607.47  4332.31  4379.55
                             4384.46  4391.92  4404.91  4422.38  4424.59
                             4464.50  4475.69  4488.66  4491.20  4493.38
                             4501.46  4514.88  4521.79  4548.39  5123.54
                             5128.78

 Zero-point correction=                           0.290615 (Hartree/Particle)
 Thermal correction to Energy=                    0.307577
 Thermal correction to Enthalpy=                  0.308521
 Thermal correction to Gibbs Free Energy=         0.244197
 Sum of electronic and zero-point Energies=           -764.981259
 Sum of electronic and thermal Energies=              -764.964298
 Sum of electronic and thermal Enthalpies=            -764.963354
 Sum of electronic and thermal Free Energies=         -765.027678

                     E (Thermal)             CV                S
                      KCal/Mol        Cal/Mol-Kelvin    Cal/Mol-Kelvin
 Total                  193.007             63.094            135.381
 Electronic               0.000              0.000              0.000
 Translational            0.889              2.981             42.150
 Rotational               0.889              2.981             32.689
 Vibrational            191.230             57.133             60.542
 Vibration     1          0.593              1.987              8.573
 Vibration     2          0.593              1.985              6.281
 Vibration     3          0.596              1.975              4.560
 Vibration     4          0.603              1.952              3.542
 Vibration     5          0.612              1.924              2.955
 Vibration     6          0.615              1.914              2.810
 Vibration     7          0.616              1.909              2.750
 Vibration     8          0.621              1.894              2.580
 Vibration     9          0.628              1.870              2.356
 Vibration    10          0.641              1.829              2.067
 Vibration    11          0.647              1.812              1.966
 Vibration    12          0.651              1.800              1.901
 Vibration    13          0.664              1.759              1.715
 Vibration    14          0.666              1.751              1.684
 Vibration    15          0.681              1.708              1.525
 Vibration    16          0.684              1.700              1.497
 Vibration    17          0.734              1.556              1.125
 Vibration    18          0.741              1.537              1.087
 Vibration    19          0.757              1.495              1.006
 Vibration    20          0.774              1.448              0.926
 Vibration    21          0.780              1.435              0.905
 Vibration    22          0.811              1.356              0.788
 Vibration    23          0.860              1.239              0.646
 Vibration    24          0.893              1.167              0.570

                           ! Non-Optimized Parameters !
 Normal termination of Gaussian 16 at Tue Mar  1 07:24:18 2022.

 ------------------------------------------
 #p b3lyp/6-31G(d) geom=allcheck guess=read
 ------------------------------------------

 Structure from the checkpoint file:  "171.n.pdb.xyz.mst.wat.chk"
 -------------
 171.n.pdb.xyz
 -------------
 Charge =  0 Multiplicity = 1

 SCF Done:  E(RB3LYP) =  -765.251314830     A.U. after   11 cycles
 Normal termination of Gaussian 16 at Tue Mar  1 07:26:38 2022.
 Gaussian 16:  ES64L-G16RevA.03 25-Dec-2016

 ----------------------------------------------------------------------
 #p b3lyp/6-31G(d) scrf=(iefpcm,read,solvent=water) geom=allcheck guess
 =read
 ----------------------------------------------------------------------

 Structure from the checkpoint file:  "171.n.pdb.xyz.mst.wat.chk"
 -------------
 171.n.pdb.xyz
 -------------
 Charge =  0 Multiplicity = 1

                         Standard orientation:
 ---------------------------------------------------------------------
 Center     Atomic      Atomic             Coordinates (Angstroms)
 Number     Number       Type             X           Y           Z
 ---------------------------------------------------------------------
      1          6           0       -0.351308    2.047330    1.843742
      2          6           0        0.287102    0.667918    1.689785
      3          6           0        0.451417    0.152933    0.214676
      4          6           0       -0.897111    0.130292   -0.561444
      5          6           0       -2.097906   -0.492831    0.156403
      6          6           0       -3.381245   -0.481352   -0.693734
      7          6           0       -3.877313    0.938256   -0.992403
      8          6           0       -4.476904   -1.304195   -0.006477
      9          6           0        1.023190   -1.259897    0.344083
     10          8           0        0.357741   -2.207792    0.735581
     11          7           0        2.362975   -1.438723    0.057302
     12          6           0        3.257498   -0.495341   -0.414406
     13          8           0        4.432233   -0.749858   -0.622989
     14          7           0        2.713703    0.755700   -0.642615
     15          6           0        1.389196    1.124785   -0.507942
     16          8           0        1.017865    2.217587   -0.911161
     17          1           0       -0.392430    2.308990    2.905215
     18          1           0        0.219473    2.816906    1.320894
     19          1           0       -1.373423    2.061687    1.455644
     20          1           0        1.273378    0.664002    2.165533
     21          1           0       -0.314202   -0.082215    2.209707
     22          1           0       -1.115560    1.168318   -0.819799
     23          1           0       -0.734060   -0.394149   -1.511075
     24          1           0       -2.289701    0.043658    1.094452
     25          1           0       -1.858273   -1.523138    0.427403
     26          1           0       -3.148467   -0.967132   -1.652740
     27          1           0       -4.129474    1.463965   -0.062998
     28          1           0       -3.123053    1.531967   -1.516595
     29          1           0       -4.777430    0.916743   -1.617839
     30          1           0       -4.142686   -2.330186    0.178261
     31          1           0       -5.384200   -1.347958   -0.618255
     32          1           0       -4.747962   -0.862526    0.959953
     33          1           0        2.739949   -2.372881    0.198250
     34          1           0        3.338950    1.438237   -1.063961
 ---------------------------------------------------------------------

 SCF Done:  E(RB3LYP) =  -765.270639213     A.U. after   10 cycles

 The electronic state is 1-A.
 Alpha  occ. eigenvalues --  -19.14671 -19.14591 -19.14463 -14.39169 -14.39159
 Alpha  occ. eigenvalues --  -10.35001 -10.31923 -10.31879 -10.23117 -10.20093
 Alpha  occ. eigenvalues --  -10.18872 -10.18315 -10.17552 -10.17194 -10.16765
 Alpha  occ. eigenvalues --  -10.16731  -1.08842  -1.06191  -1.05854  -0.96411
 Alpha  occ. eigenvalues --   -0.92360  -0.83707  -0.79936  -0.74435  -0.71781
 Alpha  occ. eigenvalues --   -0.67751  -0.67509  -0.65304  -0.63274  -0.62194
 Alpha  occ. eigenvalues --   -0.56678  -0.55575  -0.54873  -0.49703  -0.48882
 Alpha  occ. eigenvalues --   -0.47565  -0.47060  -0.45983  -0.45099  -0.44714
 Alpha  occ. eigenvalues --   -0.43729  -0.42959  -0.42016  -0.41407  -0.39880
 Alpha  occ. eigenvalues --   -0.39086  -0.38221  -0.37805  -0.36432  -0.36226
 Alpha  occ. eigenvalues --   -0.35190  -0.35089  -0.33558  -0.32206  -0.31625
 Alpha  occ. eigenvalues --   -0.31105  -0.30804  -0.29429  -0.29370  -0.28139
 Alpha  occ. eigenvalues --   -0.26271
 Alpha virt. eigenvalues --   -0.04157  -0.00170   0.06525   0.08341   0.10044
 Alpha virt. eigenvalues --    0.11191   0.11915   0.12311   0.13636   0.15178
 Alpha virt. eigenvalues --    0.15321   0.15455   0.16305   0.16654   0.16916

 Mulliken charges:
               1
     1  C   -0.460685
     2  C   -0.277931
     3  C   -0.132122
     4  C   -0.293469
     5  C   -0.268697
     6  C   -0.066873
     7  C   -0.458269
     8  C   -0.452301
     9  C    0.657887
    10  O   -0.529666
    11  N   -0.665623
    12  C    0.787321
    13  O   -0.539494
    14  N   -0.671207
    15  C    0.670668
    16  O   -0.534671
    17  H    0.157665
    18  H    0.166216
    19  H    0.158839
    20  H    0.161925
    21  H    0.177243
    22  H    0.171579
    23  H    0.153566
    24  H    0.135229
    25  H    0.155181
    26  H    0.124624
    27  H    0.141824
    28  H    0.149100
    29  H    0.143924
    30  H    0.143297
    31  H    0.142542
    32  H    0.140937
    33  H    0.405800
    34  H    0.405642
 Sum of Mulliken charges =  -0.00000

 Dipole moment (field-independent basis, Debye):
    X=             -0.0103    Y=              0.2573    Z=              0.6562  Tot=              0.7049
 Quadrupole moment (field-independent basis, Debye-Ang):
   XX=           -104.7234   YY=           -103.8029   ZZ=            -94.1511
   XY=              1.1128   XZ=              2.5866   YZ=              4.6011

 Normal termination of Gaussian 16 at Tue Mar  1 07:29:10 2022.
