 Gaussian 16, Revision A.03,

 ----------------------------------------------------------------------
 #p b3lyp/6-31G(d) opt=(MaxStep=10,MaxCycles=1000) freq scf=(MaxCycle=2
 000,NoVarAcc,NoIncFock) scrf=(iefpcm,read,solvent=water)
 ----------------------------------------------------------------------

 -------------
 172.n.pdb.xyz
 -------------
 Symbolic Z-matrix:
 Charge =  0 Multiplicity = 1

 SCF Done:  E(RB3LYP) =  -843.891319240     A.U. after   13 cycles
 SCF Done:  E(RB3LYP) =  -843.894800661     A.U. after   10 cycles
 SCF Done:  E(RB3LYP) =  -843.891613924     A.U. after   11 cycles
 SCF Done:  E(RB3LYP) =  -843.894783600     A.U. after   11 cycles
 SCF Done:  E(RB3LYP) =  -843.896044371     A.U. after    8 cycles
 SCF Done:  E(RB3LYP) =  -843.896266971     A.U. after   10 cycles
 SCF Done:  E(RB3LYP) =  -843.895968091     A.U. after   10 cycles
 SCF Done:  E(RB3LYP) =  -843.896343594     A.U. after   10 cycles
 SCF Done:  E(RB3LYP) =  -843.896389123     A.U. after   10 cycles
 SCF Done:  E(RB3LYP) =  -843.896444982     A.U. after    9 cycles
 SCF Done:  E(RB3LYP) =  -843.896570609     A.U. after    8 cycles
 SCF Done:  E(RB3LYP) =  -843.896568431     A.U. after    8 cycles
 SCF Done:  E(RB3LYP) =  -843.896554589     A.U. after    8 cycles
 SCF Done:  E(RB3LYP) =  -843.896569828     A.U. after    8 cycles
 SCF Done:  E(RB3LYP) =  -843.896569899     A.U. after    8 cycles
 SCF Done:  E(RB3LYP) =  -843.896539198     A.U. after    8 cycles
 SCF Done:  E(RB3LYP) =  -843.896558051     A.U. after    8 cycles
 Optimization completed.
    -- Stationary point found.
 Normal termination of Gaussian 16 at Tue Mar  1 17:19:12 2022.

 --------------------------------------------------------------------
 #P Geom=AllCheck Guess=TCheck SCRF=Check GenChk RB3LYP/6-31G(d) Freq
 --------------------------------------------------------------------

 Structure from the checkpoint file:  "172.n.pdb.xyz.mst.wat.chk"
 -------------
 172.n.pdb.xyz
 -------------
 Charge =  0 Multiplicity = 1

 SCF Done:  E(RB3LYP) =  -843.896558051     A.U. after    1 cycles

  Exact polarizability: 239.950   3.356 198.502 -15.348  12.170 176.072
 Approx polarizability: 245.520   3.347 221.734 -17.511  19.541 191.168

                      1                      2                      3
                      A                      A                      A
 Frequencies --     29.1873                34.2493                45.2580
 Red. masses --      4.8722                 5.4095                 1.6296
 Frc consts  --      0.0024                 0.0037                 0.0020
 IR Inten    --      0.1522                 0.5158                 0.0789

                      4                      5                      6
                      A                      A                      A
 Frequencies --     52.8147                81.8458               108.2616
 Red. masses --      4.2555                 3.4616                 1.7331
 Frc consts  --      0.0070                 0.0137                 0.0120
 IR Inten    --      0.8945                 0.6372                 0.1050

                      7                      8                      9
                      A                      A                      A
 Frequencies --    124.3766               128.7460               135.7464
 Red. masses --      1.8731                 5.2697                 2.7585
 Frc consts  --      0.0171                 0.0515                 0.0299
 IR Inten    --      0.5058                 0.8204                 0.0985

                     10                     11                     12
                      A                      A                      A
 Frequencies --    143.4596               144.9857               159.6012
 Red. masses --      5.8569                 2.8616                 3.0791
 Frc consts  --      0.0710                 0.0354                 0.0462
 IR Inten    --      8.9920                 1.6870                 0.8952

                     13                     14                     15
                      A                      A                      A
 Frequencies --    171.0198               175.7249               189.8494
 Red. masses --      3.6655                 1.8982                 2.0035
 Frc consts  --      0.0632                 0.0345                 0.0425
 IR Inten    --      1.1218                 0.2062                 1.7284

                     16                     17                     18
                      A                      A                      A
 Frequencies --    249.5204               253.8028               279.5163
 Red. masses --      1.1239                 3.1637                 3.3162
 Frc consts  --      0.0412                 0.1201                 0.1527
 IR Inten    --      0.0025                 1.0091                 2.0407

                     19                     20                     21
                      A                      A                      A
 Frequencies --    299.3157               338.2494               370.5028
 Red. masses --      2.8446                 3.0460                 4.1514
 Frc consts  --      0.1502                 0.2053                 0.3358
 IR Inten    --      8.3470                 2.2118                14.7446

                     22                     23                     24
                      A                      A                      A
 Frequencies --    390.0563               412.0949               421.0190
 Red. masses --     10.4086                 6.9056                 3.8188
 Frc consts  --      0.9330                 0.6910                 0.3988
 IR Inten    --     63.3441                 1.3520                10.6712

                     25                     26                     27
                      A                      A                      A
 Frequencies --    476.5158               505.1273               533.8321
 Red. masses --      3.0319                 9.7694                 4.2658
 Frc consts  --      0.4056                 1.4687                 0.7162
 IR Inten    --      4.3894                22.3902                57.6787

                     28                     29                     30
                      A                      A                      A
 Frequencies --    597.0887               628.1269               679.2583
 Red. masses --      1.1448                 6.5522                 1.1572
 Frc consts  --      0.2405                 1.5231                 0.3146
 IR Inten    --     86.7919                 2.6569               206.8830

                     31                     32                     33
                      A                      A                      A
 Frequencies --    694.6514               726.1461               738.4958
 Red. masses --      4.7906                 3.7905                 1.0680
 Frc consts  --      1.3620                 1.1776                 0.3432
 IR Inten    --     10.4496                64.0225                11.0081

                     34                     35                     36
                      A                      A                      A
 Frequencies --    746.5005               750.6722               752.1862
 Red. masses --      4.0975                 1.1488                 8.2233
 Frc consts  --      1.3453                 0.3814                 2.7412
 IR Inten    --      0.8655                 4.1158                60.4811

                     37                     38                     39
                      A                      A                      A
 Frequencies --    759.3193               772.9043               802.7278
 Red. masses --      3.3593                 1.2619                 1.5731
 Frc consts  --      1.1412                 0.4442                 0.5972
 IR Inten    --      9.8939                 5.8452                15.4427

                     40                     41                     42
                      A                      A                      A
 Frequencies --    831.3606               904.8891               912.9843
 Red. masses --      1.2739                 1.9110                 1.4585
 Frc consts  --      0.5188                 0.9219                 0.7163
 IR Inten    --      2.7488                 3.0027                 1.8357

                     43                     44                     45
                      A                      A                      A
 Frequencies --    955.1289               974.6677              1008.9656
 Red. masses --      2.0745                 2.6860                 3.3982
 Frc consts  --      1.1150                 1.5034                 2.0382
 IR Inten    --      3.1164                 4.4066                 1.2319

                     46                     47                     48
                      A                      A                      A
 Frequencies --   1022.7547              1029.5864              1045.9272
 Red. masses --      1.5844                 2.2012                 2.5558
 Frc consts  --      0.9765                 1.3748                 1.6474
 IR Inten    --      3.9446                 0.4731                 1.7094

                     49                     50                     51
                      A                      A                      A
 Frequencies --   1050.4360              1065.5025              1073.5719
 Red. masses --      2.8708                 2.4524                 2.0920
 Frc consts  --      1.8664                 1.6404                 1.4206
 IR Inten    --      5.3565                 0.1117                 3.4841

                     52                     53                     54
                      A                      A                      A
 Frequencies --   1075.4949              1081.7845              1117.3371
 Red. masses --      2.0341                 2.3417                 2.0366
 Frc consts  --      1.3862                 1.6146                 1.4980
 IR Inten    --      0.2931                 8.7064                 4.3226

                     55                     56                     57
                      A                      A                      A
 Frequencies --   1150.6473              1172.5181              1199.5369
 Red. masses --      2.8785                 2.4201                 2.2643
 Frc consts  --      2.2454                 1.9603                 1.9196
 IR Inten    --      1.3871                44.6272                16.7907

                     58                     59                     60
                      A                      A                      A
 Frequencies --   1231.4841              1250.0270              1256.9744
 Red. masses --      1.8354                 2.1623                 1.4644
 Frc consts  --      1.6400                 1.9907                 1.3633
 IR Inten    --     17.8411                71.7529                20.2941

                     61                     62                     63
                      A                      A                      A
 Frequencies --   1288.0769              1307.2167              1310.3460
 Red. masses --      1.3601                 1.3441                 1.3366
 Frc consts  --      1.3296                 1.3533                 1.3521
 IR Inten    --     16.2218                93.8072                56.7033

                     64                     65                     66
                      A                      A                      A
 Frequencies --   1325.2055              1337.0817              1339.7161
 Red. masses --      1.2861                 1.0528                 1.1230
 Frc consts  --      1.3308                 1.1090                 1.1875
 IR Inten    --     51.5745                 0.3939                14.3637

                     67                     68                     69
                      A                      A                      A
 Frequencies --   1346.6011              1354.8183              1378.2487
 Red. masses --      1.2993                 1.4158                 2.0263
 Frc consts  --      1.3881                 1.5312                 2.2678
 IR Inten    --     93.9305                93.4779               366.6158

                     70                     71                     72
                      A                      A                      A
 Frequencies --   1386.7825              1403.0570              1415.9755
 Red. masses --      1.3745                 1.4090                 1.4904
 Frc consts  --      1.5574                 1.6342                 1.7606
 IR Inten    --      5.8338                18.5882                 2.2037

                     73                     74                     75
                      A                      A                      A
 Frequencies --   1418.9523              1421.6824              1432.3645
 Red. masses --      2.9790                 1.6766                 1.2580
 Frc consts  --      3.5340                 1.9966                 1.5207
 IR Inten    --    261.1339                 4.2259                 3.6960

                     76                     77                     78
                      A                      A                      A
 Frequencies --   1433.4948              1442.3954              1468.5703
 Red. masses --      1.2547                 2.2006                 2.2244
 Frc consts  --      1.5191                 2.6975                 2.8265
 IR Inten    --      0.4760               290.0750               132.6575

                     79                     80                     81
                      A                      A                      A
 Frequencies --   1497.9142              1499.5127              1503.0847
 Red. masses --      1.0666                 1.0606                 1.0740
 Frc consts  --      1.4101                 1.4051                 1.4297
 IR Inten    --      0.2192                 3.1186                 1.7165

                     82                     83                     84
                      A                      A                      A
 Frequencies --   1506.1010              1512.0128              1514.6236
 Red. masses --      1.0647                 1.0612                 1.0781
 Frc consts  --      1.4230                 1.4294                 1.4571
 IR Inten    --      1.6050                 2.2402                 0.9573

                     85                     86                     87
                      A                      A                      A
 Frequencies --   1519.1814              1525.5553              1526.1493
 Red. masses --      1.0417                 1.0801                 1.0795
 Frc consts  --      1.4164                 1.4810                 1.4814
 IR Inten    --      6.4347                 8.7947                 4.1142

                     88                     89                     90
                      A                      A                      A
 Frequencies --   1534.8707              1543.8047              1751.3102
 Red. masses --      1.0923                 1.0915                 9.8308
 Frc consts  --      1.5161                 1.5327                17.7649
 IR Inten    --      2.3854                 4.6060               721.1567

                     91                     92                     93
                      A                      A                      A
 Frequencies --   1767.5582              1813.4911              3023.2355
 Red. masses --      6.8953                11.9469                 1.0584
 Frc consts  --     12.6925                23.1491                 5.6993
 IR Inten    --   1368.5080               199.7125                 3.7379

                     94                     95                     96
                      A                      A                      A
 Frequencies --   3024.9981              3029.3552              3035.6719
 Red. masses --      1.0581                 1.0594                 1.0600
 Frc consts  --      5.7048                 5.7281                 5.7551
 IR Inten    --      1.7212                76.4096               173.5423

                     97                     98                     99
                      A                      A                      A
 Frequencies --   3044.4693              3051.4428              3051.5675
 Red. masses --      1.0991                 1.0368                 1.1001
 Frc consts  --      6.0021                 5.6881                 6.0359
 IR Inten    --      1.2844                50.7228                 4.0973

                    100                    101                    102
                      A                      A                      A
 Frequencies --   3055.8104              3064.6707              3070.4498
 Red. masses --      1.0656                 1.0978                 1.0725
 Frc consts  --      5.8625                 6.0750                 5.9575
 IR Inten    --     18.8456                16.9263                67.5703

                    103                    104                    105
                      A                      A                      A
 Frequencies --   3077.2313              3078.3264              3082.3405
 Red. masses --      1.0432                 1.1040                 1.0569
 Frc consts  --      5.8203                 6.1639                 5.9163
 IR Inten    --     43.6560               263.5616                33.5288

                    106                    107                    108
                      A                      A                      A
 Frequencies --   3109.0491              3113.5937              3120.2040
 Red. masses --      1.0961                 1.1030                 1.1020
 Frc consts  --      6.2425                 6.3000                 6.3212
 IR Inten    --      2.6303               111.5175                73.5991

                    109                    110                    111
                      A                      A                      A
 Frequencies --   3120.8392              3132.4356              3139.3538
 Red. masses --      1.1042                 1.1000                 1.1011
 Frc consts  --      6.3366                 6.3595                 6.3938
 IR Inten    --     23.3590                71.5737                48.1116

                    112                    113                    114
                      A                      A                      A
 Frequencies --   3181.0344              3560.6904              3563.6929
 Red. masses --      1.0991                 1.0771                 1.0800
 Frc consts  --      6.5525                 8.0461                 8.0812
 IR Inten    --     34.7028               243.3623               120.6895

 - Thermochemistry -
 -------------------
 Temperature   298.150 Kelvin.  Pressure   1.00000 Atm.
 Atom     1 has atomic number  6 and mass  12.00000

 Molecular mass:   254.16304 amu.
 Principal axes and moments of inertia in atomic units:
                           1         2         3
     Eigenvalues --  1882.73163********************
           X            0.99996  -0.00190   0.00846
           Y            0.00315   0.98871  -0.14981
           Z           -0.00808   0.14983   0.98868
 This molecule is an asymmetric top.
 Rotational symmetry number  1.
 Warning -- assumption of classical behavior for rotation
           may cause significant error
 Rotational temperatures (Kelvin)      0.04600     0.00673     0.00657
 Rotational constants (GHZ):           0.95858     0.14022     0.13691
 Zero-point vibrational energy     914369.0 (Joules/Mol)
                                  218.53943 (Kcal/Mol)
 Warning -- explicit consideration of  28 degrees of freedom as
           vibrations may cause significant error
 Vibrational temperatures:     41.99    49.28    65.12    75.99   117.76
          (Kelvin)            155.76   178.95   185.24   195.31   206.41
                              208.60   229.63   246.06   252.83   273.15
                              359.00   365.17   402.16   430.65   486.67
                              533.07   561.20   592.91   605.75   685.60
                              726.77   768.07   859.08   903.73   977.30
                              999.45  1044.76  1062.53  1074.05  1080.05
                             1082.23  1092.49  1112.04  1154.95  1196.14
                             1301.93  1313.58  1374.22  1402.33  1451.68
                             1471.52  1481.35  1504.86  1511.34  1533.02
                             1544.63  1547.40  1556.45  1607.60  1655.52
                             1686.99  1725.87  1771.83  1798.51  1808.51
                             1853.26  1880.79  1885.30  1906.68  1923.76
                             1927.55  1937.46  1949.28  1982.99  1995.27
                             2018.69  2037.27  2041.56  2045.48  2060.85
                             2062.48  2075.29  2112.95  2155.16  2157.46
                             2162.60  2166.94  2175.45  2179.21  2185.76
                             2194.93  2195.79  2208.34  2221.19  2519.74
                             2543.12  2609.21  4349.76  4352.30  4358.57
                             4367.65  4380.31  4390.35  4390.53  4396.63
                             4409.38  4417.69  4427.45  4429.03  4434.80
                             4473.23  4479.77  4489.28  4490.19  4506.88
                             4516.83  4576.80  5123.04  5127.36

 Zero-point correction=                           0.348265 (Hartree/Particle)
 Thermal correction to Energy=                    0.368022
 Thermal correction to Enthalpy=                  0.368966
 Thermal correction to Gibbs Free Energy=         0.298670
 Sum of electronic and zero-point Energies=           -843.548293
 Sum of electronic and thermal Energies=              -843.528536
 Sum of electronic and thermal Enthalpies=            -843.527592
 Sum of electronic and thermal Free Energies=         -843.597889

                     E (Thermal)             CV                S
                      KCal/Mol        Cal/Mol-Kelvin    Cal/Mol-Kelvin
 Total                  230.937             72.270            147.951
 Electronic               0.000              0.000              0.000
 Translational            0.889              2.981             42.499
 Rotational               0.889              2.981             34.123
 Vibrational            229.160             66.308             71.329
 Vibration     1          0.593              1.984              5.884
 Vibration     2          0.594              1.983              5.567
 Vibration     3          0.595              1.979              5.015
 Vibration     4          0.596              1.976              4.709
 Vibration     5          0.600              1.962              3.846
 Vibration     6          0.606              1.943              3.300
 Vibration     7          0.610              1.929              3.031
 Vibration     8          0.611              1.924              2.965
 Vibration     9          0.614              1.918              2.863
 Vibration    10          0.616              1.910              2.757
 Vibration    11          0.616              1.908              2.737
 Vibration    12          0.621              1.892              2.555
 Vibration    13          0.626              1.878              2.424
 Vibration    14          0.628              1.872              2.373
 Vibration    15          0.633              1.854              2.229
 Vibration    16          0.662              1.764              1.734
 Vibration    17          0.665              1.756              1.704
 Vibration    18          0.680              1.711              1.537
 Vibration    19          0.692              1.675              1.421
 Vibration    20          0.719              1.599              1.220
 Vibration    21          0.743              1.533              1.078
 Vibration    22          0.758              1.491              1.000
 Vibration    23          0.776              1.444              0.919
 Vibration    24          0.784              1.425              0.889
 Vibration    25          0.833              1.302              0.720
 Vibration    26          0.860              1.239              0.645
 Vibration    27          0.889              1.175              0.579
 Vibration    28          0.955              1.038              0.455

                           ! Non-Optimized Parameters !
 Normal termination of Gaussian 16 at Tue Mar  1 17:57:17 2022.

 ------------------------------------------
 #p b3lyp/6-31G(d) geom=allcheck guess=read
 ------------------------------------------

 Structure from the checkpoint file:  "172.n.pdb.xyz.mst.wat.chk"
 -------------
 172.n.pdb.xyz
 -------------
 Charge =  0 Multiplicity = 1

 SCF Done:  E(RB3LYP) =  -843.876210938     A.U. after   11 cycles
 Normal termination of Gaussian 16 at Tue Mar  1 17:59:50 2022.
 Gaussian 16:  ES64L-G16RevA.03 25-Dec-2016

 ----------------------------------------------------------------------
 #p b3lyp/6-31G(d) scrf=(iefpcm,read,solvent=water) geom=allcheck guess
 =read
 ----------------------------------------------------------------------

 Structure from the checkpoint file:  "172.n.pdb.xyz.mst.wat.chk"
 -------------
 172.n.pdb.xyz
 -------------
 Charge =  0 Multiplicity = 1

                         Standard orientation:
 ---------------------------------------------------------------------
 Center     Atomic      Atomic             Coordinates (Angstroms)
 Number     Number       Type             X           Y           Z
 ---------------------------------------------------------------------
      1          6           0       -7.471940    0.252067   -0.601984
      2          6           0       -6.194245   -0.377454   -0.042271
      3          6           0       -4.925099    0.392894   -0.420156
      4          6           0       -3.641129   -0.231534    0.135347
      5          6           0       -2.373226    0.542097   -0.240277
      6          6           0       -1.090638   -0.093129    0.308965
      7          6           0        0.144425    0.732854   -0.066356
      8          6           0        1.547050    0.189912    0.325629
      9          6           0        1.636576   -0.286198    1.828062
     10          6           0        1.126694   -1.692759    2.146017
     11          6           0        2.533859    1.364506    0.268577
     12          8           0        2.259492    2.472010    0.705162
     13          7           0        3.799401    1.105656   -0.219238
     14          6           0        4.236004   -0.052721   -0.837816
     15          8           0        5.374121   -0.184244   -1.256832
     16          7           0        3.277776   -1.043692   -0.958045
     17          6           0        1.948411   -0.968496   -0.581444
     18          8           0        1.167190   -1.838866   -0.935480
     19          1           0       -7.601883    1.275837   -0.233605
     20          1           0       -8.359456   -0.320483   -0.314275
     21          1           0       -7.443962    0.295929   -1.696618
     22          1           0       -6.266322   -0.439507    1.051388
     23          1           0       -6.108957   -1.411629   -0.400884
     24          1           0       -5.010513    1.427863   -0.060620
     25          1           0       -4.853723    0.456018   -1.514837
     26          1           0       -3.714344   -0.297043    1.229639
     27          1           0       -3.554795   -1.265186   -0.226731
     28          1           0       -2.301339    0.612953   -1.334395
     29          1           0       -2.455546    1.574414    0.127345
     30          1           0       -1.172261   -0.169640    1.398907
     31          1           0       -0.986309   -1.110981   -0.075482
     32          1           0        0.142145    0.897988   -1.150415
     33          1           0        0.063530    1.720707    0.395857
     34          1           0        1.091132    0.459996    2.412503
     35          1           0        2.681551   -0.220434    2.143016
     36          1           0        0.082071   -1.825214    1.864977
     37          1           0        1.714385   -2.459868    1.636141
     38          1           0        1.215868   -1.864741    3.222926
     39          1           0        4.476171    1.863238   -0.168965
     40          1           0        3.555445   -1.857399   -1.501442
 ---------------------------------------------------------------------

 SCF Done:  E(RB3LYP) =  -843.895108212     A.U. after   11 cycles

 The electronic state is 1-A.
 Alpha  occ. eigenvalues --  -19.14683 -19.14598 -19.14458 -14.39179 -14.39076
 Alpha  occ. eigenvalues --  -10.34999 -10.31924 -10.31843 -10.23080 -10.20333
 Alpha  occ. eigenvalues --  -10.18780 -10.17638 -10.17411 -10.17380 -10.17357
 Alpha  occ. eigenvalues --  -10.17241 -10.17181 -10.16846  -1.08827  -1.06188
 Alpha  occ. eigenvalues --   -1.05850  -0.96406  -0.92342  -0.83509  -0.80051
 Alpha  occ. eigenvalues --   -0.77159  -0.74309  -0.72057  -0.68123  -0.66075
 Alpha  occ. eigenvalues --   -0.65331  -0.62634  -0.61323  -0.57742  -0.57156
 Alpha  occ. eigenvalues --   -0.56644  -0.54701  -0.49492  -0.49066  -0.48037
 Alpha  occ. eigenvalues --   -0.47157  -0.46582  -0.45201  -0.44927  -0.44646
 Alpha  occ. eigenvalues --   -0.43346  -0.42761  -0.41995  -0.40946  -0.40439
 Alpha  occ. eigenvalues --   -0.39391  -0.39067  -0.37476  -0.36833  -0.36484
 Alpha  occ. eigenvalues --   -0.36270  -0.35133  -0.34279  -0.33999  -0.32411
 Alpha  occ. eigenvalues --   -0.32331  -0.31629  -0.31573  -0.30857  -0.30191
 Alpha  occ. eigenvalues --   -0.29508  -0.29388  -0.28277  -0.26291
 Alpha virt. eigenvalues --   -0.04197   0.00143   0.06411   0.09024   0.09659
 Alpha virt. eigenvalues --    0.10575   0.11529   0.11878   0.12084   0.12833
 Alpha virt. eigenvalues --    0.13904   0.14131   0.14553   0.15702   0.16332

 Mulliken charges:
               1
     1  C   -0.451042
     2  C   -0.249062
     3  C   -0.248857
     4  C   -0.256182
     5  C   -0.260601
     6  C   -0.273902
     7  C   -0.277587
     8  C   -0.126584
     9  C   -0.279412
    10  C   -0.459647
    11  C    0.656251
    12  O   -0.537896
    13  N   -0.665751
    14  C    0.785203
    15  O   -0.539917
    16  N   -0.664451
    17  C    0.660436
    18  O   -0.530604
    19  H    0.143496
    20  H    0.143560
    21  H    0.143491
    22  H    0.131722
    23  H    0.131735
    24  H    0.128187
    25  H    0.128311
    26  H    0.129469
    27  H    0.129620
    28  H    0.131284
    29  H    0.130100
    30  H    0.140962
    31  H    0.157398
    32  H    0.150523
    33  H    0.161547
    34  H    0.175374
    35  H    0.165745
    36  H    0.168410
    37  H    0.158984
    38  H    0.158117
    39  H    0.406516
    40  H    0.405055
 Sum of Mulliken charges =  -0.00000

 Dipole moment (field-independent basis, Debye):
    X=              0.0624    Y=             -0.5642    Z=              1.0100  Tot=              1.1586
 Quadrupole moment (field-independent basis, Debye-Ang):
   XX=           -118.0981   YY=           -116.6867   ZZ=           -107.4023
   XY=             -1.4458   XZ=              3.3747   YZ=             -3.9356

 Normal termination of Gaussian 16 at Tue Mar  1 18:03:04 2022.
