 Gaussian 16, Revision A.03,

 ----------------------------------------------------------------------
 #p b3lyp/6-31G(d) opt=(MaxStep=10,MaxCycles=1000) freq scf=(MaxCycle=2
 000,NoVarAcc,NoIncFock) scrf=(iefpcm,read,solvent=water)
 ----------------------------------------------------------------------

 -------------
 173.n.pdb.xyz
 -------------
 Symbolic Z-matrix:
 Charge =  0 Multiplicity = 1

 SCF Done:  E(RB3LYP) =  -115.722651695     A.U. after    9 cycles
 SCF Done:  E(RB3LYP) =  -115.723504337     A.U. after    8 cycles
 SCF Done:  E(RB3LYP) =  -115.723529395     A.U. after    7 cycles
 SCF Done:  E(RB3LYP) =  -115.723528166     A.U. after    7 cycles
 Optimization completed.
    -- Stationary point found.
 Normal termination of Gaussian 16 at Tue Mar  1 17:12:00 2022.

 --------------------------------------------------------------------
 #P Geom=AllCheck Guess=TCheck SCRF=Check GenChk RB3LYP/6-31G(d) Freq
 --------------------------------------------------------------------

 Structure from the checkpoint file:  "173.n.pdb.xyz.mst.wat.chk"
 -------------
 173.n.pdb.xyz
 -------------
 Charge =  0 Multiplicity = 1

 SCF Done:  E(RB3LYP) =  -115.723528166     A.U. after    1 cycles

  Exact polarizability:  19.910   1.221  19.053  -0.017   0.009  16.542
 Approx polarizability:  20.483   0.638  19.828  -0.016   0.008  16.695

                      1                      2                      3
                      A                      A                      A
 Frequencies --    318.1006              1052.1372              1095.6378
 Red. masses --      1.0673                 2.8481                 1.4206
 Frc consts  --      0.0636                 1.8576                 1.0047
 IR Inten    --    192.9333               180.5373                 0.7814

                      4                      5                      6
                      A                      A                      A
 Frequencies --   1187.8910              1395.4716              1507.9002
 Red. masses --      1.2667                 1.2768                 1.1418
 Frc consts  --      1.0531                 1.4649                 1.5297
 IR Inten    --      1.7351                48.5860                 7.1308

                      7                      8                      9
                      A                      A                      A
 Frequencies --   1516.0413              1536.7943              3024.1388
 Red. masses --      1.0505                 1.0483                 1.0364
 Frc consts  --      1.4226                 1.4587                 5.5844
 IR Inten    --      2.5120                 5.6734                78.0430

                     10                     11                     12
                      A                      A                      A
 Frequencies --   3072.3306              3136.9561              3719.5770
 Red. masses --      1.1040                 1.0992                 1.0666
 Frc consts  --      6.1400                 6.3731                 8.6944
 IR Inten    --    106.4122                61.9685                67.1175

 - Thermochemistry -
 -------------------
 Temperature   298.150 Kelvin.  Pressure   1.00000 Atm.
 Atom     1 has atomic number  6 and mass  12.00000

 Molecular mass:    32.02621 amu.
 Principal axes and moments of inertia in atomic units:
                           1         2         3
     Eigenvalues --    14.18869  72.99661  75.77097
           X            0.99894   0.04604  -0.00016
           Y           -0.04604   0.99894   0.00029
           Z            0.00017  -0.00028   1.00000
 This molecule is an asymmetric top.
 Rotational symmetry number  1.
 Rotational temperatures (Kelvin)      6.10444     1.18655     1.14310
 Rotational constants (GHZ):         127.19580    24.72363    23.81837
 Zero-point vibrational energy     134956.6 (Joules/Mol)
                                   32.25539 (Kcal/Mol)
 Warning -- explicit consideration of   1 degrees of freedom as
           vibrations may cause significant error
 Vibrational temperatures:    457.68  1513.79  1576.38  1709.11  2007.77
          (Kelvin)           2169.53  2181.25  2211.10  4351.06  4420.40
                             4513.38  5351.64

 Zero-point correction=                           0.051402 (Hartree/Particle)
 Thermal correction to Energy=                    0.054727
 Thermal correction to Enthalpy=                  0.055671
 Thermal correction to Gibbs Free Energy=         0.028646
 Sum of electronic and zero-point Energies=           -115.672126
 Sum of electronic and thermal Energies=              -115.668801
 Sum of electronic and thermal Enthalpies=            -115.667857
 Sum of electronic and thermal Free Energies=         -115.694882

                     E (Thermal)             CV                S
                      KCal/Mol        Cal/Mol-Kelvin    Cal/Mol-Kelvin
 Total                   34.342              8.738             56.879
 Electronic               0.000              0.000              0.000
 Translational            0.889              2.981             36.324
 Rotational               0.889              2.981             19.001
 Vibrational             32.564              2.777              1.553
 Vibration     1          0.705              1.639              1.320

 Optimization completed.
    -- Stationary point found.
 Normal termination of Gaussian 16 at Tue Mar  1 17:12:19 2022.

 ------------------------------------------
 #p b3lyp/6-31G(d) geom=allcheck guess=read
 ------------------------------------------

 Structure from the checkpoint file:  "173.n.pdb.xyz.mst.wat.chk"
 -------------
 173.n.pdb.xyz
 -------------
 Charge =  0 Multiplicity = 1

 SCF Done:  E(RB3LYP) =  -115.714367431     A.U. after    9 cycles

 1\1\GINC-PIRINEUS27\SP\RB3LYP\6-31G(d)\C1H4O1\UBATOR01\01-Mar-2022\0\\
 #p b3lyp/6-31G(d) geom=allcheck guess=read\\173.n.pdb.xyz\\0,1\C,0,-0.
 3558204314,0.006745371,0.0471923528\O,0,0.9202482892,0.513517109,-0.32
 36018379\H,0,-1.0843140555,0.7968512062,-0.1499434655\H,0,-0.409311252
 ,-0.2529340982,1.1136403592\H,0,-0.6402477537,-0.8765740836,-0.5384091
 432\H,0,1.5694452035,-0.1876055045,-0.1498782655\\Version=ES64L-G16Rev
 A.03\State=1-A\HF=-115.7143674\RMSD=3.952e-09\Dipole=-0.0867109,-0.621
 4429,0.2462986\Quadrupole=1.1407051,-0.4173914,-0.7233137,-1.4177641,0

 Normal termination of Gaussian 16 at Tue Mar  1 17:12:22 2022.
 Gaussian 16:  ES64L-G16RevA.03 25-Dec-2016

 ----------------------------------------------------------------------
 #p b3lyp/6-31G(d) scrf=(iefpcm,read,solvent=water) geom=allcheck guess
 =read
 ----------------------------------------------------------------------

 Structure from the checkpoint file:  "173.n.pdb.xyz.mst.wat.chk"
 -------------
 173.n.pdb.xyz
 -------------
 Charge =  0 Multiplicity = 1

                         Standard orientation:
 ---------------------------------------------------------------------
 Center     Atomic      Atomic             Coordinates (Angstroms)
 Number     Number       Type             X           Y           Z
 ---------------------------------------------------------------------
      1          6           0        0.664260   -0.018971    0.000178
      2          8           0       -0.750769    0.123679   -0.000396
      3          1           0        1.088114    0.988093   -0.001384
      4          1           0        1.031890   -0.548881   -0.889569
      5          1           0        1.030332   -0.544299    0.891302
      6          1           0       -1.129740   -0.770517    0.001755
 ---------------------------------------------------------------------

 SCF Done:  E(RB3LYP) =  -115.723605810     A.U. after    9 cycles

 The electronic state is 1-A.
 Alpha  occ. eigenvalues --  -19.13724 -10.21906  -1.00542  -0.67292  -0.49564
 Alpha  occ. eigenvalues --   -0.43011  -0.41646  -0.33052  -0.26448
 Alpha virt. eigenvalues --    0.09476   0.14073   0.17381   0.18280   0.21392
 Alpha virt. eigenvalues --    0.53635   0.57621   0.57749   0.79367   0.85724
 Alpha virt. eigenvalues --    0.86792   0.90960   0.95298   0.97086   1.02752

 Mulliken charges:
               1
     1  C   -0.208057
     2  O   -0.667201
     3  H    0.157050
     4  H    0.139852
     5  H    0.140371
     6  H    0.437986
 Sum of Mulliken charges =  -0.00000

 Dipole moment (field-independent basis, Debye):
    X=              0.8329    Y=             -1.9019    Z=              0.0069  Tot=              2.0763
 Quadrupole moment (field-independent basis, Debye-Ang):
   XX=            -12.4682   YY=            -11.8472   ZZ=            -13.5415
   XY=              2.4072   XZ=             -0.0045   YZ=             -0.0035

 1\1\GINC-PIRINEUS27\SP\RB3LYP\6-31G(d)\C1H4O1\UBATOR01\01-Mar-2022\0\\
 #p b3lyp/6-31G(d) scrf=(iefpcm,read,solvent=water) geom=allcheck guess
 =read\\173.n.pdb.xyz\\0,1\C,0,-0.3558204314,0.006745371,0.0471923528\O
 ,0,0.9202482892,0.513517109,-0.3236018379\H,0,-1.0843140555,0.79685120
 62,-0.1499434655\H,0,-0.409311252,-0.2529340982,1.1136403592\H,0,-0.64
 02477537,-0.8765740836,-0.5384091432\H,0,1.5694452035,-0.1876055045,-0
 .1498782655\\Version=ES64L-G16RevA.03\State=1-A\HF=-115.7236058\RMSD=2
 .174e-09\Dipole=-0.0597585,-0.759573,0.2945489\Quadrupole=1.2525392,-0

 Normal termination of Gaussian 16 at Tue Mar  1 17:12:27 2022.
