 Gaussian 16, Revision A.03,

 ----------------------------------------------------------------------
 #p b3lyp/6-31G(d) opt=(MaxStep=10,MaxCycles=1000) freq scf=(MaxCycle=2
 000,NoVarAcc,NoIncFock) scrf=(iefpcm,read,solvent=water)
 ----------------------------------------------------------------------

 -------------
 174.n.pdb.xyz
 -------------
 Symbolic Z-matrix:
 Charge =  0 Multiplicity = 1

 SCF Done:  E(RB3LYP) =  -959.362015041     A.U. after   12 cycles
 SCF Done:  E(RB3LYP) =  -959.365046522     A.U. after   10 cycles
 SCF Done:  E(RB3LYP) =  -959.363238258     A.U. after   10 cycles
 SCF Done:  E(RB3LYP) =  -959.366251609     A.U. after   10 cycles
 SCF Done:  E(RB3LYP) =  -959.366638082     A.U. after   10 cycles
 SCF Done:  E(RB3LYP) =  -959.366680411     A.U. after   10 cycles
 SCF Done:  E(RB3LYP) =  -959.366756846     A.U. after    9 cycles
 SCF Done:  E(RB3LYP) =  -959.366862631     A.U. after    9 cycles
 SCF Done:  E(RB3LYP) =  -959.366845029     A.U. after    9 cycles
 SCF Done:  E(RB3LYP) =  -959.366843503     A.U. after    8 cycles
 SCF Done:  E(RB3LYP) =  -959.366853746     A.U. after    6 cycles
 SCF Done:  E(RB3LYP) =  -959.366864224     A.U. after    8 cycles
 SCF Done:  E(RB3LYP) =  -959.366853079     A.U. after    8 cycles
 SCF Done:  E(RB3LYP) =  -959.366853553     A.U. after    6 cycles
 SCF Done:  E(RB3LYP) =  -959.366863648     A.U. after    8 cycles
 SCF Done:  E(RB3LYP) =  -959.366864471     A.U. after    8 cycles
 SCF Done:  E(RB3LYP) =  -959.366853204     A.U. after    8 cycles
 Optimization completed.
    -- Stationary point found.
 Normal termination of Gaussian 16 at Tue Mar  1 21:24:43 2022.

 --------------------------------------------------------------------
 #P Geom=AllCheck Guess=TCheck SCRF=Check GenChk RB3LYP/6-31G(d) Freq
 --------------------------------------------------------------------

 Structure from the checkpoint file:  "174.n.pdb.xyz.mst.wat.chk"
 -------------
 174.n.pdb.xyz
 -------------
 Charge =  0 Multiplicity = 1

 SCF Done:  E(RB3LYP) =  -959.366853204     A.U. after    1 cycles

  Exact polarizability: 319.002  16.391 282.372   2.275  -8.947 171.761
 Approx polarizability: 330.717  19.495 308.673   2.449 -11.447 188.391

                      1                      2                      3
                      A                      A                      A
 Frequencies --     18.3448                25.6951                33.8728
 Red. masses --      5.2520                 3.1271                 4.8367
 Frc consts  --      0.0010                 0.0012                 0.0033
 IR Inten    --      0.3198                 0.4207                 0.2947

                      4                      5                      6
                      A                      A                      A
 Frequencies --     46.7518                63.2754                79.0352
 Red. masses --      3.6277                 3.9259                 4.8178
 Frc consts  --      0.0047                 0.0093                 0.0177
 IR Inten    --      0.5932                 5.3210                 2.0853

                      7                      8                      9
                      A                      A                      A
 Frequencies --     97.7656               124.5676               134.3177
 Red. masses --      4.0589                 3.6769                 3.4683
 Frc consts  --      0.0229                 0.0336                 0.0369
 IR Inten    --      1.2160                 0.0966                 6.5867

                     10                     11                     12
                      A                      A                      A
 Frequencies --    159.6635               174.3309               184.8856
 Red. masses --      1.6274                 2.8401                 2.8116
 Frc consts  --      0.0244                 0.0509                 0.0566
 IR Inten    --      1.4227                 0.4769                 3.1263

                     13                     14                     15
                      A                      A                      A
 Frequencies --    191.5773               239.4513               249.2549
 Red. masses --      2.5194                 2.3837                 3.9681
 Frc consts  --      0.0545                 0.0805                 0.1452
 IR Inten    --      3.0360                 0.0965                 1.6688

                     16                     17                     18
                      A                      A                      A
 Frequencies --    256.9248               272.2202               282.8457
 Red. masses --      1.1269                 1.1675                 2.1399
 Frc consts  --      0.0438                 0.0510                 0.1009
 IR Inten    --      1.3734                 1.0440                 5.0179

                     19                     20                     21
                      A                      A                      A
 Frequencies --    301.7098               326.1435               342.7773
 Red. masses --      3.3255                 3.5806                 2.2832
 Frc consts  --      0.1784                 0.2244                 0.1581
 IR Inten    --      2.2576                 1.1863                 0.9275

                     22                     23                     24
                      A                      A                      A
 Frequencies --    366.1801               393.9285               432.0292
 Red. masses --      3.0175                 4.2886                 3.1469
 Frc consts  --      0.2384                 0.3921                 0.3461
 IR Inten    --      5.0926                 2.4796                 1.3823

                     25                     26                     27
                      A                      A                      A
 Frequencies --    441.2608               450.1945               481.9595
 Red. masses --      2.7267                 2.1646                 3.7617
 Frc consts  --      0.3128                 0.2585                 0.5148
 IR Inten    --     17.0151                 1.6050                14.6172

                     28                     29                     30
                      A                      A                      A
 Frequencies --    487.5163               512.3542               518.3978
 Red. masses --      2.7513                 3.6209                 2.7681
 Frc consts  --      0.3853                 0.5600                 0.4383
 IR Inten    --      2.2377                 0.1759                 3.1433

                     31                     32                     33
                      A                      A                      A
 Frequencies --    529.4320               550.9064               563.2138
 Red. masses --      3.0256                 1.5160                 1.8584
 Frc consts  --      0.4997                 0.2711                 0.3473
 IR Inten    --      4.7643               100.4903                67.8282

                     34                     35                     36
                      A                      A                      A
 Frequencies --    580.4862               605.3676               628.6402
 Red. masses --      2.4419                 3.0453                 2.4940
 Frc consts  --      0.4848                 0.6575                 0.5807
 IR Inten    --     66.5150                21.5412                48.7206

                     37                     38                     39
                      A                      A                      A
 Frequencies --    635.0255               686.5316               724.0133
 Red. masses --      3.7846                 3.8551                 2.7643
 Frc consts  --      0.8992                 1.0706                 0.8537
 IR Inten    --     39.1235                30.9052                14.8035

                     40                     41                     42
                      A                      A                      A
 Frequencies --    748.1207               766.0951               778.1960
 Red. masses --      3.8113                 3.2502                 1.8371
 Frc consts  --      1.2568                 1.1239                 0.6555
 IR Inten    --     32.8301                24.0434                88.6859

                     43                     44                     45
                      A                      A                      A
 Frequencies --    802.4056               822.6131               846.4282
 Red. masses --      2.5252                 1.3432                 4.7025
 Frc consts  --      0.9579                 0.5355                 1.9850
 IR Inten    --      2.2245               143.4333                 8.3980

                     46                     47                     48
                      A                      A                      A
 Frequencies --    858.2216               901.1377               915.4268
 Red. masses --      1.4310                 2.9078                 1.9534
 Frc consts  --      0.6210                 1.3912                 0.9645
 IR Inten    --      0.4397                90.6076                 8.3804

                     49                     50                     51
                      A                      A                      A
 Frequencies --    925.7033               935.4164               940.8626
 Red. masses --      1.8975                 2.6523                 1.6451
 Frc consts  --      0.9580                 1.3674                 0.8580
 IR Inten    --      3.7256                 4.9251                 9.9627

                     52                     53                     54
                      A                      A                      A
 Frequencies --    953.7969               960.9839               964.7491
 Red. masses --      1.4664                 1.2576                 1.2112
 Frc consts  --      0.7860                 0.6843                 0.6642
 IR Inten    --      6.1903                 3.5139                 0.1439

                     55                     56                     57
                      A                      A                      A
 Frequencies --   1006.6138              1012.1036              1038.8617
 Red. masses --      2.4123                 3.1770                 1.5741
 Frc consts  --      1.4402                 1.9174                 1.0009
 IR Inten    --     32.6000                20.4923                14.6754

                     58                     59                     60
                      A                      A                      A
 Frequencies --   1049.6908              1053.0928              1073.3365
 Red. masses --      1.5550                 2.0488                 1.9972
 Frc consts  --      1.0095                 1.3387                 1.3556
 IR Inten    --      1.7876                 4.1912                19.5185

                     61                     62                     63
                      A                      A                      A
 Frequencies --   1104.6695              1120.0086              1131.0374
 Red. masses --      2.9123                 2.7008                 2.4790
 Frc consts  --      2.0939                 1.9961                 1.8684
 IR Inten    --     76.4765                80.9725               231.9402

                     64                     65                     66
                      A                      A                      A
 Frequencies --   1140.9364              1157.9534              1191.2519
 Red. masses --      2.6288                 3.5845                 1.1941
 Frc consts  --      2.0161                 2.8318                 0.9984
 IR Inten    --      1.9557                63.7699                19.2607

                     67                     68                     69
                      A                      A                      A
 Frequencies --   1209.3979              1227.3825              1230.1561
 Red. masses --      1.3056                 1.4991                 2.3599
 Frc consts  --      1.1251                 1.3306                 2.1040
 IR Inten    --     30.8489                96.1632                 6.6797

                     70                     71                     72
                      A                      A                      A
 Frequencies --   1237.5678              1241.4809              1260.2483
 Red. masses --      1.7857                 2.3931                 2.4799
 Frc consts  --      1.6114                 2.1732                 2.3206
 IR Inten    --    362.6777                28.1388                12.9948

                     73                     74                     75
                      A                      A                      A
 Frequencies --   1264.0495              1277.9873              1313.1312
 Red. masses --      1.8681                 1.2418                 1.2591
 Frc consts  --      1.7586                 1.1950                 1.2792
 IR Inten    --     56.9284                 7.1665                12.5703

                     76                     77                     78
                      A                      A                      A
 Frequencies --   1316.8853              1318.1790              1342.9809
 Red. masses --      2.4773                 1.6104                 1.8971
 Frc consts  --      2.5312                 1.6487                 2.0160
 IR Inten    --    199.4784                66.3252               144.3299

                     79                     80                     81
                      A                      A                      A
 Frequencies --   1348.7583              1357.7143              1376.7914
 Red. masses --      1.6837                 1.2782                 3.5470
 Frc consts  --      1.8046                 1.3882                 3.9614
 IR Inten    --      3.2809                83.5989               127.2983

                     82                     83                     84
                      A                      A                      A
 Frequencies --   1398.4637              1401.1086              1405.7034
 Red. masses --      1.4104                 2.3441                 1.2691
 Frc consts  --      1.6251                 2.7112                 1.4775
 IR Inten    --     42.8224               236.8692                17.4824

                     85                     86                     87
                      A                      A                      A
 Frequencies --   1409.9814              1422.2974              1434.6430
 Red. masses --      1.2557                 1.2911                 1.2378
 Frc consts  --      1.4708                 1.5388                 1.5010
 IR Inten    --      6.6003                10.2469                 8.4914

                     88                     89                     90
                      A                      A                      A
 Frequencies --   1474.5814              1485.3895              1486.9459
 Red. masses --      1.9783                 1.0838                 1.7445
 Frc consts  --      2.5344                 1.4089                 2.2725
 IR Inten    --     74.0758                 7.8064                27.6044

                     91                     92                     93
                      A                      A                      A
 Frequencies --   1491.9263              1496.4119              1499.3808
 Red. masses --      1.0594                 1.0632                 1.1263
 Frc consts  --      1.3894                 1.4027                 1.4918
 IR Inten    --      5.8249                 4.2177                10.3458

                     94                     95                     96
                      A                      A                      A
 Frequencies --   1499.7084              1508.8772              1512.4341
 Red. masses --      1.0920                 1.0512                 1.1784
 Frc consts  --      1.4471                 1.4101                 1.5881
 IR Inten    --     19.0592                 4.6135                91.2247

                     97                     98                     99
                      A                      A                      A
 Frequencies --   1515.5188              1522.6014              1523.3619
 Red. masses --      1.2388                 1.5753                 1.2157
 Frc consts  --      1.6765                 2.1517                 1.6622
 IR Inten    --     90.9517                80.2681                15.7439

                    100                    101                    102
                      A                      A                      A
 Frequencies --   1531.5333              1540.8636              1556.4299
 Red. masses --      1.0746                 1.1650                 2.2775
 Frc consts  --      1.4851                 1.6297                 3.2507
 IR Inten    --     12.3737                14.4419                77.8650

                    103                    104                    105
                      A                      A                      A
 Frequencies --   1652.0896              1656.4273              1748.1735
 Red. masses --      6.7213                 6.1467                 7.8814
 Frc consts  --     10.8087                 9.9367                14.1913
 IR Inten    --    292.2524               128.5397               886.4735

                    106                    107                    108
                      A                      A                      A
 Frequencies --   2986.9754              3029.9935              3030.8690
 Red. masses --      1.0825                 1.0675                 1.0733
 Frc consts  --      5.6902                 5.7743                 5.8091
 IR Inten    --     96.3489                68.1157                44.7439

                    109                    110                    111
                      A                      A                      A
 Frequencies --   3044.9195              3046.0583              3057.1312
 Red. masses --      1.0374                 1.0542                 1.0691
 Frc consts  --      5.6671                 5.7630                 5.8872
 IR Inten    --     30.1498                87.6970                31.0587

                    112                    113                    114
                      A                      A                      A
 Frequencies --   3057.4317              3067.6904              3094.0542
 Red. masses --      1.0360                 1.0365                 1.1083
 Frc consts  --      5.7059                 5.7471                 6.2512
 IR Inten    --     49.3515                10.4269                55.8160

                    115                    116                    117
                      A                      A                      A
 Frequencies --   3111.4631              3114.7366              3118.0597
 Red. masses --      1.1027                 1.0946                 1.1021
 Frc consts  --      6.2901                 6.2566                 6.3130
 IR Inten    --     40.4167                68.7024                43.0882

                    118                    119                    120
                      A                      A                      A
 Frequencies --   3123.3591              3129.3824              3135.9365
 Red. masses --      1.1010                 1.0906                 1.1023
 Frc consts  --      6.3282                 6.2928                 6.3869
 IR Inten    --     78.1264                20.8213                32.2302

                    121                    122                    123
                      A                      A                      A
 Frequencies --   3136.0701              3140.9207              3143.9883
 Red. masses --      1.1017                 1.1024                 1.0943
 Frc consts  --      6.3838                 6.4076                 6.3728
 IR Inten    --     38.2422               110.1963                31.7079

                    124                    125                    126
                      A                      A                      A
 Frequencies --   3208.8636              3224.5614              3250.9011
 Red. masses --      1.0872                 1.0941                 1.0919
 Frc consts  --      6.5959                 6.7026                 6.7987
 IR Inten    --     14.9824                30.6001                11.5960

                    127                    128                    129
                      A                      A                      A
 Frequencies --   3483.3519              3503.2683              3576.1608
 Red. masses --      1.0741                 1.0647                 1.0781
 Frc consts  --      7.6784                 7.6987                 8.1238
 IR Inten    --      6.4727               324.7847               102.9448

 - Thermochemistry -
 -------------------
 Temperature   298.150 Kelvin.  Pressure   1.00000 Atm.
 Atom     1 has atomic number  6 and mass  12.00000

 Molecular mass:   292.17869 amu.
 Principal axes and moments of inertia in atomic units:
                           1         2         3
     Eigenvalues --  2199.56334********************
           X            1.00000  -0.00196   0.00055
           Y            0.00196   0.99999  -0.00342
           Z           -0.00055   0.00342   0.99999
 This molecule is an asymmetric top.
 Rotational symmetry number  1.
 Warning -- assumption of classical behavior for rotation
           may cause significant error
 Rotational temperatures (Kelvin)      0.03938     0.00468     0.00431
 Rotational constants (GHZ):           0.82050     0.09752     0.08984
 Zero-point vibrational energy    1021050.2 (Joules/Mol)
                                  244.03687 (Kcal/Mol)
 Warning -- explicit consideration of  35 degrees of freedom as
           vibrations may cause significant error
 Vibrational temperatures:     26.39    36.97    48.74    67.27    91.04
          (Kelvin)            113.71   140.66   179.23   193.25   229.72
                              250.82   266.01   275.64   344.52   358.62
                              369.66   391.66   406.95   434.09   469.25
                              493.18   526.85   566.78   621.59   634.88
                              647.73   693.43   701.43   737.16   745.86
                              761.73   792.63   810.34   835.19   870.99
                              904.47   913.66   987.77  1041.69  1076.38
                             1102.24  1119.65  1154.48  1183.56  1217.82
                             1234.79  1296.54  1317.10  1331.88  1345.86
                             1353.69  1372.30  1382.64  1388.06  1448.29
                             1456.19  1494.69  1510.27  1515.17  1544.29
                             1589.37  1611.44  1627.31  1641.55  1666.04
                             1713.95  1740.05  1765.93  1769.92  1780.58
                             1786.21  1813.22  1818.69  1838.74  1889.30
                             1894.70  1896.57  1932.25  1940.56  1953.45
                             1980.90  2012.08  2015.88  2022.49  2028.65
                             2046.37  2064.13  2121.59  2137.14  2139.38
                             2146.55  2153.00  2157.27  2157.75  2170.94
                             2176.06  2180.49  2190.68  2191.78  2203.53
                             2216.96  2239.36  2376.99  2383.23  2515.23
                             4297.59  4359.48  4360.74  4380.96  4382.60
                             4398.53  4398.96  4413.72  4451.65  4476.70
                             4481.41  4486.19  4493.82  4502.48  4511.91
                             4512.11  4519.08  4523.50  4616.84  4639.42
                             4677.32  5011.77  5040.42  5145.30

 Zero-point correction=                           0.388898 (Hartree/Particle)
 Thermal correction to Energy=                    0.410163
 Thermal correction to Enthalpy=                  0.411107
 Thermal correction to Gibbs Free Energy=         0.337046
 Sum of electronic and zero-point Energies=           -958.977956
 Sum of electronic and thermal Energies=              -958.956690
 Sum of electronic and thermal Enthalpies=            -958.955746
 Sum of electronic and thermal Free Energies=         -959.029807

                     E (Thermal)             CV                S
                      KCal/Mol        Cal/Mol-Kelvin    Cal/Mol-Kelvin
 Total                  257.381             81.790            155.875
 Electronic               0.000              0.000              0.000
 Translational            0.889              2.981             42.914
 Rotational               0.889              2.981             35.057
 Vibrational            255.604             75.828             77.903
 Vibration     1          0.593              1.986              6.806
 Vibration     2          0.593              1.985              6.137
 Vibration     3          0.594              1.983              5.589
 Vibration     4          0.595              1.979              4.950
 Vibration     5          0.597              1.972              4.352
 Vibration     6          0.600              1.963              3.915
 Vibration     7          0.603              1.951              3.498
 Vibration     8          0.610              1.928              3.028
 Vibration     9          0.613              1.919              2.883
 Vibration    10          0.622              1.892              2.554
 Vibration    11          0.627              1.874              2.388
 Vibration    12          0.631              1.860              2.279
 Vibration    13          0.634              1.852              2.213
 Vibration    14          0.657              1.780              1.807
 Vibration    15          0.662              1.764              1.736
 Vibration    16          0.667              1.751              1.683
 Vibration    17          0.675              1.724              1.582
 Vibration    18          0.682              1.705              1.516
 Vibration    19          0.694              1.670              1.407
 Vibration    20          0.710              1.623              1.279
 Vibration    21          0.722              1.590              1.199
 Vibration    22          0.739              1.542              1.096
 Vibration    23          0.761              1.483              0.985
 Vibration    24          0.793              1.400              0.852
 Vibration    25          0.801              1.380              0.823
 Vibration    26          0.809              1.360              0.795
 Vibration    27          0.838              1.290              0.705
 Vibration    28          0.843              1.278              0.690
 Vibration    29          0.867              1.223              0.628
 Vibration    30          0.873              1.209              0.614
 Vibration    31          0.884              1.185              0.588
 Vibration    32          0.906              1.138              0.542
 Vibration    33          0.919              1.111              0.517
 Vibration    34          0.937              1.074              0.484
 Vibration    35          0.964              1.020              0.441

 Optimization completed.
    -- Stationary point found.
 Normal termination of Gaussian 16 at Tue Mar  1 22:17:33 2022.

 ------------------------------------------
 #p b3lyp/6-31G(d) geom=allcheck guess=read
 ------------------------------------------

 Structure from the checkpoint file:  "174.n.pdb.xyz.mst.wat.chk"
 -------------
 174.n.pdb.xyz
 -------------
 Charge =  0 Multiplicity = 1

 SCF Done:  E(RB3LYP) =  -959.342634310     A.U. after   12 cycles
 Normal termination of Gaussian 16 at Tue Mar  1 22:21:04 2022.
 Gaussian 16:  ES64L-G16RevA.03 25-Dec-2016

 ----------------------------------------------------------------------
 #p b3lyp/6-31G(d) scrf=(iefpcm,read,solvent=water) geom=allcheck guess
 =read
 ----------------------------------------------------------------------

 Structure from the checkpoint file:  "174.n.pdb.xyz.mst.wat.chk"
 -------------
 174.n.pdb.xyz
 -------------
 Charge =  0 Multiplicity = 1

                         Standard orientation:
 ---------------------------------------------------------------------
 Center     Atomic      Atomic             Coordinates (Angstroms)
 Number     Number       Type             X           Y           Z
 ---------------------------------------------------------------------
      1          6           0        6.176914    0.822421    0.951959
      2          6           0        5.637806   -0.224800   -0.039889
      3          6           0        6.506620   -1.487936    0.023958
      4          6           0        5.669666    0.335021   -1.468933
      5          7           0        4.254302   -0.651808    0.293457
      6          6           0        3.237853    0.396965    0.412601
      7          6           0        1.857968   -0.273768    0.324077
      8          8           0        1.837079   -1.161972   -0.784961
      9          6           0        0.757820    0.754770    0.162536
     10          8           0       -0.497351    0.078378    0.265876
     11          6           0       -1.639560    0.807752    0.098662
     12          6           0       -1.652292    2.192610   -0.108697
     13          6           0       -2.877989    2.847872   -0.247785
     14          6           0       -4.078735    2.148181   -0.194028
     15          6           0       -4.047815    0.761640    0.009103
     16          6           0       -2.836490    0.075031    0.160137
     17          6           0       -2.864783   -1.411553    0.417024
     18          6           0       -4.065687   -2.062222   -0.279641
     19          6           0       -5.368101   -1.322616   -0.039082
     20          8           0       -6.464920   -1.880159    0.003481
     21          7           0       -5.251894    0.035474    0.082837
     22          1           0        7.212200    1.089073    0.713251
     23          1           0        6.155563    0.431800    1.975747
     24          1           0        5.581310    1.740898    0.926402
     25          1           0        6.131282   -2.249200   -0.666448
     26          1           0        6.509219   -1.913024    1.033971
     27          1           0        7.541250   -1.257420   -0.245146
     28          1           0        6.698124    0.572040   -1.755394
     29          1           0        5.082494    1.252948   -1.563748
     30          1           0        5.274422   -0.398464   -2.178040
     31          1           0        4.286232   -1.163849    1.175892
     32          1           0        3.309552    0.987873    1.335998
     33          1           0        3.349389    1.083336   -0.431439
     34          1           0        1.671774   -0.829564    1.257962
     35          1           0        2.764260   -1.489095   -0.815564
     36          1           0        0.840933    1.240625   -0.816297
     37          1           0        0.835522    1.520573    0.943498
     38          1           0       -0.727248    2.751663   -0.154971
     39          1           0       -2.890970    3.921190   -0.405211
     40          1           0       -5.027116    2.660808   -0.311343
     41          1           0       -2.924248   -1.598853    1.498143
     42          1           0       -1.935221   -1.870150    0.075290
     43          1           0       -3.905705   -2.071580   -1.365843
     44          1           0       -4.204661   -3.097855    0.034839
     45          1           0       -6.122855    0.554398    0.137212
 ---------------------------------------------------------------------

 SCF Done:  E(RB3LYP) =  -959.364007423     A.U. after   11 cycles

 The electronic state is 1-A.
 Alpha  occ. eigenvalues --  -19.17968 -19.13129 -19.12106 -14.37018 -14.32319
 Alpha  occ. eigenvalues --  -10.29465 -10.25112 -10.23814 -10.23676 -10.23340
 Alpha  occ. eigenvalues --  -10.22124 -10.20713 -10.19425 -10.19385 -10.19341
 Alpha  occ. eigenvalues --  -10.19257 -10.18636 -10.18502 -10.17011 -10.16919
 Alpha  occ. eigenvalues --  -10.16892  -1.06691  -1.03823  -1.01019  -0.94380
 Alpha  occ. eigenvalues --   -0.90651  -0.84813  -0.80232  -0.78883  -0.76498
 Alpha  occ. eigenvalues --   -0.74527  -0.72605  -0.68869  -0.68359  -0.66802
 Alpha  occ. eigenvalues --   -0.65551  -0.62850  -0.60832  -0.58948  -0.55433
 Alpha  occ. eigenvalues --   -0.55083  -0.54385  -0.51206  -0.48665  -0.48524
 Alpha  occ. eigenvalues --   -0.48490  -0.47765  -0.47240  -0.46908  -0.45321
 Alpha  occ. eigenvalues --   -0.44270  -0.43932  -0.43356  -0.43142  -0.41797
 Alpha  occ. eigenvalues --   -0.41262  -0.40334  -0.40171  -0.39289  -0.38818
 Alpha  occ. eigenvalues --   -0.38550  -0.37512  -0.37173  -0.36263  -0.36098
 Alpha  occ. eigenvalues --   -0.35856  -0.34904  -0.34718  -0.33580  -0.33289
 Alpha  occ. eigenvalues --   -0.32809  -0.32334  -0.31740  -0.29527  -0.26377
 Alpha  occ. eigenvalues --   -0.25788  -0.23312  -0.22460  -0.21676
 Alpha virt. eigenvalues --   -0.01379   0.00581   0.04114   0.07496   0.09581
 Alpha virt. eigenvalues --    0.10413   0.10833   0.11037   0.11934   0.12565
 Alpha virt. eigenvalues --    0.12919   0.13735   0.14287   0.14454   0.14646

 Mulliken charges:
               1
     1  C   -0.455292
     2  C    0.215853
     3  C   -0.458647
     4  C   -0.451495
     5  N   -0.612809
     6  C   -0.155703
     7  C    0.123927
     8  O   -0.691855
     9  C   -0.043518
    10  O   -0.537795
    11  C    0.306947
    12  C   -0.216224
    13  C   -0.169154
    14  C   -0.201569
    15  C    0.308024
    16  C    0.057169
    17  C   -0.337753
    18  C   -0.368925
    19  C    0.597136
    20  O   -0.581756
    21  N   -0.708509
    22  H    0.147275
    23  H    0.144065
    24  H    0.150717
    25  H    0.149219
    26  H    0.145583
    27  H    0.150616
    28  H    0.149191
    29  H    0.151008
    30  H    0.148751
    31  H    0.334156
    32  H    0.144451
    33  H    0.158170
    34  H    0.127175
    35  H    0.414002
    36  H    0.156417
    37  H    0.157354
    38  H    0.160250
    39  H    0.152905
    40  H    0.152609
    41  H    0.170508
    42  H    0.175046
    43  H    0.188554
    44  H    0.173525
    45  H    0.380401
 Sum of Mulliken charges =  -0.00000

 Dipole moment (field-independent basis, Debye):
    X=              7.5987    Y=              4.5908    Z=              1.9848  Tot=              9.0970
 Quadrupole moment (field-independent basis, Debye-Ang):
   XX=           -133.6442   YY=           -123.5790   ZZ=           -126.0341
   XY=            -20.6631   XZ=              6.2866   YZ=             -2.8317

 Normal termination of Gaussian 16 at Tue Mar  1 22:25:18 2022.
