 Gaussian 16, Revision A.03,

 ----------------------------------------------------------------------
 #p b3lyp/6-31G(d) opt=(MaxStep=10,MaxCycles=1000) freq scf=(MaxCycle=2
 000,NoVarAcc,NoIncFock) scrf=(iefpcm,read,solvent=water)
 ----------------------------------------------------------------------

 -------------
 175.n.pdb.xyz
 -------------
 Symbolic Z-matrix:
 Charge =  0 Multiplicity = 1

 SCF Done:  E(RB3LYP) =  -874.239370068     A.U. after   13 cycles
 SCF Done:  E(RB3LYP) =  -874.244946858     A.U. after   10 cycles
 SCF Done:  E(RB3LYP) =  -874.244256194     A.U. after   11 cycles
 SCF Done:  E(RB3LYP) =  -874.247960625     A.U. after   11 cycles
 SCF Done:  E(RB3LYP) =  -874.249659160     A.U. after   11 cycles
 SCF Done:  E(RB3LYP) =  -874.250388322     A.U. after   10 cycles
 SCF Done:  E(RB3LYP) =  -874.250647616     A.U. after   11 cycles
 SCF Done:  E(RB3LYP) =  -874.250850274     A.U. after   10 cycles
 SCF Done:  E(RB3LYP) =  -874.250917844     A.U. after   10 cycles
 SCF Done:  E(RB3LYP) =  -874.250929363     A.U. after    9 cycles
 SCF Done:  E(RB3LYP) =  -874.250935079     A.U. after    9 cycles
 SCF Done:  E(RB3LYP) =  -874.250937004     A.U. after    9 cycles
 SCF Done:  E(RB3LYP) =  -874.250932221     A.U. after    8 cycles
 SCF Done:  E(RB3LYP) =  -874.250930718     A.U. after    7 cycles
 SCF Done:  E(RB3LYP) =  -874.250936728     A.U. after    8 cycles
 SCF Done:  E(RB3LYP) =  -874.250937114     A.U. after    7 cycles
 SCF Done:  E(RB3LYP) =  -874.250930496     A.U. after    8 cycles
 Optimization completed.
    -- Stationary point found.
 Normal termination of Gaussian 16 at Tue Mar  1 22:16:48 2022.

 --------------------------------------------------------------------
 #P Geom=AllCheck Guess=TCheck SCRF=Check GenChk RB3LYP/6-31G(d) Freq
 --------------------------------------------------------------------

 Structure from the checkpoint file:  "175.n.pdb.xyz.mst.wat.chk"
 -------------
 175.n.pdb.xyz
 -------------
 Charge =  0 Multiplicity = 1

 SCF Done:  E(RB3LYP) =  -874.250930496     A.U. after    1 cycles

  Exact polarizability: 309.109  13.994 293.558  12.532 -22.496 158.946
 Approx polarizability: 325.030   9.930 339.652  14.597 -33.384 186.815

                      1                      2                      3
                      A                      A                      A
 Frequencies --     51.6516                60.0445                77.0655
 Red. masses --      5.9540                 4.4499                 5.0239
 Frc consts  --      0.0094                 0.0095                 0.0176
 IR Inten    --      3.3504                 3.1136                 2.8427

                      4                      5                      6
                      A                      A                      A
 Frequencies --     99.4996               116.4846               142.4259
 Red. masses --      3.1972                 6.0322                 3.4118
 Frc consts  --      0.0186                 0.0482                 0.0408
 IR Inten    --      0.6087                 9.3894                 3.3214

                      7                      8                      9
                      A                      A                      A
 Frequencies --    175.5306               208.0395               236.1013
 Red. masses --      4.0898                 1.6835                 2.9992
 Frc consts  --      0.0742                 0.0429                 0.0985
 IR Inten    --      0.6160                 0.8986                 0.9193

                     10                     11                     12
                      A                      A                      A
 Frequencies --    241.9040               264.6429               285.4815
 Red. masses --      2.9226                 3.6363                 3.1175
 Frc consts  --      0.1008                 0.1500                 0.1497
 IR Inten    --      1.5917                16.0136                 1.1913

                     13                     14                     15
                      A                      A                      A
 Frequencies --    315.3823               336.3624               354.4609
 Red. masses --      4.5155                 5.4985                 4.0351
 Frc consts  --      0.2646                 0.3665                 0.2987
 IR Inten    --     12.3174                11.8699                 0.5061

                     16                     17                     18
                      A                      A                      A
 Frequencies --    375.1164               414.1683               442.0516
 Red. masses --      6.8468                 4.1612                 4.1779
 Frc consts  --      0.5676                 0.4206                 0.4810
 IR Inten    --      1.3090                 8.8790                19.4736

                     19                     20                     21
                      A                      A                      A
 Frequencies --    466.4395               487.7122               532.9557
 Red. masses --      4.2020                 4.4736                 3.9551
 Frc consts  --      0.5386                 0.6269                 0.6619
 IR Inten    --      8.3087                 8.5088                 8.8158

                     22                     23                     24
                      A                      A                      A
 Frequencies --    540.5079               561.4063               596.8421
 Red. masses --      3.6968                 4.4085                 5.3470
 Frc consts  --      0.6363                 0.8186                 1.1222
 IR Inten    --      1.8120                 4.0625                33.2111

                     25                     26                     27
                      A                      A                      A
 Frequencies --    599.8421               617.7335               629.7270
 Red. masses --      4.1161                 1.8039                 3.3587
 Frc consts  --      0.8726                 0.4056                 0.7847
 IR Inten    --      4.3008               103.2609                42.2077

                     28                     29                     30
                      A                      A                      A
 Frequencies --    672.4557               705.5954               738.8165
 Red. masses --      4.8212                 5.4215                 5.4687
 Frc consts  --      1.2845                 1.5903                 1.7588
 IR Inten    --     21.9115                 6.2835                55.4894

                     31                     32                     33
                      A                      A                      A
 Frequencies --    770.5455               772.8202               791.7341
 Red. masses --      1.7843                 3.4875                 2.5812
 Frc consts  --      0.6242                 1.2272                 0.9533
 IR Inten    --      4.5657                37.4943                37.2585

                     34                     35                     36
                      A                      A                      A
 Frequencies --    802.5647               818.6405               829.0772
 Red. masses --      3.3729                 1.4384                 1.6397
 Frc consts  --      1.2800                 0.5679                 0.6641
 IR Inten    --     12.5099                27.9872                 2.7544

                     37                     38                     39
                      A                      A                      A
 Frequencies --    843.2456               852.5518               898.1326
 Red. masses --      2.9671                 1.3584                 3.6943
 Frc consts  --      1.2431                 0.5817                 1.7558
 IR Inten    --      7.6283                19.9418                13.4410

                     40                     41                     42
                      A                      A                      A
 Frequencies --    906.9484               960.8157               977.1466
 Red. masses --      4.6811                 3.8214                 1.3613
 Frc consts  --      2.2686                 2.0785                 0.7658
 IR Inten    --     23.7469                40.6154                 0.2992

                     43                     44                     45
                      A                      A                      A
 Frequencies --    987.7324               993.8370              1001.7396
 Red. masses --      1.4235                 2.7331                 1.3602
 Frc consts  --      0.8182                 1.5905                 0.8042
 IR Inten    --      7.1110                36.9806                 2.6978

                     46                     47                     48
                      A                      A                      A
 Frequencies --   1019.9798              1063.7457              1071.3559
 Red. masses --      1.7893                 1.4833                 1.5811
 Frc consts  --      1.0968                 0.9889                 1.0692
 IR Inten    --      3.7225                 3.5521                15.9578

                     49                     50                     51
                      A                      A                      A
 Frequencies --   1078.4304              1087.9734              1108.2372
 Red. masses --      2.8996                 1.3761                 3.1215
 Frc consts  --      1.9869                 0.9597                 2.2588
 IR Inten    --      6.4899                 3.6828                23.0153

                     52                     53                     54
                      A                      A                      A
 Frequencies --   1121.6831              1133.4697              1134.9982
 Red. masses --      2.1448                 1.6613                 1.1925
 Frc consts  --      1.5899                 1.2575                 0.9051
 IR Inten    --     10.4828                14.4304                 5.6386

                     55                     56                     57
                      A                      A                      A
 Frequencies --   1167.2321              1179.8477              1201.1479
 Red. masses --      1.6250                 2.1125                 1.3290
 Frc consts  --      1.3044                 1.7326                 1.1297
 IR Inten    --     25.3391                78.2075                 0.7254

                     58                     59                     60
                      A                      A                      A
 Frequencies --   1242.2610              1261.4885              1284.3369
 Red. masses --      2.0883                 2.5425                 1.9223
 Frc consts  --      1.8988                 2.3838                 1.8682
 IR Inten    --     66.7580                40.4317                21.8294

                     61                     62                     63
                      A                      A                      A
 Frequencies --   1299.0814              1311.7178              1317.0033
 Red. masses --      2.1458                 7.7856                 3.6714
 Frc consts  --      2.1336                 7.8927                 3.7520
 IR Inten    --     69.1665                40.9548               102.3598

                     64                     65                     66
                      A                      A                      A
 Frequencies --   1319.3878              1345.3570              1402.8393
 Red. masses --      7.1018                 4.2168                 3.2917
 Frc consts  --      7.2839                 4.4969                 3.8167
 IR Inten    --     21.0254               114.1593               512.7445

                     67                     68                     69
                      A                      A                      A
 Frequencies --   1429.8850              1436.4076              1454.1953
 Red. masses --      1.2912                 1.4417                 2.6358
 Frc consts  --      1.5554                 1.7526                 3.2840
 IR Inten    --     19.2031                36.1545               843.2913

                     70                     71                     72
                      A                      A                      A
 Frequencies --   1468.3487              1469.2297              1487.8274
 Red. masses --      1.4745                 1.2982                 2.5308
 Frc consts  --      1.8731                 1.6511                 3.3007
 IR Inten    --     92.9770                71.9378                63.3215

                     73                     74                     75
                      A                      A                      A
 Frequencies --   1497.6870              1503.6201              1516.7339
 Red. masses --      1.1885                 2.3199                 1.5152
 Frc consts  --      1.5707                 3.0902                 2.0537
 IR Inten    --     57.5527               136.6414                53.4193

                     76                     77                     78
                      A                      A                      A
 Frequencies --   1523.4376              1550.7839              1612.8494
 Red. masses --      1.6490                 1.5532                 5.6079
 Frc consts  --      2.2548                 2.2007                 8.5948
 IR Inten    --    137.0223                13.7450                15.0671

                     79                     80                     81
                      A                      A                      A
 Frequencies --   1620.5375              1641.3396              1650.5810
 Red. masses --      6.5460                 5.6302                 6.8109
 Frc consts  --     10.1285                 8.9366                10.9327
 IR Inten    --     98.5969               167.7549                87.7205

                     82                     83                     84
                      A                      A                      A
 Frequencies --   1722.5977              3061.9904              3118.0476
 Red. masses --      6.0041                 1.0392                 1.0990
 Frc consts  --     10.4970                 5.7406                 6.2955
 IR Inten    --   1000.5586                24.6733                18.7440

                     85                     86                     87
                      A                      A                      A
 Frequencies --   3155.0324              3166.0419              3172.5323
 Red. masses --      1.1017                 1.0577                 1.0599
 Frc consts  --      6.4615                 6.2468                 6.2853
 IR Inten    --     23.6483                31.3465                21.7416

                     88                     89                     90
                      A                      A                      A
 Frequencies --   3189.8486              3197.7461              3207.5808
 Red. masses --      1.0902                 1.0893                 1.0891
 Frc consts  --      6.5359                 6.5625                 6.6021
 IR Inten    --     46.9031                39.5792                19.4374

                     91                     92                     93
                      A                      A                      A
 Frequencies --   3231.3527              3238.3648              3250.9130
 Red. masses --      1.0941                 1.0889                 1.0967
 Frc consts  --      6.7309                 6.7283                 6.8286
 IR Inten    --     31.9187                 5.1210                19.2983

                     94                     95                     96
                      A                      A                      A
 Frequencies --   3266.6082              3274.3871              3570.0019
 Red. masses --      1.1132                 1.1121                 1.0760
 Frc consts  --      6.9989                 7.0251                 8.0800
 IR Inten    --      2.4502                18.2849               118.8337

 - Thermochemistry -
 -------------------
 Temperature   298.150 Kelvin.  Pressure   1.00000 Atm.
 Atom     1 has atomic number  6 and mass  12.00000

 Molecular mass:   266.11676 amu.
 Principal axes and moments of inertia in atomic units:
                           1         2         3
     Eigenvalues --  3766.215635261.141427711.28143
           X            0.99890  -0.04692  -0.00199
           Y            0.04695   0.99877   0.01576
           Z            0.00125  -0.01584   0.99987
 This molecule is an asymmetric top.
 Rotational symmetry number  1.
 Warning -- assumption of classical behavior for rotation
           may cause significant error
 Rotational temperatures (Kelvin)      0.02300     0.01646     0.01123
 Rotational constants (GHZ):           0.47919     0.34303     0.23404
 Zero-point vibrational energy     714123.1 (Joules/Mol)
                                  170.67952 (Kcal/Mol)
 Warning -- explicit consideration of  26 degrees of freedom as
           vibrations may cause significant error
 Vibrational temperatures:     74.32    86.39   110.88   143.16   167.60
          (Kelvin)            204.92   252.55   299.32   339.70   348.05
                              380.76   410.74   453.76   483.95   509.99
                              539.71   595.90   636.01   671.10   701.71
                              766.80   777.67   807.74   858.72   863.04
                              888.78   906.04   967.51  1015.19  1062.99
                             1108.64  1111.92  1139.13  1154.71  1177.84
                             1192.86  1213.24  1226.63  1292.21  1304.90
                             1382.40  1405.90  1421.13  1429.91  1441.28
                             1467.52  1530.49  1541.44  1551.62  1565.35
                             1594.51  1613.85  1630.81  1633.01  1679.39
                             1697.54  1728.18  1787.34  1815.00  1847.87
                             1869.09  1887.27  1894.87  1898.30  1935.67
                             2018.37  2057.29  2066.67  2092.26  2112.63
                             2113.89  2140.65  2154.84  2163.37  2182.24
                             2191.89  2231.23  2320.53  2331.59  2361.52
                             2374.82  2478.43  4405.52  4486.18  4539.39
                             4555.23  4564.57  4589.48  4600.84  4614.99
                             4649.20  4659.28  4677.34  4699.92  4711.11
                             5136.44

 Zero-point correction=                           0.271995 (Hartree/Particle)
 Thermal correction to Energy=                    0.287822
 Thermal correction to Enthalpy=                  0.288766
 Thermal correction to Gibbs Free Energy=         0.229124
 Sum of electronic and zero-point Energies=           -873.978935
 Sum of electronic and thermal Energies=              -873.963109
 Sum of electronic and thermal Enthalpies=            -873.962165
 Sum of electronic and thermal Free Energies=         -874.021806

                     E (Thermal)             CV                S
                      KCal/Mol        Cal/Mol-Kelvin    Cal/Mol-Kelvin
 Total                  180.611             63.779            125.526
 Electronic               0.000              0.000              0.000
 Translational            0.889              2.981             42.636
 Rotational               0.889              2.981             33.391
 Vibrational            178.833             57.817             49.500
 Vibration     1          0.596              1.977              4.753
 Vibration     2          0.597              1.973              4.456
 Vibration     3          0.599              1.964              3.964
 Vibration     4          0.604              1.949              3.464
 Vibration     5          0.608              1.936              3.158
 Vibration     6          0.616              1.911              2.771
 Vibration     7          0.627              1.873              2.375
 Vibration     8          0.641              1.828              2.061
 Vibration     9          0.655              1.786              1.832
 Vibration    10          0.658              1.776              1.789
 Vibration    11          0.671              1.738              1.631
 Vibration    12          0.683              1.701              1.501
 Vibration    13          0.703              1.644              1.334
 Vibration    14          0.717              1.603              1.229
 Vibration    15          0.730              1.566              1.146
 Vibration    16          0.746              1.523              1.059
 Vibration    17          0.778              1.439              0.912
 Vibration    18          0.802              1.378              0.820
 Vibration    19          0.824              1.325              0.748
 Vibration    20          0.844              1.277              0.690
 Vibration    21          0.888              1.177              0.581
 Vibration    22          0.896              1.160              0.564
 Vibration    23          0.917              1.115              0.521
 Vibration    24          0.955              1.039              0.455
 Vibration    25          0.958              1.032              0.450
 Vibration    26          0.978              0.994              0.420

 Optimization completed.
    -- Stationary point found.
 Normal termination of Gaussian 16 at Tue Mar  1 23:02:38 2022.

 ------------------------------------------
 #p b3lyp/6-31G(d) geom=allcheck guess=read
 ------------------------------------------

 Structure from the checkpoint file:  "175.n.pdb.xyz.mst.wat.chk"
 -------------
 175.n.pdb.xyz
 -------------
 Charge =  0 Multiplicity = 1

 SCF Done:  E(RB3LYP) =  -874.235250828     A.U. after   12 cycles
 Normal termination of Gaussian 16 at Tue Mar  1 23:06:04 2022.
 Gaussian 16:  ES64L-G16RevA.03 25-Dec-2016

 ----------------------------------------------------------------------
 #p b3lyp/6-31G(d) scrf=(iefpcm,read,solvent=water) geom=allcheck guess
 =read
 ----------------------------------------------------------------------

 Structure from the checkpoint file:  "175.n.pdb.xyz.mst.wat.chk"
 -------------
 175.n.pdb.xyz
 -------------
 Charge =  0 Multiplicity = 1

                         Standard orientation:
 ---------------------------------------------------------------------
 Center     Atomic      Atomic             Coordinates (Angstroms)
 Number     Number       Type             X           Y           Z
 ---------------------------------------------------------------------
      1          6           0        3.970771   -1.376083   -0.083965
      2          6           0        3.036840   -0.209905   -0.259636
      3          6           0        3.478021    0.975059   -0.854670
      4          6           0        2.602563    2.045546   -0.976713
      5          7           0        1.325117    1.994042   -0.579144
      6          6           0        0.883322    0.870312   -0.010827
      7          6           0        1.705431   -0.253576    0.190215
      8          7           0        1.252679   -1.382681    0.901283
      9          6           0        0.075416   -2.066218    0.782360
     10          8           0       -0.061975   -3.164393    1.328243
     11          6           0       -1.034905   -1.477791   -0.018779
     12          6           0       -1.931539   -2.381446   -0.593757
     13          6           0       -3.073964   -1.920516   -1.235889
     14          6           0       -3.293447   -0.546369   -1.240449
     15          7           0       -2.447983    0.342879   -0.706575
     16          6           0       -1.329517   -0.099174   -0.114600
     17          7           0       -0.465620    0.865049    0.440470
     18          6           0       -0.941872    2.145557    0.948580
     19          6           0       -1.817291    3.148214    0.240728
     20          6           0       -2.334596    2.389906    1.449987
     21          1           0        4.890187   -1.210356   -0.648388
     22          1           0        3.515670   -2.310348   -0.426466
     23          1           0        4.250615   -1.515609    0.966609
     24          1           0        4.498687    1.054278   -1.210884
     25          1           0        2.931378    2.983272   -1.415975
     26          1           0        1.950194   -1.897126    1.430563
     27          1           0       -1.722765   -3.440243   -0.499064
     28          1           0       -3.781578   -2.598877   -1.695421
     29          1           0       -4.187085   -0.131492   -1.700907
     30          1           0       -0.155303    2.578345    1.554366
     31          1           0       -1.558480    4.197620    0.346104
     32          1           0       -2.234669    2.862044   -0.715269
     33          1           0       -3.091019    1.639266    1.262209
     34          1           0       -2.430768    2.908270    2.398843
 ---------------------------------------------------------------------

 SCF Done:  E(RB3LYP) =  -874.248372306     A.U. after   11 cycles

 The electronic state is 1-A.
 Alpha  occ. eigenvalues --  -19.12886 -14.37972 -14.36756 -14.33849 -14.33602
 Alpha  occ. eigenvalues --  -10.30746 -10.27748 -10.26745 -10.24482 -10.23421
 Alpha  occ. eigenvalues --  -10.22479 -10.22476 -10.22066 -10.21473 -10.21382
 Alpha  occ. eigenvalues --  -10.19906 -10.19548 -10.19042 -10.18243 -10.17773
 Alpha  occ. eigenvalues --   -1.04907  -0.99787  -0.95924  -0.93880  -0.91386
 Alpha  occ. eigenvalues --   -0.84318  -0.82100  -0.81549  -0.78022  -0.74327
 Alpha  occ. eigenvalues --   -0.71911  -0.68213  -0.65539  -0.63855  -0.62154
 Alpha  occ. eigenvalues --   -0.59881  -0.59421  -0.58270  -0.54751  -0.53217
 Alpha  occ. eigenvalues --   -0.52306  -0.50804  -0.49309  -0.48841  -0.47708
 Alpha  occ. eigenvalues --   -0.47202  -0.45997  -0.44023  -0.42859  -0.42553
 Alpha  occ. eigenvalues --   -0.41466  -0.40731  -0.40462  -0.39795  -0.39711
 Alpha  occ. eigenvalues --   -0.39296  -0.37947  -0.37475  -0.36124  -0.34479
 Alpha  occ. eigenvalues --   -0.31876  -0.29813  -0.29744  -0.28869  -0.28177
 Alpha  occ. eigenvalues --   -0.27135  -0.26901  -0.26194  -0.24255  -0.21058
 Alpha virt. eigenvalues --   -0.05164  -0.02938  -0.02108  -0.00873   0.04552
 Alpha virt. eigenvalues --    0.09099   0.09986   0.10742   0.11607   0.12829
 Alpha virt. eigenvalues --    0.13573   0.14471   0.14855   0.15332   0.15593

 Mulliken charges:
               1
     1  C   -0.549694
     2  C    0.178711
     3  C   -0.216910
     4  C    0.029188
     5  N   -0.522297
     6  C    0.409566
     7  C    0.270836
     8  N   -0.730215
     9  C    0.545434
    10  O   -0.564192
    11  C    0.053128
    12  C   -0.140995
    13  C   -0.164810
    14  C    0.044054
    15  N   -0.506129
    16  C    0.435760
    17  N   -0.544130
    18  C    0.055056
    19  C   -0.318107
    20  C   -0.354021
    21  H    0.181788
    22  H    0.183281
    23  H    0.188214
    24  H    0.157970
    25  H    0.159926
    26  H    0.378584
    27  H    0.175610
    28  H    0.167644
    29  H    0.167510
    30  H    0.164220
    31  H    0.154089
    32  H    0.172004
    33  H    0.176393
    34  H    0.162536
 Sum of Mulliken charges =  -0.00000

 Dipole moment (field-independent basis, Debye):
    X=              3.4737    Y=             -0.6791    Z=             -1.3480  Tot=              3.7874
 Quadrupole moment (field-independent basis, Debye-Ang):
   XX=            -88.0965   YY=           -122.8715   ZZ=           -114.2370
   XY=              1.3018   XZ=              4.3104   YZ=              9.9491

 Normal termination of Gaussian 16 at Tue Mar  1 23:09:49 2022.
