 Gaussian 16, Revision A.03,

 ----------------------------------------------------------------------
 #p b3lyp/6-31G(d) opt=(MaxStep=10,MaxCycles=1000) freq scf=(MaxCycle=2
 000,NoVarAcc,NoIncFock) scrf=(iefpcm,read,solvent=water)
 ----------------------------------------------------------------------

 -------------
 176.n.pdb.xyz
 -------------
 Symbolic Z-matrix:
 Charge =  0 Multiplicity = 1

 SCF Done:  E(RB3LYP) =  -842.105750801     A.U. after   13 cycles
 SCF Done:  E(RB3LYP) =  -842.109480550     A.U. after   10 cycles
 SCF Done:  E(RB3LYP) =  -842.104053729     A.U. after   11 cycles
 SCF Done:  E(RB3LYP) =  -842.109844027     A.U. after   11 cycles
 SCF Done:  E(RB3LYP) =  -842.110867259     A.U. after   11 cycles
 SCF Done:  E(RB3LYP) =  -842.111105948     A.U. after   10 cycles
 SCF Done:  E(RB3LYP) =  -842.111078389     A.U. after   10 cycles
 SCF Done:  E(RB3LYP) =  -842.111101085     A.U. after   10 cycles
 SCF Done:  E(RB3LYP) =  -842.111141241     A.U. after   10 cycles
 SCF Done:  E(RB3LYP) =  -842.111115362     A.U. after   10 cycles
 SCF Done:  E(RB3LYP) =  -842.115574768     A.U. after    8 cycles
 SCF Done:  E(RB3LYP) =  -842.115553931     A.U. after    9 cycles
 SCF Done:  E(RB3LYP) =  -842.115552397     A.U. after    7 cycles
 SCF Done:  E(RB3LYP) =  -842.115574218     A.U. after    9 cycles
 SCF Done:  E(RB3LYP) =  -842.115551683     A.U. after    9 cycles
 SCF Done:  E(RB3LYP) =  -842.115574047     A.U. after    9 cycles
 SCF Done:  E(RB3LYP) =  -842.115551688     A.U. after    9 cycles
 Optimization completed on the basis of negligible forces.
    -- Stationary point found.
 Normal termination of Gaussian 16 at Wed Mar  2 03:09:29 2022.

 --------------------------------------------------------------------
 #P Geom=AllCheck Guess=TCheck SCRF=Check GenChk RB3LYP/6-31G(d) Freq
 --------------------------------------------------------------------

 Structure from the checkpoint file:  "176.n.pdb.xyz.mst.wat.chk"
 -------------
 176.n.pdb.xyz
 -------------
 Charge =  0 Multiplicity = 1

 SCF Done:  E(RB3LYP) =  -842.115551688     A.U. after    1 cycles

  Exact polarizability: 320.295  26.018 246.420  -9.793  45.484 212.783
 Approx polarizability: 348.943  27.619 277.008  -9.329  63.561 261.171

                      1                      2                      3
                      A                      A                      A
 Frequencies --     25.3487                37.0784                60.1900
 Red. masses --      5.6071                 4.6114                 3.6470
 Frc consts  --      0.0021                 0.0037                 0.0078
 IR Inten    --      1.4811                 1.8360                 0.0948

                      4                      5                      6
                      A                      A                      A
 Frequencies --     75.3027                83.7807                99.4330
 Red. masses --      4.0075                 4.6374                 2.6163
 Frc consts  --      0.0134                 0.0192                 0.0152
 IR Inten    --      0.7308                 1.9917                 0.3106

                      7                      8                      9
                      A                      A                      A
 Frequencies --    134.7902               162.3907               189.6981
 Red. masses --      2.9707                 4.6487                 3.4288
 Frc consts  --      0.0318                 0.0722                 0.0727
 IR Inten    --      3.0235                 6.3474                 1.8675

                     10                     11                     12
                      A                      A                      A
 Frequencies --    227.9793               243.6301               262.6524
 Red. masses --      6.0391                 3.2518                 3.3441
 Frc consts  --      0.1849                 0.1137                 0.1359
 IR Inten    --      2.6203                 3.2380                12.0996

                     13                     14                     15
                      A                      A                      A
 Frequencies --    275.8160               311.3881               337.9385
 Red. masses --      1.7441                 2.1844                 4.6267
 Frc consts  --      0.0782                 0.1248                 0.3113
 IR Inten    --     36.9954                36.0083                15.1432

                     16                     17                     18
                      A                      A                      A
 Frequencies --    377.2225               408.1957               431.9336
 Red. masses --      3.9472                 2.5528                 3.4579
 Frc consts  --      0.3309                 0.2506                 0.3801
 IR Inten    --      7.2777                 1.3667                 1.9749

                     19                     20                     21
                      A                      A                      A
 Frequencies --    437.7706               460.9045               513.4371
 Red. masses --      3.3086                 3.7865                 3.6703
 Frc consts  --      0.3736                 0.4739                 0.5701
 IR Inten    --      2.8647                 0.3566                 0.0269

                     22                     23                     24
                      A                      A                      A
 Frequencies --    522.0549               550.3720               570.0406
 Red. masses --      5.4720                 3.4861                 4.1982
 Frc consts  --      0.8787                 0.6222                 0.8038
 IR Inten    --      9.6156                 7.4846                 1.7162

                     25                     26                     27
                      A                      A                      A
 Frequencies --    592.7232               613.1281               630.5736
 Red. masses --      5.4617                 2.4635                 6.9286
 Frc consts  --      1.1305                 0.5456                 1.6232
 IR Inten    --      7.6535                 8.9825                13.9445

                     28                     29                     30
                      A                      A                      A
 Frequencies --    684.2081               693.0573               714.4512
 Red. masses --      4.9329                 3.4240                 3.6160
 Frc consts  --      1.3606                 0.9690                 1.0875
 IR Inten    --      9.4405                15.7320                59.4475

                     31                     32                     33
                      A                      A                      A
 Frequencies --    765.8600               771.5065               774.2385
 Red. masses --      4.5995                 2.1882                 1.4538
 Frc consts  --      1.5895                 0.7674                 0.5134
 IR Inten    --      1.2735                62.7987                35.9786

                     34                     35                     36
                      A                      A                      A
 Frequencies --    789.4117               796.3446               799.0398
 Red. masses --      5.4443                 1.7943                 3.5823
 Frc consts  --      1.9989                 0.6704                 1.3476
 IR Inten    --     22.8307                45.0297                 4.7148

                     37                     38                     39
                      A                      A                      A
 Frequencies --    877.9902               878.2995               890.4467
 Red. masses --      1.5798                 2.1906                 6.8314
 Frc consts  --      0.7175                 0.9956                 3.1914
 IR Inten    --      6.6401                26.0545                40.7449

                     40                     41                     42
                      A                      A                      A
 Frequencies --    910.0460               915.5523               927.6681
 Red. masses --      1.8288                 3.6882                 1.5306
 Frc consts  --      0.8924                 1.8215                 0.7761
 IR Inten    --     10.6736               105.2283                 7.6920

                     43                     44                     45
                      A                      A                      A
 Frequencies --    940.4575               964.1230               972.4401
 Red. masses --      1.3719                 1.3428                 1.6617
 Frc consts  --      0.7149                 0.7354                 0.9258
 IR Inten    --     43.2117                 1.5953                72.1058

                     46                     47                     48
                      A                      A                      A
 Frequencies --    980.0644              1001.7201              1006.7232
 Red. masses --      1.3671                 1.2665                 1.4631
 Frc consts  --      0.7737                 0.7487                 0.8737
 IR Inten    --      6.1934                 0.4146                36.0466

                     49                     50                     51
                      A                      A                      A
 Frequencies --   1010.7743              1012.9369              1036.4801
 Red. masses --      6.1452                 1.5215                 2.0869
 Frc consts  --      3.6991                 0.9198                 1.3209
 IR Inten    --     24.3953                37.6108                14.1977

                     52                     53                     54
                      A                      A                      A
 Frequencies --   1046.4031              1074.6356              1079.9605
 Red. masses --      1.1244                 2.1386                 2.5083
 Frc consts  --      0.7254                 1.4551                 1.7236
 IR Inten    --     16.2368                 5.5290                22.5478

                     55                     56                     57
                      A                      A                      A
 Frequencies --   1118.2797              1143.2032              1157.3234
 Red. masses --      2.3451                 1.6465                 1.9296
 Frc consts  --      1.7278                 1.2678                 1.5227
 IR Inten    --      3.5402                 7.7296                14.3559

                     58                     59                     60
                      A                      A                      A
 Frequencies --   1175.6225              1188.1000              1192.5247
 Red. masses --      1.2510                 1.0942                 1.6411
 Frc consts  --      1.0187                 0.9101                 1.3751
 IR Inten    --      6.9620                 1.8546                 8.6722

                     61                     62                     63
                      A                      A                      A
 Frequencies --   1201.1209              1223.4517              1268.0457
 Red. masses --      1.9346                 1.4672                 3.3099
 Frc consts  --      1.6444                 1.2939                 3.1357
 IR Inten    --      1.1994                 1.6021                46.0096

                     64                     65                     66
                      A                      A                      A
 Frequencies --   1278.8050              1308.0874              1310.6705
 Red. masses --      1.3788                 1.8474                 1.5734
 Frc consts  --      1.3285                 1.8625                 1.5925
 IR Inten    --      5.3805                 8.7291                11.5994

                     67                     68                     69
                      A                      A                      A
 Frequencies --   1322.0439              1334.9096              1351.7844
 Red. masses --      1.4909                 1.8449                 1.7914
 Frc consts  --      1.5352                 1.9370                 1.9286
 IR Inten    --      5.3377                 7.7577                 2.8461

                     70                     71                     72
                      A                      A                      A
 Frequencies --   1388.3106              1397.5425              1403.4663
 Red. masses --      4.0019                 1.3364                 5.7952
 Frc consts  --      4.5445                 1.5379                 6.7255
 IR Inten    --    126.9123                15.0387                16.3651

                     73                     74                     75
                      A                      A                      A
 Frequencies --   1418.2152              1470.0639              1472.8621
 Red. masses --      1.6022                 1.2154                 2.5746
 Frc consts  --      1.8987                 1.5476                 3.2907
 IR Inten    --     37.2136                 7.3123                13.4205

                     76                     77                     78
                      A                      A                      A
 Frequencies --   1487.4235              1505.8729              1519.7256
 Red. masses --      2.2116                 1.1156                 2.5892
 Frc consts  --      2.8829                 1.4906                 3.5233
 IR Inten    --      7.3044                10.2484                11.9953

                     79                     80                     81
                      A                      A                      A
 Frequencies --   1536.9272              1563.1178              1627.5335
 Red. masses --      3.0248                 6.7155                 5.8945
 Frc consts  --      4.2097                 9.6675                 9.1993
 IR Inten    --     28.1343                40.0379                 2.0914

                     82                     83                     84
                      A                      A                      A
 Frequencies --   1649.7743              1654.6771              1661.7881
 Red. masses --      6.0339                 2.6011                 1.4751
 Frc consts  --      9.6761                 4.1961                 2.4001
 IR Inten    --     11.9638                 7.7466                59.1829

                     85                     86                     87
                      A                      A                      A
 Frequencies --   1664.6899              1727.1026              3049.9951
 Red. masses --      6.9846                 4.5551                 1.0622
 Frc consts  --     11.4040                 8.0054                 5.8216
 IR Inten    --     61.7832                11.6452                19.5873

                     88                     89                     90
                      A                      A                      A
 Frequencies --   3064.1433              3092.6789              3159.8401
 Red. masses --      1.0815                 1.1011                 1.0609
 Frc consts  --      5.9825                 6.2049                 6.2409
 IR Inten    --     65.0954                56.1757                36.3545

                     91                     92                     93
                      A                      A                      A
 Frequencies --   3170.3890              3202.5619              3212.7287
 Red. masses --      1.0887                 1.0870                 1.0881
 Frc consts  --      6.4475                 6.5685                 6.6173
 IR Inten    --     12.6395                 6.9759                 4.3696

                     94                     95                     96
                      A                      A                      A
 Frequencies --   3213.3303              3223.9818              3227.5893
 Red. masses --      1.0890                 1.0910                 1.0959
 Frc consts  --      6.6249                 6.6811                 6.7262
 IR Inten    --     27.2184                22.0354                32.3884

                     97                     98                     99
                      A                      A                      A
 Frequencies --   3236.9505              3242.4618              3242.6164
 Red. masses --      1.0949                 1.0985                 1.1079
 Frc consts  --      6.7595                 6.8048                 6.8632
 IR Inten    --     21.7163                 5.3138                42.3181

                    100                    101                    102
                      A                      A                      A
 Frequencies --   3246.6554              3467.3768              3545.1355
 Red. masses --      1.0950                 1.0516                 1.0921
 Frc consts  --      6.8005                 7.4493                 8.0870
 IR Inten    --     11.8294                 2.3456                 2.9586

 - Thermochemistry -
 -------------------
 Temperature   298.150 Kelvin.  Pressure   1.00000 Atm.
 Atom     1 has atomic number  7 and mass  14.00307

 Molecular mass:   264.12626 amu.
 Principal axes and moments of inertia in atomic units:
                           1         2         3
     Eigenvalues --  3504.555607619.722058654.59318
           X            0.99989  -0.01341  -0.00601
           Y            0.01343   0.99990   0.00405
           Z            0.00595  -0.00413   0.99997
 This molecule is an asymmetric top.
 Rotational symmetry number  1.
 Warning -- assumption of classical behavior for rotation
           may cause significant error
 Rotational temperatures (Kelvin)      0.02471     0.01137     0.01001
 Rotational constants (GHZ):           0.51497     0.23685     0.20853
 Zero-point vibrational energy     773218.9 (Joules/Mol)
                                  184.80376 (Kcal/Mol)
 Warning -- explicit consideration of  26 degrees of freedom as
           vibrations may cause significant error
 Vibrational temperatures:     36.47    53.35    86.60   108.34   120.54
          (Kelvin)            143.06   193.93   233.64   272.93   328.01
                              350.53   377.90   396.84   448.02   486.22
                              542.74   587.30   621.46   629.85   663.14
                              738.72   751.12   791.86   820.16   852.80
                              882.15   907.25   984.42   997.15  1027.94
                             1101.90  1110.03  1113.96  1135.79  1145.76
                             1149.64  1263.23  1263.68  1281.15  1309.35
                             1317.28  1334.71  1353.11  1387.16  1399.12
                             1410.09  1441.25  1448.45  1454.28  1457.39
                             1491.26  1505.54  1546.16  1553.82  1608.96
                             1644.81  1665.13  1691.46  1709.41  1715.78
                             1728.15  1760.27  1824.43  1839.92  1882.05
                             1885.76  1902.13  1920.64  1944.92  1997.47
                             2010.75  2019.28  2040.50  2115.09  2119.12
                             2140.07  2166.62  2186.55  2211.30  2248.98
                             2341.66  2373.66  2380.71  2390.94  2395.12
                             2484.92  4388.26  4408.62  4449.68  4546.31
                             4561.48  4607.77  4622.40  4623.27  4638.59
                             4643.78  4657.25  4665.18  4665.40  4671.21
                             4988.78  5100.66

 Zero-point correction=                           0.294504 (Hartree/Particle)
 Thermal correction to Energy=                    0.311361
 Thermal correction to Enthalpy=                  0.312306
 Thermal correction to Gibbs Free Energy=         0.248767
 Sum of electronic and zero-point Energies=           -841.821048
 Sum of electronic and thermal Energies=              -841.804190
 Sum of electronic and thermal Enthalpies=            -841.803246
 Sum of electronic and thermal Free Energies=         -841.866785

                     E (Thermal)             CV                S
                      KCal/Mol        Cal/Mol-Kelvin    Cal/Mol-Kelvin
 Total                  195.382             66.468            133.728
 Electronic               0.000              0.000              0.000
 Translational            0.889              2.981             42.613
 Rotational               0.889              2.981             33.802
 Vibrational            193.605             60.506             57.314
 Vibration     1          0.593              1.985              6.164
 Vibration     2          0.594              1.982              5.409
 Vibration     3          0.597              1.973              4.451
 Vibration     4          0.599              1.965              4.010
 Vibration     5          0.601              1.960              3.800
 Vibration     6          0.604              1.950              3.465
 Vibration     7          0.613              1.919              2.877
 Vibration     8          0.622              1.889              2.522
 Vibration     9          0.633              1.854              2.231
 Vibration    10          0.651              1.798              1.895
 Vibration    11          0.659              1.773              1.776
 Vibration    12          0.670              1.741              1.644
 Vibration    13          0.677              1.718              1.559
 Vibration    14          0.700              1.652              1.355
 Vibration    15          0.718              1.600              1.222
 Vibration    16          0.748              1.519              1.050
 Vibration    17          0.773              1.452              0.933
 Vibration    18          0.793              1.401              0.852
 Vibration    19          0.798              1.388              0.834
 Vibration    20          0.819              1.337              0.763
 Vibration    21          0.869              1.220              0.625
 Vibration    22          0.877              1.201              0.605
 Vibration    23          0.906              1.139              0.543
 Vibration    24          0.926              1.096              0.504
 Vibration    25          0.950              1.047              0.462
 Vibration    26          0.972              1.004              0.428

 Optimization completed.
    -- Stationary point found.
 Normal termination of Gaussian 16 at Wed Mar  2 03:57:13 2022.

 ------------------------------------------
 #p b3lyp/6-31G(d) geom=allcheck guess=read
 ------------------------------------------

 Structure from the checkpoint file:  "176.n.pdb.xyz.mst.wat.chk"
 -------------
 176.n.pdb.xyz
 -------------
 Charge =  0 Multiplicity = 1

 SCF Done:  E(RB3LYP) =  -842.101133309     A.U. after   12 cycles
 Normal termination of Gaussian 16 at Wed Mar  2 04:00:47 2022.
 Gaussian 16:  ES64L-G16RevA.03 25-Dec-2016

 ----------------------------------------------------------------------
 #p b3lyp/6-31G(d) scrf=(iefpcm,read,solvent=water) geom=allcheck guess
 =read
 ----------------------------------------------------------------------

 Structure from the checkpoint file:  "176.n.pdb.xyz.mst.wat.chk"
 -------------
 176.n.pdb.xyz
 -------------
 Charge =  0 Multiplicity = 1

                         Standard orientation:
 ---------------------------------------------------------------------
 Center     Atomic      Atomic             Coordinates (Angstroms)
 Number     Number       Type             X           Y           Z
 ---------------------------------------------------------------------
      1          7           0        3.354504   -1.031983   -1.364665
      2          6           0        1.969823   -0.869571   -0.894060
      3          6           0        1.698365   -1.878435    0.255363
      4          6           0        2.599350   -1.747205    1.450116
      5          6           0        3.358855   -2.729387    1.938593
      6          6           0        1.712752    0.572085   -0.459250
      7          6           0        0.406499    1.105940   -0.360689
      8          6           0        0.221201    2.418879    0.100421
      9          6           0        1.306300    3.219907    0.449803
     10          6           0        2.596019    2.703628    0.343137
     11          6           0        2.786914    1.395584   -0.103441
     12          6           0       -0.816647    0.347414   -0.714821
     13          7           0       -0.947405   -0.256059   -1.872988
     14          8           0       -2.231492   -0.849223   -1.902578
     15          6           0       -2.853181   -0.569422   -0.729035
     16          6           0       -2.009967    0.194500    0.082631
     17          6           0       -2.435490    0.587698    1.360838
     18          6           0       -3.706490    0.201788    1.764814
     19          6           0       -4.541159   -0.563204    0.921281
     20          6           0       -4.132585   -0.968820   -0.344854
     21          1           0        3.472532   -0.486527   -2.218895
     22          1           0        3.475520   -2.004496   -1.648216
     23          1           0        1.242233   -1.107480   -1.677237
     24          1           0        1.783623   -2.891652   -0.154769
     25          1           0        0.654223   -1.753943    0.569334
     26          1           0        2.605998   -0.777337    1.945216
     27          1           0        3.382825   -3.713296    1.475975
     28          1           0        3.980024   -2.590667    2.818475
     29          1           0       -0.785234    2.818417    0.163439
     30          1           0        1.142088    4.235263    0.794150
     31          1           0        3.453811    3.313886    0.606912
     32          1           0        3.785695    0.985288   -0.187489
     33          1           0       -1.793027    1.171055    2.009807
     34          1           0       -4.068203    0.489025    2.745972
     35          1           0       -5.528132   -0.845548    1.271511
     36          1           0       -4.765083   -1.560189   -0.995074
 ---------------------------------------------------------------------

 SCF Done:  E(RB3LYP) =  -842.114052925     A.U. after   11 cycles

 The electronic state is 1-A.
 Alpha  occ. eigenvalues --  -19.23611 -14.39468 -14.30713 -10.25877 -10.24653
 Alpha  occ. eigenvalues --  -10.21552 -10.21297 -10.20940 -10.20862 -10.20694
 Alpha  occ. eigenvalues --  -10.20635 -10.20369 -10.19927 -10.19854 -10.19463
 Alpha  occ. eigenvalues --  -10.19339 -10.18786 -10.18699 -10.18572 -10.17494
 Alpha  occ. eigenvalues --   -1.13854  -0.89998  -0.88317  -0.87046  -0.85019
 Alpha  occ. eigenvalues --   -0.78601  -0.77476  -0.76334  -0.75493  -0.75086
 Alpha  occ. eigenvalues --   -0.70428  -0.65047  -0.63653  -0.63181  -0.61409
 Alpha  occ. eigenvalues --   -0.58865  -0.57295  -0.54988  -0.52613  -0.52090
 Alpha  occ. eigenvalues --   -0.49336  -0.48603  -0.47434  -0.47012  -0.46798
 Alpha  occ. eigenvalues --   -0.46021  -0.45270  -0.44808  -0.43791  -0.42350
 Alpha  occ. eigenvalues --   -0.41077  -0.40757  -0.39745  -0.38148  -0.37862
 Alpha  occ. eigenvalues --   -0.37321  -0.36657  -0.36462  -0.35817  -0.34735
 Alpha  occ. eigenvalues --   -0.34224  -0.33296  -0.31964  -0.31828  -0.26261
 Alpha  occ. eigenvalues --   -0.26050  -0.25703  -0.24935  -0.24322  -0.23059
 Alpha virt. eigenvalues --   -0.05358  -0.01691  -0.00833   0.00009   0.02333
 Alpha virt. eigenvalues --    0.04587   0.08544   0.09892   0.09945   0.10994
 Alpha virt. eigenvalues --    0.13033   0.13367   0.14011   0.15130   0.15383

 Mulliken charges:
               1
     1  N   -0.780607
     2  C   -0.039654
     3  C   -0.329648
     4  C   -0.034616
     5  C   -0.381016
     6  C    0.123532
     7  C    0.045810
     8  C   -0.182062
     9  C   -0.153856
    10  C   -0.134032
    11  C   -0.200768
    12  C    0.189030
    13  N   -0.262376
    14  O   -0.443077
    15  C    0.371633
    16  C    0.039380
    17  C   -0.199220
    18  C   -0.156842
    19  C   -0.150702
    20  C   -0.173232
    21  H    0.334979
    22  H    0.333953
    23  H    0.151541
    24  H    0.151650
    25  H    0.155507
    26  H    0.138810
    27  H    0.145452
    28  H    0.148461
    29  H    0.159653
    30  H    0.155201
    31  H    0.153321
    32  H    0.155000
    33  H    0.168032
    34  H    0.160906
    35  H    0.166109
    36  H    0.173751
 Sum of Mulliken charges =  -0.00000

 Dipole moment (field-independent basis, Debye):
    X=             -1.8301    Y=              0.8391    Z=              2.1027  Tot=              2.9111
 Quadrupole moment (field-independent basis, Debye-Ang):
   XX=           -102.7653   YY=           -106.5792   ZZ=           -116.5595
   XY=              2.0075   XZ=            -10.9559   YZ=              6.0947

 Normal termination of Gaussian 16 at Wed Mar  2 04:04:42 2022.
