 Gaussian 16, Revision A.03,

 ----------------------------------------------------------------------
 #p b3lyp/6-31G(d) opt=(MaxStep=10,MaxCycles=1000) freq scf=(MaxCycle=2
 000,NoVarAcc,NoIncFock) scrf=(iefpcm,read,solvent=water)
 ----------------------------------------------------------------------

 -------------
 177.n.pdb.xyz
 -------------
 Symbolic Z-matrix:
 Charge =  0 Multiplicity = 1

 SCF Done:  E(RB3LYP) =  -791.618950408     A.U. after   12 cycles
 SCF Done:  E(RB3LYP) =  -791.622134685     A.U. after    9 cycles
 SCF Done:  E(RB3LYP) =  -791.620094698     A.U. after   10 cycles
 SCF Done:  E(RB3LYP) =  -791.623259681     A.U. after    9 cycles
 SCF Done:  E(RB3LYP) =  -791.623365488     A.U. after    9 cycles
 SCF Done:  E(RB3LYP) =  -791.623363128     A.U. after    8 cycles
 SCF Done:  E(RB3LYP) =  -791.623353903     A.U. after    8 cycles
 SCF Done:  E(RB3LYP) =  -791.623379072     A.U. after    8 cycles
 SCF Done:  E(RB3LYP) =  -791.623368775     A.U. after    9 cycles
 SCF Done:  E(RB3LYP) =  -791.623373282     A.U. after    9 cycles
 SCF Done:  E(RB3LYP) =  -791.622781693     A.U. after    9 cycles
 SCF Done:  E(RB3LYP) =  -791.623212519     A.U. after    9 cycles
 SCF Done:  E(RB3LYP) =  -791.623377585     A.U. after    6 cycles
 SCF Done:  E(RB3LYP) =  -791.622995068     A.U. after    9 cycles
 SCF Done:  E(RB3LYP) =  -791.623261089     A.U. after    9 cycles
 SCF Done:  E(RB3LYP) =  -791.623339503     A.U. after    9 cycles
 SCF Done:  E(RB3LYP) =  -791.623376036     A.U. after    9 cycles
 Optimization completed.
    -- Stationary point found.
 Normal termination of Gaussian 16 at Wed Mar  2 05:43:09 2022.

 --------------------------------------------------------------------
 #P Geom=AllCheck Guess=TCheck SCRF=Check GenChk RB3LYP/6-31G(d) Freq
 --------------------------------------------------------------------

 Structure from the checkpoint file:  "177.n.pdb.xyz.mst.wat.chk"
 -------------
 177.n.pdb.xyz
 -------------
 Charge =  0 Multiplicity = 1

 SCF Done:  E(RB3LYP) =  -791.623376036     A.U. after    1 cycles

  Exact polarizability: 295.490   1.298 242.925   1.064  30.396 198.551
 Approx polarizability: 304.820   3.687 261.552   1.766  38.889 218.428

 ******    1 imaginary frequencies (negative Signs) ******

                      1                      2                      3
                      A                      A                      A
 Frequencies --     -9.7264                76.0076                97.2939
 Red. masses --      3.4744                 3.2491                 4.4600
 Frc consts  --      0.0002                 0.0111                 0.0249
 IR Inten    --      0.1173                 0.5212                 0.4237

                      4                      5                      6
                      A                      A                      A
 Frequencies --    123.1041               147.3305               171.6101
 Red. masses --      2.2149                 2.5517                 2.6005
 Frc consts  --      0.0198                 0.0326                 0.0451
 IR Inten    --      0.7641                 1.0614                 0.6233

                      7                      8                      9
                      A                      A                      A
 Frequencies --    198.7071               226.3998               238.4215
 Red. masses --      2.6060                 1.2973                 2.7641
 Frc consts  --      0.0606                 0.0392                 0.0926
 IR Inten    --      5.2648                 0.9803                 2.1706

                     10                     11                     12
                      A                      A                      A
 Frequencies --    263.2247               288.1843               297.6618
 Red. masses --      3.0133                 2.7795                 3.3424
 Frc consts  --      0.1230                 0.1360                 0.1745
 IR Inten    --      2.5777                 0.4687                 2.7000

                     13                     14                     15
                      A                      A                      A
 Frequencies --    332.8800               343.3997               361.9641
 Red. masses --      3.1957                 2.6576                 2.6047
 Frc consts  --      0.2086                 0.1846                 0.2011
 IR Inten    --      2.9836                 3.8120                 9.1848

                     16                     17                     18
                      A                      A                      A
 Frequencies --    371.3115               395.1345               398.0903
 Red. masses --      3.2561                 1.4443                 1.6394
 Frc consts  --      0.2645                 0.1329                 0.1531
 IR Inten    --      6.3699                98.7926                89.3759

                     19                     20                     21
                      A                      A                      A
 Frequencies --    427.7466               441.1027               469.5495
 Red. masses --      3.0691                 3.6471                 3.2359
 Frc consts  --      0.3309                 0.4181                 0.4203
 IR Inten    --      3.7903                 4.6677                 3.6595

                     22                     23                     24
                      A                      A                      A
 Frequencies --    486.6566               508.4917               520.6189
 Red. masses --      3.6307                 3.6154                 2.8487
 Frc consts  --      0.5066                 0.5508                 0.4549
 IR Inten    --      4.0413                 0.7243                 1.1025

                     25                     26                     27
                      A                      A                      A
 Frequencies --    556.6242               564.9644               640.9505
 Red. masses --      2.2973                 3.5051                 4.0041
 Frc consts  --      0.4194                 0.6592                 0.9692
 IR Inten    --      0.6508                 3.7269                 0.9776

                     28                     29                     30
                      A                      A                      A
 Frequencies --    663.8591               695.3022               708.8106
 Red. masses --      3.4264                 5.2784                 2.7233
 Frc consts  --      0.8897                 1.5035                 0.8061
 IR Inten    --     10.3793                 0.4363                 8.3048

                     31                     32                     33
                      A                      A                      A
 Frequencies --    727.2525               746.6362               771.6012
 Red. masses --      3.7902                 4.2696                 2.3330
 Frc consts  --      1.1811                 1.4024                 0.8184
 IR Inten    --     15.9563                10.8530                 4.3105

                     34                     35                     36
                      A                      A                      A
 Frequencies --    775.2632               814.7372               822.1692
 Red. masses --      1.6294                 1.6177                 2.1672
 Frc consts  --      0.5770                 0.6327                 0.8631
 IR Inten    --      6.4601                20.2562                16.5748

                     37                     38                     39
                      A                      A                      A
 Frequencies --    859.4325               866.8987               874.6984
 Red. masses --      2.8460                 1.6513                 1.7837
 Frc consts  --      1.2385                 0.7312                 0.8041
 IR Inten    --      4.0586                14.3083                 8.6841

                     40                     41                     42
                      A                      A                      A
 Frequencies --    906.0093               928.7611               947.2477
 Red. masses --      2.4931                 1.7591                 1.5961
 Frc consts  --      1.2057                 0.8940                 0.8438
 IR Inten    --     17.0625                10.6005                 7.8121

                     43                     44                     45
                      A                      A                      A
 Frequencies --    960.9590               970.6050               989.1259
 Red. masses --      1.9397                 2.2825                 2.4292
 Frc consts  --      1.0554                 1.2669                 1.4003
 IR Inten    --     11.0619                10.7688                 3.3684

                     46                     47                     48
                      A                      A                      A
 Frequencies --   1001.0751              1015.0248              1037.0836
 Red. masses --      2.1020                 2.1376                 1.9689
 Frc consts  --      1.2411                 1.2976                 1.2477
 IR Inten    --     24.1133                 9.0864                12.1385

                     49                     50                     51
                      A                      A                      A
 Frequencies --   1063.1744              1079.8252              1090.3233
 Red. masses --      2.2214                 2.0719                 2.3648
 Frc consts  --      1.4794                 1.4234                 1.6564
 IR Inten    --     23.0765                 1.8552                16.5722

                     52                     53                     54
                      A                      A                      A
 Frequencies --   1100.2591              1105.7254              1112.1612
 Red. masses --      1.9027                 1.9221                 3.3235
 Frc consts  --      1.3571                 1.3846                 2.4220
 IR Inten    --      2.9609                25.3295                 1.4939

                     55                     56                     57
                      A                      A                      A
 Frequencies --   1137.2080              1154.2680              1161.8379
 Red. masses --      2.4648                 1.4886                 1.5708
 Frc consts  --      1.8781                 1.1685                 1.2493
 IR Inten    --     10.8854                18.2291                18.4350

                     58                     59                     60
                      A                      A                      A
 Frequencies --   1181.9966              1186.2652              1196.4314
 Red. masses --      1.5066                 1.7450                 1.6426
 Frc consts  --      1.2401                 1.4468                 1.3853
 IR Inten    --     10.0583                37.7405                25.9987

                     61                     62                     63
                      A                      A                      A
 Frequencies --   1210.0784              1218.5944              1221.2092
 Red. masses --      1.5504                 2.0399                 1.5600
 Frc consts  --      1.3376                 1.7847                 1.3707
 IR Inten    --     21.6327                24.1875               170.2866

                     64                     65                     66
                      A                      A                      A
 Frequencies --   1240.4854              1248.9114              1261.2132
 Red. masses --      1.4644                 1.3665                 1.4898
 Frc consts  --      1.3276                 1.2558                 1.3963
 IR Inten    --     10.4477                20.6204                13.6094

                     67                     68                     69
                      A                      A                      A
 Frequencies --   1264.3448              1286.3805              1299.4489
 Red. masses --      1.5376                 1.2734                 1.5836
 Frc consts  --      1.4482                 1.2415                 1.5755
 IR Inten    --      4.1709                 0.1295                29.5556

                     70                     71                     72
                      A                      A                      A
 Frequencies --   1307.6443              1317.5107              1328.8905
 Red. masses --      2.0468                 1.6235                 1.4937
 Frc consts  --      2.0621                 1.6604                 1.5541
 IR Inten    --     22.0583                46.7977                41.3817

                     73                     74                     75
                      A                      A                      A
 Frequencies --   1336.7261              1347.8888              1357.4745
 Red. masses --      1.9200                 1.5063                 2.2711
 Frc consts  --      2.0214                 1.6124                 2.4657
 IR Inten    --     89.1241                 0.8449                49.1121

                     76                     77                     78
                      A                      A                      A
 Frequencies --   1372.8775              1373.4149              1378.8801
 Red. masses --      1.7024                 1.3722                 1.5536
 Frc consts  --      1.8905                 1.5250                 1.7404
 IR Inten    --     21.9595                 1.1783                17.2202

                     79                     80                     81
                      A                      A                      A
 Frequencies --   1388.8447              1397.1514              1404.1763
 Red. masses --      1.3520                 1.3838                 1.4477
 Frc consts  --      1.5365                 1.5916                 1.6818
 IR Inten    --      1.5897                 1.7703                 4.4692

                     82                     83                     84
                      A                      A                      A
 Frequencies --   1410.4169              1434.2227              1480.8115
 Red. masses --      1.4805                 1.3539                 1.2481
 Frc consts  --      1.7352                 1.6409                 1.6125
 IR Inten    --      9.7039                60.8316                 4.2855

                     85                     86                     87
                      A                      A                      A
 Frequencies --   1490.4997              1495.6657              1504.0299
 Red. masses --      1.2149                 2.0718                 1.0829
 Frc consts  --      1.5903                 2.7307                 1.4433
 IR Inten    --      0.1140                20.5817                 0.3822

                     88                     89                     90
                      A                      A                      A
 Frequencies --   1513.1583              1513.3711              1514.6340
 Red. masses --      1.0727                 1.0910                 1.0714
 Frc consts  --      1.4471                 1.4721                 1.4482
 IR Inten    --      7.2440                 8.7177                15.1213

                     91                     92                     93
                      A                      A                      A
 Frequencies --   1518.2608              1526.7807              1535.8032
 Red. masses --      1.1438                 1.1846                 1.0562
 Frc consts  --      1.5535                 1.6270                 1.4677
 IR Inten    --      6.8431                20.4756                 9.0514

                     94                     95                     96
                      A                      A                      A
 Frequencies --   1538.8493              1562.3639              1633.0620
 Red. masses --      2.1752                 1.0868                 6.2932
 Frc consts  --      3.0349                 1.5630                 9.8884
 IR Inten    --    109.9928                 3.8917                93.2231

                     97                     98                     99
                      A                      A                      A
 Frequencies --   1669.1715              2961.6377              2966.5466
 Red. masses --      6.0168                 1.0610                 1.0722
 Frc consts  --      9.8769                 5.4832                 5.5593
 IR Inten    --    108.7398                89.6457               235.8934

                    100                    101                    102
                      A                      A                      A
 Frequencies --   3015.2899              3041.5203              3046.3410
 Red. masses --      1.0829                 1.0659                 1.0629
 Frc consts  --      5.8010                 5.8098                 5.8116
 IR Inten    --     49.7720                38.5495                23.4673

                    103                    104                    105
                      A                      A                      A
 Frequencies --   3050.9249              3051.2854              3056.6265
 Red. masses --      1.0810                 1.0695                 1.0638
 Frc consts  --      5.9283                 5.8666                 5.8562
 IR Inten    --     74.0185                59.1317                65.7037

                    106                    107                    108
                      A                      A                      A
 Frequencies --   3065.4129              3068.2933              3072.1007
 Red. masses --      1.0718                 1.0747                 1.0693
 Frc consts  --      5.9338                 5.9611                 5.9461
 IR Inten    --     37.6618               231.9926                33.6850

                    109                    110                    111
                      A                      A                      A
 Frequencies --   3080.3178              3080.8519              3083.1473
 Red. masses --      1.0983                 1.0766                 1.0973
 Frc consts  --      6.1397                 6.0206                 6.1455
 IR Inten    --     39.2504               104.0034                24.0475

                    112                    113                    114
                      A                      A                      A
 Frequencies --   3095.3150              3103.1798              3108.1857
 Red. masses --      1.1031                 1.0938                 1.1040
 Frc consts  --      6.2267                 6.2061                 6.2842
 IR Inten    --     86.1855                72.8324                46.4314

                    115                    116                    117
                      A                      A                      A
 Frequencies --   3115.1024              3131.0238              3181.3292
 Red. masses --      1.0988                 1.1017                 1.0876
 Frc consts  --      6.2824                 6.3635                 6.4854
 IR Inten    --    159.4981                60.2957                33.1583

                    118                    119                    120
                      A                      A                      A
 Frequencies --   3203.7820              3229.1297              3722.4845
 Red. masses --      1.0943                 1.0886                 1.0665
 Frc consts  --      6.6179                 6.6877                 8.7068
 IR Inten    --     37.6777                21.0311               188.2539

 - Thermochemistry -
 -------------------
 Temperature   298.150 Kelvin.  Pressure   1.00000 Atm.
 Atom     1 has atomic number  6 and mass  12.00000

 Molecular mass:   257.17796 amu.
 Principal axes and moments of inertia in atomic units:
                           1         2         3
     Eigenvalues --  2984.951135758.876847266.00856
           X            1.00000  -0.00073  -0.00237
           Y            0.00073   1.00000   0.00273
           Z            0.00237  -0.00273   0.99999
 This molecule is an asymmetric top.
 Rotational symmetry number  1.
 Warning -- assumption of classical behavior for rotation
           may cause significant error
 Rotational temperatures (Kelvin)      0.02902     0.01504     0.01192
 Rotational constants (GHZ):           0.60461     0.31338     0.24838
    1 imaginary frequencies ignored.
 Zero-point vibrational energy     981132.4 (Joules/Mol)
                                  234.49628 (Kcal/Mol)
 Warning -- explicit consideration of  25 degrees of freedom as
           vibrations may cause significant error
 Vibrational temperatures:    109.36   139.98   177.12   211.98   246.91
          (Kelvin)            285.90   325.74   343.04   378.72   414.63
                              428.27   478.94   494.08   520.79   534.23
                              568.51   572.76   615.43   634.65   675.58
                              700.19   731.61   749.05   800.86   812.86
                              922.18   955.15  1000.38  1019.82  1046.35
                             1074.24  1110.16  1115.43  1172.23  1182.92
                             1236.53  1247.27  1258.50  1303.55  1336.28
                             1362.88  1382.61  1396.48  1423.13  1440.32
                             1460.39  1492.13  1529.67  1553.63  1568.73
                             1583.03  1590.89  1600.15  1636.19  1660.73
                             1671.63  1700.63  1706.77  1721.40  1741.03
                             1753.29  1757.05  1784.78  1796.90  1814.60
                             1819.11  1850.81  1869.62  1881.41  1895.60
                             1911.98  1923.25  1939.31  1953.10  1975.26
                             1976.04  1983.90  1998.24  2010.19  2020.30
                             2029.28  2063.53  2130.56  2144.50  2151.93
                             2163.96  2177.10  2177.40  2179.22  2184.44
                             2196.70  2209.68  2214.06  2247.89  2349.61
                             2401.57  4261.14  4268.20  4338.33  4376.07
                             4383.01  4389.60  4390.12  4397.80  4410.45
                             4414.59  4420.07  4431.89  4432.66  4435.96
                             4453.47  4464.78  4471.99  4481.94  4504.84
                             4577.22  4609.53  4646.00  5355.82

 Zero-point correction=                           0.373694 (Hartree/Particle)
 Thermal correction to Energy=                    0.388933
 Thermal correction to Enthalpy=                  0.389877
 Thermal correction to Gibbs Free Energy=         0.333161
 Sum of electronic and zero-point Energies=           -791.249682
 Sum of electronic and thermal Energies=              -791.234443
 Sum of electronic and thermal Enthalpies=            -791.233499
 Sum of electronic and thermal Free Energies=         -791.290215

                     E (Thermal)             CV                S
                      KCal/Mol        Cal/Mol-Kelvin    Cal/Mol-Kelvin
 Total                  244.059             65.658            119.370
 Electronic               0.000              0.000              0.000
 Translational            0.889              2.981             42.534
 Rotational               0.889              2.981             33.190
 Vibrational            242.282             59.696             43.646
 Vibration     1          0.599              1.965              3.991
 Vibration     2          0.603              1.951              3.508
 Vibration     3          0.610              1.930              3.051
 Vibration     4          0.617              1.906              2.706
 Vibration     5          0.626              1.877              2.418
 Vibration     6          0.637              1.842              2.145
 Vibration     7          0.650              1.801              1.907
 Vibration     8          0.656              1.782              1.815
 Vibration     9          0.670              1.740              1.640
 Vibration    10          0.685              1.696              1.485
 Vibration    11          0.691              1.678              1.430
 Vibration    12          0.715              1.610              1.246
 Vibration    13          0.722              1.589              1.196
 Vibration    14          0.736              1.551              1.114
 Vibration    15          0.743              1.531              1.074
 Vibration    16          0.762              1.481              0.981
 Vibration    17          0.764              1.474              0.970
 Vibration    18          0.789              1.410              0.866
 Vibration    19          0.801              1.381              0.823
 Vibration    20          0.827              1.318              0.739
 Vibration    21          0.843              1.280              0.692
 Vibration    22          0.864              1.231              0.637
 Vibration    23          0.876              1.204              0.609
 Vibration    24          0.912              1.125              0.531
 Vibration    25          0.921              1.107              0.514

                           ! Non-Optimized Parameters !
 Normal termination of Gaussian 16 at Wed Mar  2 06:47:59 2022.

 ------------------------------------------
 #p b3lyp/6-31G(d) geom=allcheck guess=read
 ------------------------------------------

 Structure from the checkpoint file:  "177.n.pdb.xyz.mst.wat.chk"
 -------------
 177.n.pdb.xyz
 -------------
 Charge =  0 Multiplicity = 1

 SCF Done:  E(RB3LYP) =  -791.612772018     A.U. after   11 cycles
 Normal termination of Gaussian 16 at Wed Mar  2 06:51:54 2022.
 Gaussian 16:  ES64L-G16RevA.03 25-Dec-2016

 ----------------------------------------------------------------------
 #p b3lyp/6-31G(d) scrf=(iefpcm,read,solvent=water) geom=allcheck guess
 =read
 ----------------------------------------------------------------------

 Structure from the checkpoint file:  "177.n.pdb.xyz.mst.wat.chk"
 -------------
 177.n.pdb.xyz
 -------------
 Charge =  0 Multiplicity = 1

                         Standard orientation:
 ---------------------------------------------------------------------
 Center     Atomic      Atomic             Coordinates (Angstroms)
 Number     Number       Type             X           Y           Z
 ---------------------------------------------------------------------
      1          6           0       -3.622223   -2.032618    0.177304
      2          7           0       -2.252477   -1.619352    0.446488
      3          6           0       -2.187530   -0.730560    1.606929
      4          6           0       -0.784579   -0.159137    1.773065
      5          6           0       -0.267557    0.617573    0.506468
      6          6           0       -0.254148    2.137791    0.803090
      7          6           0       -0.387366    2.982798   -0.466739
      8          6           0       -1.774057    2.778503   -1.123116
      9          6           0       -2.341437    1.364353   -0.850825
     10          6           0       -1.189256    0.358448   -0.731898
     11          6           0       -1.530966   -1.134090   -0.758635
     12          6           0       -0.207381   -1.916024   -0.998168
     13          6           0        1.078777   -1.229909   -0.550603
     14          6           0        1.087659    0.005951    0.136852
     15          6           0        2.308619    0.583868    0.492107
     16          6           0        3.523023   -0.036921    0.181498
     17          8           0        4.668922    0.603380    0.566153
     18          6           0        3.523873   -1.258388   -0.495544
     19          6           0        2.304022   -1.832659   -0.852119
     20          1           0       -4.294823   -1.195478   -0.083605
     21          1           0       -3.641296   -2.752224   -0.645814
     22          1           0       -4.035570   -2.522314    1.065981
     23          1           0       -2.454818   -1.311666    2.498296
     24          1           0       -2.927124    0.086578    1.544303
     25          1           0       -0.107281   -0.988182    1.998922
     26          1           0       -0.764149    0.507122    2.641408
     27          1           0        0.637414    2.414787    1.373195
     28          1           0       -1.102492    2.360720    1.460859
     29          1           0       -0.232463    4.042113   -0.236659
     30          1           0        0.407113    2.702321   -1.168395
     31          1           0       -2.477192    3.529411   -0.746280
     32          1           0       -1.692565    2.944860   -2.203034
     33          1           0       -3.010716    1.062300   -1.664328
     34          1           0       -2.949866    1.375303    0.057202
     35          1           0       -0.566314    0.529739   -1.620008
     36          1           0       -2.183222   -1.334955   -1.614225
     37          1           0       -0.118911   -2.118254   -2.072767
     38          1           0       -0.299368   -2.895164   -0.515165
     39          1           0        2.345611    1.529616    1.019031
     40          1           0        5.438928    0.077049    0.289002
     41          1           0        4.459793   -1.749515   -0.744167
     42          1           0        2.308430   -2.779629   -1.386400
 ---------------------------------------------------------------------

 SCF Done:  E(RB3LYP) =  -791.622440889     A.U. after   10 cycles

 The electronic state is 1-A.
 Alpha  occ. eigenvalues --  -19.17076 -14.31489 -10.24377 -10.20625 -10.19893
 Alpha  occ. eigenvalues --  -10.19539 -10.19446 -10.19078 -10.18482 -10.18381
 Alpha  occ. eigenvalues --  -10.18191 -10.17901 -10.17781 -10.17690 -10.17579
 Alpha  occ. eigenvalues --  -10.17391 -10.17379 -10.17311 -10.17254  -1.04984
 Alpha  occ. eigenvalues --   -0.91709  -0.85929  -0.82607  -0.78148  -0.77499
 Alpha  occ. eigenvalues --   -0.74249  -0.73685  -0.71094  -0.70002  -0.65423
 Alpha  occ. eigenvalues --   -0.63681  -0.61916  -0.60641  -0.59099  -0.57700
 Alpha  occ. eigenvalues --   -0.54663  -0.52784  -0.50609  -0.49165  -0.47958
 Alpha  occ. eigenvalues --   -0.46919  -0.46004  -0.45222  -0.44408  -0.42795
 Alpha  occ. eigenvalues --   -0.42407  -0.41920  -0.41637  -0.41112  -0.39662
 Alpha  occ. eigenvalues --   -0.39268  -0.38379  -0.37945  -0.37616  -0.36809
 Alpha  occ. eigenvalues --   -0.36226  -0.36002  -0.35032  -0.34712  -0.33711
 Alpha  occ. eigenvalues --   -0.32984  -0.32471  -0.32080  -0.31259  -0.29232
 Alpha  occ. eigenvalues --   -0.28522  -0.27826  -0.24141  -0.20986  -0.20007
 Alpha virt. eigenvalues --    0.00236   0.01460   0.07846   0.09838   0.10046
 Alpha virt. eigenvalues --    0.10215   0.11220   0.12000   0.12429   0.13779
 Alpha virt. eigenvalues --    0.14179   0.14468   0.15178   0.15467   0.15911

 Mulliken charges:
               1
     1  C   -0.309656
     2  N   -0.412446
     3  C   -0.126632
     4  C   -0.305569
     5  C    0.048229
     6  C   -0.313441
     7  C   -0.270468
     8  C   -0.270497
     9  C   -0.285311
    10  C   -0.122002
    11  C    0.017694
    12  C   -0.338527
    13  C    0.107735
    14  C    0.077821
    15  C   -0.267097
    16  C    0.341160
    17  O   -0.685327
    18  C   -0.215401
    19  C   -0.219286
    20  H    0.125728
    21  H    0.155202
    22  H    0.149674
    23  H    0.139736
    24  H    0.120033
    25  H    0.145316
    26  H    0.147854
    27  H    0.146883
    28  H    0.139305
    29  H    0.135571
    30  H    0.138547
    31  H    0.135726
    32  H    0.136198
    33  H    0.136062
    34  H    0.145699
    35  H    0.135735
    36  H    0.132107
    37  H    0.151745
    38  H    0.151049
    39  H    0.138692
    40  H    0.457260
    41  H    0.147050
    42  H    0.137849
 Sum of Mulliken charges =  -0.00000

 Dipole moment (field-independent basis, Debye):
    X=             -0.0709    Y=             -0.3920    Z=             -1.0869  Tot=              1.1576
 Quadrupole moment (field-independent basis, Debye-Ang):
   XX=            -98.2250   YY=           -114.6612   ZZ=           -113.6122
   XY=             -7.0302   XZ=             -2.9238   YZ=              3.4483

 Normal termination of Gaussian 16 at Wed Mar  2 06:55:59 2022.
