 Gaussian 16, Revision A.03,

 ----------------------------------------------------------------------
 #p b3lyp/6-31G(d) opt=(MaxStep=10,MaxCycles=1000) freq scf=(MaxCycle=2
 000,NoVarAcc,NoIncFock) scrf=(iefpcm,read,solvent=water)
 ----------------------------------------------------------------------

 -------------
 178.n.pdb.xyz
 -------------
 Symbolic Z-matrix:
 Charge =  0 Multiplicity = 1

 SCF Done:  E(RB3LYP) =  -763.569049757     A.U. after   13 cycles
 SCF Done:  E(RB3LYP) =  -763.574737632     A.U. after   10 cycles
 SCF Done:  E(RB3LYP) =  -763.580483021     A.U. after   11 cycles
 SCF Done:  E(RB3LYP) =  -763.581075911     A.U. after   11 cycles
 SCF Done:  E(RB3LYP) =  -763.581753635     A.U. after   10 cycles
 SCF Done:  E(RB3LYP) =  -763.581983153     A.U. after   10 cycles
 SCF Done:  E(RB3LYP) =  -763.582152661     A.U. after   10 cycles
 SCF Done:  E(RB3LYP) =  -763.582235881     A.U. after   10 cycles
 SCF Done:  E(RB3LYP) =  -763.582266028     A.U. after    9 cycles
 SCF Done:  E(RB3LYP) =  -763.582273292     A.U. after    8 cycles
 SCF Done:  E(RB3LYP) =  -763.582276397     A.U. after    7 cycles
 SCF Done:  E(RB3LYP) =  -763.582277271     A.U. after    7 cycles
 SCF Done:  E(RB3LYP) =  -763.582278445     A.U. after    7 cycles
 SCF Done:  E(RB3LYP) =  -763.582278539     A.U. after    7 cycles
 SCF Done:  E(RB3LYP) =  -763.582278603     A.U. after    7 cycles
 Optimization completed.
    -- Stationary point found.
 Normal termination of Gaussian 16 at Wed Mar  2 04:13:24 2022.

 --------------------------------------------------------------------
 #P Geom=AllCheck Guess=TCheck SCRF=Check GenChk RB3LYP/6-31G(d) Freq
 --------------------------------------------------------------------

 Structure from the checkpoint file:  "178.n.pdb.xyz.mst.wat.chk"
 -------------
 178.n.pdb.xyz
 -------------
 Charge =  0 Multiplicity = 1

 SCF Done:  E(RB3LYP) =  -763.582278603     A.U. after    1 cycles

  Exact polarizability: 345.785   2.252 207.292  -0.639  54.776 180.740
 Approx polarizability: 377.000   6.115 239.541  -3.341  69.783 214.610

                      1                      2                      3
                      A                      A                      A
 Frequencies --     43.3861                66.0791                86.8094
 Red. masses --      5.9219                 5.1666                 4.3309
 Frc consts  --      0.0066                 0.0133                 0.0192
 IR Inten    --      2.1243                 0.7142                 4.8194

                      4                      5                      6
                      A                      A                      A
 Frequencies --     94.0777               129.8026               163.9631
 Red. masses --      5.0883                 5.3968                 3.9788
 Frc consts  --      0.0265                 0.0536                 0.0630
 IR Inten    --     13.7953                 5.5930                 0.9720

                      7                      8                      9
                      A                      A                      A
 Frequencies --    234.5073               246.8335               325.7585
 Red. masses --      4.0306                 4.8571                 4.7261
 Frc consts  --      0.1306                 0.1744                 0.2955
 IR Inten    --      4.0793                 8.2267                 2.4663

                     10                     11                     12
                      A                      A                      A
 Frequencies --    332.3482               360.0741               398.1568
 Red. masses --      4.8212                 4.8360                 4.7610
 Frc consts  --      0.3138                 0.3694                 0.4447
 IR Inten    --      0.7903                 4.9024                25.9654

                     13                     14                     15
                      A                      A                      A
 Frequencies --    401.9509               434.5359               451.5430
 Red. masses --      3.5802                 1.6806                 2.0007
 Frc consts  --      0.3408                 0.1870                 0.2403
 IR Inten    --      2.2332               141.4563               264.6530

                     16                     17                     18
                      A                      A                      A
 Frequencies --    468.1274               477.5793               490.1390
 Red. masses --      1.5019                 2.8580                 3.4355
 Frc consts  --      0.1939                 0.3841                 0.4863
 IR Inten    --     81.2551                 9.0897                11.5526

                     19                     20                     21
                      A                      A                      A
 Frequencies --    538.5844               551.2296               589.1242
 Red. masses --      3.8324                 4.3575                 6.0451
 Frc consts  --      0.6550                 0.7801                 1.2361
 IR Inten    --      7.9113                 4.3728                 1.9395

                     22                     23                     24
                      A                      A                      A
 Frequencies --    595.1120               620.9229               656.7357
 Red. masses --      3.5136                 3.9310                 6.0409
 Frc consts  --      0.7332                 0.8930                 1.5351
 IR Inten    --      0.6920                63.3694                19.6287

                     25                     26                     27
                      A                      A                      A
 Frequencies --    706.8456               719.7927               732.0153
 Red. masses --      4.8275                 5.1013                 2.0969
 Frc consts  --      1.4211                 1.5572                 0.6620
 IR Inten    --      2.8416                 0.8111                12.7194

                     28                     29                     30
                      A                      A                      A
 Frequencies --    750.2043               760.5093               783.8156
 Red. masses --      5.5284                 3.4096                 1.5951
 Frc consts  --      1.8332                 1.1619                 0.5774
 IR Inten    --     45.6666                 6.6857                41.6261

                     31                     32                     33
                      A                      A                      A
 Frequencies --    785.0695               805.2628               824.1727
 Red. masses --      1.6233                 4.3434                 1.7168
 Frc consts  --      0.5895                 1.6594                 0.6871
 IR Inten    --     42.0543                 1.2026                64.4034

                     34                     35                     36
                      A                      A                      A
 Frequencies --    871.4473               895.6400               902.8616
 Red. masses --      2.2406                 1.6203                 1.7794
 Frc consts  --      1.0026                 0.7658                 0.8546
 IR Inten    --     16.2839                15.0971                 9.2763

                     37                     38                     39
                      A                      A                      A
 Frequencies --    951.9111               961.8672               969.1865
 Red. masses --      3.0693                 1.5384                 1.5384
 Frc consts  --      1.6386                 0.8386                 0.8514
 IR Inten    --      1.6045                 3.0645                 1.0000

                     40                     41                     42
                      A                      A                      A
 Frequencies --    995.2892               999.9114              1006.5052
 Red. masses --      1.2727                 1.2783                 1.2746
 Frc consts  --      0.7428                 0.7530                 0.7608
 IR Inten    --      2.6198                 0.9731                 1.8324

                     43                     44                     45
                      A                      A                      A
 Frequencies --   1036.1418              1065.2464              1068.2158
 Red. masses --      6.2735                 2.2044                 2.1153
 Frc consts  --      3.9682                 1.4738                 1.4221
 IR Inten    --      0.4151                 5.1204                 8.5989

                     46                     47                     48
                      A                      A                      A
 Frequencies --   1110.2294              1133.4397              1144.9024
 Red. masses --      1.8251                 1.8807                 1.6030
 Frc consts  --      1.3255                 1.4236                 1.2380
 IR Inten    --     34.8798                14.9909                 8.2309

                     49                     50                     51
                      A                      A                      A
 Frequencies --   1181.9309              1189.4347              1193.9219
 Red. masses --      1.3720                 1.0862                 1.3435
 Frc consts  --      1.1292                 0.9054                 1.1283
 IR Inten    --      1.8874                 0.0203                 1.5589

                     52                     53                     54
                      A                      A                      A
 Frequencies --   1237.1056              1255.7020              1272.5112
 Red. masses --      2.2422                 1.9388                 2.7034
 Frc consts  --      2.0218                 1.8011                 2.5792
 IR Inten    --      3.3272                 1.5570                19.0587

                     55                     56                     57
                      A                      A                      A
 Frequencies --   1278.1086              1297.1274              1341.1256
 Red. masses --      1.7516                 1.5561                 3.1158
 Frc consts  --      1.6859                 1.5426                 3.3019
 IR Inten    --      7.9662                12.6834                36.7761

                     58                     59                     60
                      A                      A                      A
 Frequencies --   1354.7007              1361.7875              1403.1591
 Red. masses --      8.2026                 4.2010                 4.4815
 Frc consts  --      8.8692                 4.5901                 5.1986
 IR Inten    --      1.4144                11.9748               784.3968

                     61                     62                     63
                      A                      A                      A
 Frequencies --   1447.1762              1484.4554              1506.3529
 Red. masses --      1.6157                 2.1983                 2.3886
 Frc consts  --      1.9937                 2.8541                 3.1933
 IR Inten    --      2.3884                 9.2440                39.1539

                     64                     65                     66
                      A                      A                      A
 Frequencies --   1531.3633              1533.7372              1610.7130
 Red. masses --      2.7808                 2.9696                 1.3028
 Frc consts  --      3.8422                 4.1158                 1.9914
 IR Inten    --     40.3007                83.0297               241.1117

                     67                     68                     69
                      A                      A                      A
 Frequencies --   1614.9101              1622.3895              1653.5093
 Red. masses --      4.7236                 5.8994                 5.7790
 Frc consts  --      7.2581                 9.1489                 9.3093
 IR Inten    --     23.6967                 8.6100                12.7715

                     70                     71                     72
                      A                      A                      A
 Frequencies --   1654.3454              1684.3578              1731.3607
 Red. masses --      5.9388                 6.7557                 8.2026
 Frc consts  --      9.5763                11.2924                14.4869
 IR Inten    --      0.1265                 2.9027               703.0356

                     73                     74                     75
                      A                      A                      A
 Frequencies --   3176.4482              3194.5957              3203.6967
 Red. masses --      1.0847                 1.0931                 1.0867
 Frc consts  --      6.4485                 6.5729                 6.5717
 IR Inten    --      1.0402                43.5795                 8.4345

                     76                     77                     78
                      A                      A                      A
 Frequencies --   3204.5444              3212.7870              3214.5281
 Red. masses --      1.0873                 1.0890                 1.0886
 Frc consts  --      6.5785                 6.6230                 6.6277
 IR Inten    --     15.0394                14.5692                12.0304

                     79                     80                     81
                      A                      A                      A
 Frequencies --   3223.6595              3224.7433              3232.9774
 Red. masses --      1.0932                 1.0929                 1.0970
 Frc consts  --      6.6936                 6.6961                 6.7558
 IR Inten    --     47.9864                39.0371                35.3046

                     82                     83                     84
                      A                      A                      A
 Frequencies --   3234.2444              3566.5167              3671.5574
 Red. masses --      1.0974                 1.0479                 1.1023
 Frc consts  --      6.7634                 7.8534                 8.7550
 IR Inten    --     31.1374                95.5552               109.0236

 - Thermochemistry -
 -------------------
 Temperature   298.150 Kelvin.  Pressure   1.00000 Atm.
 Atom     1 has atomic number  7 and mass  14.00307

 Molecular mass:   236.09496 amu.
 Principal axes and moments of inertia in atomic units:
                           1         2         3
     Eigenvalues --  2592.043824909.846565828.57987
           X            0.99994  -0.01037   0.00361
           Y            0.01022   0.99915   0.03987
           Z           -0.00402  -0.03983   0.99920
 This molecule is an asymmetric top.
 Rotational symmetry number  1.
 Warning -- assumption of classical behavior for rotation
           may cause significant error
 Rotational temperatures (Kelvin)      0.03342     0.01764     0.01486
 Rotational constants (GHZ):           0.69626     0.36758     0.30964
 Zero-point vibrational energy     625284.8 (Joules/Mol)
                                  149.44664 (Kcal/Mol)
 Warning -- explicit consideration of  22 degrees of freedom as
           vibrations may cause significant error
 Vibrational temperatures:     62.42    95.07   124.90   135.36   186.76
          (Kelvin)            235.91   337.40   355.14   468.69   478.17
                              518.07   572.86   578.32   625.20   649.67
                              673.53   687.13   705.20   774.90   793.10
                              847.62   856.23   893.37   944.90  1016.99
                             1035.62  1053.21  1079.38  1094.20  1127.74
                             1129.54  1158.59  1185.80  1253.82  1288.63
                             1299.02  1369.59  1383.91  1394.44  1432.00
                             1438.65  1448.14  1490.78  1532.65  1536.92
                             1597.37  1630.77  1647.26  1700.53  1711.33
                             1717.79  1779.92  1806.68  1830.86  1838.91
                             1866.28  1929.58  1949.11  1959.31  2018.83
                             2082.16  2135.80  2167.31  2203.29  2206.71
                             2317.46  2323.50  2334.26  2379.03  2380.23
                             2423.42  2491.04  4570.20  4596.31  4609.40
                             4610.62  4622.48  4624.99  4638.13  4639.69
                             4651.53  4653.36  5131.42  5282.55

 Zero-point correction=                           0.238158 (Hartree/Particle)
 Thermal correction to Energy=                    0.252012
 Thermal correction to Enthalpy=                  0.252956
 Thermal correction to Gibbs Free Energy=         0.197402
 Sum of electronic and zero-point Energies=           -763.344120
 Sum of electronic and thermal Energies=              -763.330266
 Sum of electronic and thermal Enthalpies=            -763.329322
 Sum of electronic and thermal Free Energies=         -763.384876

                     E (Thermal)             CV                S
                      KCal/Mol        Cal/Mol-Kelvin    Cal/Mol-Kelvin
 Total                  158.140             56.591            116.924
 Electronic               0.000              0.000              0.000
 Translational            0.889              2.981             42.279
 Rotational               0.889              2.981             32.672
 Vibrational            156.363             50.630             41.972
 Vibration     1          0.595              1.980              5.098
 Vibration     2          0.597              1.970              4.267
 Vibration     3          0.601              1.958              3.731
 Vibration     4          0.603              1.953              3.573
 Vibration     5          0.612              1.923              2.949
 Vibration     6          0.623              1.887              2.504
 Vibration     7          0.654              1.788              1.844
 Vibration     8          0.661              1.768              1.753
 Vibration     9          0.710              1.624              1.281
 Vibration    10          0.714              1.611              1.249
 Vibration    11          0.735              1.555              1.122
 Vibration    12          0.764              1.474              0.969
 Vibration    13          0.768              1.466              0.956
 Vibration    14          0.795              1.395              0.844
 Vibration    15          0.810              1.357              0.791
 Vibration    16          0.825              1.321              0.743
 Vibration    17          0.834              1.300              0.717
 Vibration    18          0.846              1.272              0.683
 Vibration    19          0.894              1.165              0.568
 Vibration    20          0.907              1.137              0.542
 Vibration    21          0.946              1.055              0.469
 Vibration    22          0.953              1.042              0.458

 Optimization completed.
    -- Stationary point found.
 Normal termination of Gaussian 16 at Wed Mar  2 04:46:30 2022.

 ------------------------------------------
 #p b3lyp/6-31G(d) geom=allcheck guess=read
 ------------------------------------------

 Structure from the checkpoint file:  "178.n.pdb.xyz.mst.wat.chk"
 -------------
 178.n.pdb.xyz
 -------------
 Charge =  0 Multiplicity = 1

 SCF Done:  E(RB3LYP) =  -763.562668948     A.U. after   12 cycles
 Normal termination of Gaussian 16 at Wed Mar  2 04:49:12 2022.
 Gaussian 16:  ES64L-G16RevA.03 25-Dec-2016

 ----------------------------------------------------------------------
 #p b3lyp/6-31G(d) scrf=(iefpcm,read,solvent=water) geom=allcheck guess
 =read
 ----------------------------------------------------------------------

 Structure from the checkpoint file:  "178.n.pdb.xyz.mst.wat.chk"
 -------------
 178.n.pdb.xyz
 -------------
 Charge =  0 Multiplicity = 1

                         Standard orientation:
 ---------------------------------------------------------------------
 Center     Atomic      Atomic             Coordinates (Angstroms)
 Number     Number       Type             X           Y           Z
 ---------------------------------------------------------------------
      1          7           0       -1.174532    2.571956   -1.066658
      2          6           0        0.039796    2.021615   -0.750287
      3          8           0        1.108776    2.566372   -1.039735
      4          7           0        0.003887    0.832923   -0.025708
      5          6           0       -1.208905    0.135476    0.276187
      6          6           0       -2.063883    0.626052    1.267909
      7          6           0       -3.286556    0.005377    1.512970
      8          6           0       -3.657393   -1.116303    0.766460
      9          6           0       -2.799393   -1.618895   -0.205364
     10          6           0       -1.550091   -1.020124   -0.458750
     11          6           0       -0.655239   -1.633486   -1.436090
     12          6           0        0.696980   -1.619591   -1.439508
     13          6           0        1.589482   -0.985218   -0.472587
     14          6           0        2.853327   -1.560824   -0.234068
     15          6           0        3.718868   -1.033581    0.717476
     16          6           0        3.340883    0.091999    1.456557
     17          6           0        2.103290    0.687969    1.224725
     18          6           0        1.239874    0.169193    0.257258
     19          1           0       -1.123856    3.292984   -1.775957
     20          1           0       -1.993876    1.979688   -1.118920
     21          1           0       -1.769357    1.509378    1.823373
     22          1           0       -3.949691    0.399957    2.274794
     23          1           0       -4.612429   -1.598040    0.945840
     24          1           0       -3.080323   -2.497110   -0.778358
     25          1           0       -1.146453   -2.259534   -2.176621
     26          1           0        1.195353   -2.236083   -2.183240
     27          1           0        3.139524   -2.439463   -0.803792
     28          1           0        4.685043   -1.497200    0.886070
     29          1           0        4.011235    0.509320    2.200136
     30          1           0        1.802887    1.573005    1.773790
 ---------------------------------------------------------------------

 SCF Done:  E(RB3LYP) =  -763.581242279     A.U. after   11 cycles

 The electronic state is 1-A.
 Alpha  occ. eigenvalues --  -19.10792 -14.36733 -14.34188 -10.31420 -10.23648
 Alpha  occ. eigenvalues --  -10.23381 -10.20937 -10.20653 -10.20054 -10.19968
 Alpha  occ. eigenvalues --  -10.19881 -10.19829 -10.19779 -10.19689 -10.19617
 Alpha  occ. eigenvalues --  -10.19577 -10.19504 -10.19457  -1.04336  -0.95337
 Alpha  occ. eigenvalues --   -0.89439  -0.86494  -0.85155  -0.80771  -0.76586
 Alpha  occ. eigenvalues --   -0.75953  -0.73946  -0.71531  -0.64794  -0.64067
 Alpha  occ. eigenvalues --   -0.61271  -0.60996  -0.57426  -0.56702  -0.54401
 Alpha  occ. eigenvalues --   -0.51570  -0.50725  -0.49157  -0.48593  -0.46676
 Alpha  occ. eigenvalues --   -0.45603  -0.44868  -0.43743  -0.43244  -0.43048
 Alpha  occ. eigenvalues --   -0.41802  -0.40679  -0.39066  -0.38779  -0.37587
 Alpha  occ. eigenvalues --   -0.36404  -0.35951  -0.35718  -0.34158  -0.31243
 Alpha  occ. eigenvalues --   -0.28253  -0.27556  -0.27045  -0.26236  -0.24698
 Alpha  occ. eigenvalues --   -0.24175  -0.21866
 Alpha virt. eigenvalues --   -0.05254  -0.01873  -0.00263  -0.00221   0.05620
 Alpha virt. eigenvalues --    0.06161   0.09134   0.10665   0.11050   0.11546
 Alpha virt. eigenvalues --    0.14689   0.14807   0.15563   0.15707   0.16658

 Mulliken charges:
               1
     1  N   -0.785633
     2  C    0.710747
     3  O   -0.603851
     4  N   -0.609791
     5  C    0.129473
     6  C   -0.140858
     7  C   -0.159032
     8  C   -0.134161
     9  C   -0.223165
    10  C    0.196702
    11  C   -0.211561
    12  C   -0.206389
    13  C    0.179966
    14  C   -0.225413
    15  C   -0.136826
    16  C   -0.165099
    17  C   -0.145798
    18  C    0.192521
    19  H    0.380536
    20  H    0.378225
    21  H    0.159756
    22  H    0.159423
    23  H    0.157373
    24  H    0.159686
    25  H    0.159613
    26  H    0.159819
    27  H    0.157341
    28  H    0.154855
    29  H    0.156665
    30  H    0.154878
 Sum of Mulliken charges =  -0.00000

 Dipole moment (field-independent basis, Debye):
    X=             -4.5278    Y=             -2.9958    Z=              0.2240  Tot=              5.4338
 Quadrupole moment (field-independent basis, Debye-Ang):
   XX=            -86.4531   YY=           -102.1502   ZZ=            -95.7544
   XY=            -10.1568   XZ=              6.1751   YZ=              6.4543

 Normal termination of Gaussian 16 at Wed Mar  2 04:52:05 2022.
