 Gaussian 16, Revision A.03,

 ----------------------------------------------------------------------
 #p b3lyp/6-31G(d) opt=(MaxStep=10,MaxCycles=1000) freq scf=(MaxCycle=2
 000,NoVarAcc,NoIncFock) scrf=(iefpcm,read,solvent=water)
 ----------------------------------------------------------------------

 -------------
 179.n.pdb.xyz
 -------------
 Symbolic Z-matrix:
 Charge =  0 Multiplicity = 1

 SCF Done:  E(RB3LYP) =  -745.049896267     A.U. after   13 cycles
 SCF Done:  E(RB3LYP) =  -745.056493545     A.U. after   10 cycles
 SCF Done:  E(RB3LYP) =  -745.061482481     A.U. after   11 cycles
 SCF Done:  E(RB3LYP) =  -745.064749862     A.U. after   12 cycles
 SCF Done:  E(RB3LYP) =  -745.065407705     A.U. after   11 cycles
 SCF Done:  E(RB3LYP) =  -745.066034922     A.U. after   10 cycles
 SCF Done:  E(RB3LYP) =  -745.066544756     A.U. after   10 cycles
 SCF Done:  E(RB3LYP) =  -745.067333785     A.U. after   11 cycles
 SCF Done:  E(RB3LYP) =  -745.067951805     A.U. after   10 cycles
 SCF Done:  E(RB3LYP) =  -745.068444403     A.U. after   10 cycles
 SCF Done:  E(RB3LYP) =  -745.071162168     A.U. after   10 cycles
 SCF Done:  E(RB3LYP) =  -745.071171991     A.U. after    8 cycles
 SCF Done:  E(RB3LYP) =  -745.071189459     A.U. after    8 cycles
 SCF Done:  E(RB3LYP) =  -745.071186023     A.U. after    8 cycles
 SCF Done:  E(RB3LYP) =  -745.071168198     A.U. after    8 cycles
 SCF Done:  E(RB3LYP) =  -745.071171960     A.U. after    8 cycles
 SCF Done:  E(RB3LYP) =  -745.071172034     A.U. after    7 cycles
 Optimization completed.
    -- Stationary point found.
 Normal termination of Gaussian 16 at Wed Mar  2 06:14:14 2022.

 --------------------------------------------------------------------
 #P Geom=AllCheck Guess=TCheck SCRF=Check GenChk RB3LYP/6-31G(d) Freq
 --------------------------------------------------------------------

 Structure from the checkpoint file:  "179.n.pdb.xyz.mst.wat.chk"
 -------------
 179.n.pdb.xyz
 -------------
 Charge =  0 Multiplicity = 1

 SCF Done:  E(RB3LYP) =  -745.071172034     A.U. after    1 cycles

  Exact polarizability: 286.123   1.396 238.905  -7.047 -27.710 136.807
 Approx polarizability: 289.700   4.320 285.224 -11.617 -43.085 157.283

                      1                      2                      3
                      A                      A                      A
 Frequencies --     39.2292                51.6595                59.1611
 Red. masses --      2.9278                 3.3135                 2.5047
 Frc consts  --      0.0027                 0.0052                 0.0052
 IR Inten    --      2.9651                 4.1934                 4.0703

                      4                      5                      6
                      A                      A                      A
 Frequencies --     86.8536               100.4649               109.3965
 Red. masses --      1.4097                 3.0602                 3.7402
 Frc consts  --      0.0063                 0.0182                 0.0264
 IR Inten    --      0.3084                 0.6762                 9.5444

                      7                      8                      9
                      A                      A                      A
 Frequencies --    149.5202               192.3052               203.6453
 Red. masses --      3.8718                 2.5021                 2.3925
 Frc consts  --      0.0510                 0.0545                 0.0585
 IR Inten    --      7.6146                 1.3673                 2.4688

                     10                     11                     12
                      A                      A                      A
 Frequencies --    213.1795               250.3150               256.4730
 Red. masses --      1.2921                 1.5198                 2.1085
 Frc consts  --      0.0346                 0.0561                 0.0817
 IR Inten    --      2.2288                 0.6904                 6.1142

                     13                     14                     15
                      A                      A                      A
 Frequencies --    268.3058               277.6313               295.1014
 Red. masses --      2.7246                 2.4329                 2.1664
 Frc consts  --      0.1156                 0.1105                 0.1112
 IR Inten    --      6.2105                 0.4709                 1.3907

                     16                     17                     18
                      A                      A                      A
 Frequencies --    336.1399               351.0714               371.2835
 Red. masses --      2.9203                 2.3169                 3.2845
 Frc consts  --      0.1944                 0.1682                 0.2668
 IR Inten    --     22.2854                 8.4699                 4.9549

                     19                     20                     21
                      A                      A                      A
 Frequencies --    393.1035               425.0043               445.0880
 Red. masses --      3.9453                 3.0963                 4.2233
 Frc consts  --      0.3592                 0.3295                 0.4929
 IR Inten    --      1.7164                 1.4047                 5.3363

                     22                     23                     24
                      A                      A                      A
 Frequencies --    484.9007               515.3671               550.8230
 Red. masses --      5.6606                 3.3173                 4.5107
 Frc consts  --      0.7842                 0.5191                 0.8063
 IR Inten    --     26.4607                 9.4524                 0.2929

                     25                     26                     27
                      A                      A                      A
 Frequencies --    587.5663               629.5370               642.3037
 Red. masses --      5.2870                 6.1995                 4.9428
 Frc consts  --      1.0754                 1.4476                 1.2015
 IR Inten    --     38.6607                 1.1987                 2.4159

                     28                     29                     30
                      A                      A                      A
 Frequencies --    662.5926               690.1681               711.3494
 Red. masses --      6.9393                 4.0018                 2.2159
 Frc consts  --      1.7950                 1.1231                 0.6606
 IR Inten    --     39.0319                12.0331                30.7360

                     31                     32                     33
                      A                      A                      A
 Frequencies --    744.3134               771.9061               825.9295
 Red. masses --     10.0349                 1.6698                 5.6769
 Frc consts  --      3.2755                 0.5862                 2.2816
 IR Inten    --     11.5013                79.4372                 9.1081

                     34                     35                     36
                      A                      A                      A
 Frequencies --    850.3915               902.7460               920.7960
 Red. masses --      1.2565                 3.3222                 1.4272
 Frc consts  --      0.5354                 1.5952                 0.7130
 IR Inten    --      0.5040                32.5716                11.2492

                     37                     38                     39
                      A                      A                      A
 Frequencies --    976.3500               981.9025              1001.9069
 Red. masses --      1.3418                 2.3999                 1.2467
 Frc consts  --      0.7536                 1.3633                 0.7373
 IR Inten    --      1.5787                50.7854                 0.3706

                     40                     41                     42
                      A                      A                      A
 Frequencies --   1015.3847              1042.1298              1062.2057
 Red. masses --      6.0734                 4.0545                 2.0148
 Frc consts  --      3.6893                 2.5944                 1.3394
 IR Inten    --      0.4093                14.5783                 3.4611

                     43                     44                     45
                      A                      A                      A
 Frequencies --   1065.7317              1074.5425              1083.1052
 Red. masses --      1.9527                 1.6447                 1.6152
 Frc consts  --      1.3067                 1.1189                 1.1164
 IR Inten    --      2.0564                 7.7656                18.3449

                     46                     47                     48
                      A                      A                      A
 Frequencies --   1108.5241              1133.2854              1134.4787
 Red. masses --      1.5888                 1.2743                 2.1525
 Frc consts  --      1.1503                 0.9643                 1.6323
 IR Inten    --     17.3495                51.5093                19.9809

                     49                     50                     51
                      A                      A                      A
 Frequencies --   1162.1836              1168.5789              1185.9459
 Red. masses --      1.8165                 1.9863                 1.4139
 Frc consts  --      1.4455                 1.5982                 1.1717
 IR Inten    --     67.8295               331.3626                14.5821

                     52                     53                     54
                      A                      A                      A
 Frequencies --   1188.0932              1202.0549              1230.2879
 Red. masses --      1.0914                 1.1434                 3.9340
 Frc consts  --      0.9077                 0.9734                 3.5083
 IR Inten    --      0.6570                 5.2513                 9.6277

                     55                     56                     57
                      A                      A                      A
 Frequencies --   1258.0291              1267.6181              1348.0496
 Red. masses --      3.7931                 3.4612                 3.0927
 Frc consts  --      3.5369                 3.2768                 3.3114
 IR Inten    --     82.6788                23.4435                23.8036

                     58                     59                     60
                      A                      A                      A
 Frequencies --   1349.8186              1363.6592              1381.3056
 Red. masses --      2.9711                 2.4559                 3.9613
 Frc consts  --      3.1894                 2.6908                 4.4532
 IR Inten    --    424.2795                13.1221               252.1813

                     61                     62                     63
                      A                      A                      A
 Frequencies --   1416.3573              1451.4570              1458.6461
 Red. masses --      1.9905                 1.3448                 1.3683
 Frc consts  --      2.3527                 1.6692                 1.7153
 IR Inten    --      9.2637                 4.4273                12.6363

                     64                     65                     66
                      A                      A                      A
 Frequencies --   1464.9577              1482.0462              1498.1436
 Red. masses --      1.2765                 1.2130                 1.0518
 Frc consts  --      1.6141                 1.5697                 1.3909
 IR Inten    --      4.4673                11.6580                26.9377

                     67                     68                     69
                      A                      A                      A
 Frequencies --   1501.5181              1502.8750              1503.5159
 Red. masses --      1.1217                 1.8992                 1.0928
 Frc consts  --      1.4900                 2.5274                 1.4555
 IR Inten    --      4.2794                13.1952                31.0732

                     70                     71                     72
                      A                      A                      A
 Frequencies --   1508.6160              1512.1232              1521.7294
 Red. masses --      1.0796                 1.0632                 1.0945
 Frc consts  --      1.4477                 1.4323                 1.4932
 IR Inten    --     13.5769                30.5870                 5.8580

                     73                     74                     75
                      A                      A                      A
 Frequencies --   1529.5392              1540.1351              1550.1361
 Red. masses --      1.0879                 2.2979                 1.0736
 Frc consts  --      1.4996                 3.2115                 1.5199
 IR Inten    --     12.8811               182.8607                14.4279

                     76                     77                     78
                      A                      A                      A
 Frequencies --   1640.8123              1653.7961              1672.8078
 Red. masses --      6.0615                 5.7686                 7.6022
 Frc consts  --      9.6150                 9.2958                12.5337
 IR Inten    --      3.9546                94.2502               133.0716

                     79                     80                     81
                      A                      A                      A
 Frequencies --   1713.7461              2990.0376              2993.2018
 Red. masses --     11.6267                 1.0553                 1.0584
 Frc consts  --     20.1188                 5.5590                 5.5870
 IR Inten    --    808.6412                78.6964               216.5903

                     82                     83                     84
                      A                      A                      A
 Frequencies --   3066.0715              3068.8801              3089.7441
 Red. masses --      1.0448                 1.0477                 1.0785
 Frc consts  --      5.7871                 5.8134                 6.0662
 IR Inten    --     64.5090                50.6414                77.9484

                     85                     86                     87
                      A                      A                      A
 Frequencies --   3099.8912              3128.3291              3149.5719
 Red. masses --      1.0813                 1.0963                 1.1013
 Frc consts  --      6.1218                 6.3215                 6.4366
 IR Inten    --     64.5301                19.7027                36.6896

                     88                     89                     90
                      A                      A                      A
 Frequencies --   3166.0707              3172.5375              3200.7980
 Red. masses --      1.0912                 1.1000                 1.0863
 Frc consts  --      6.4448                 6.5230                 6.5569
 IR Inten    --     27.4027                 8.5937                 1.1649

                     91                     92                     93
                      A                      A                      A
 Frequencies --   3202.3562              3210.8137              3213.6639
 Red. masses --      1.1046                 1.0946                 1.0906
 Frc consts  --      6.6743                 6.6488                 6.6362
 IR Inten    --     18.6514                 9.6988                32.6875

                     94                     95                     96
                      A                      A                      A
 Frequencies --   3222.5399              3244.1996              3272.0737
 Red. masses --      1.0950                 1.0929                 1.0923
 Frc consts  --      6.6996                 6.7773                 6.8906
 IR Inten    --     46.8051                 6.3645                 1.6471

 - Thermochemistry -
 -------------------
 Temperature   298.150 Kelvin.  Pressure   1.00000 Atm.
 Atom     1 has atomic number  6 and mass  12.00000

 Molecular mass:   231.13716 amu.
 Principal axes and moments of inertia in atomic units:
                           1         2         3
     Eigenvalues --  1857.045955992.179507316.08018
           X            0.99999  -0.00127   0.00355
           Y            0.00123   0.99993   0.01215
           Z           -0.00357  -0.01215   0.99992
 This molecule is an asymmetric top.
 Rotational symmetry number  1.
 Warning -- assumption of classical behavior for rotation
           may cause significant error
 Rotational temperatures (Kelvin)      0.04664     0.01445     0.01184
 Rotational constants (GHZ):           0.97183     0.30118     0.24668
 Zero-point vibrational energy     752239.0 (Joules/Mol)
                                  179.78943 (Kcal/Mol)
 Warning -- explicit consideration of  25 degrees of freedom as
           vibrations may cause significant error
 Vibrational temperatures:     56.44    74.33    85.12   124.96   144.55
          (Kelvin)            157.40   215.13   276.68   293.00   306.72
                              360.15   369.01   386.03   399.45   424.59
                              483.63   505.11   534.19   565.59   611.49
                              640.38   697.66   741.50   792.51   845.38
                              905.76   924.13   953.32   993.00  1023.47
                             1070.90  1110.60  1188.33  1223.52  1298.85
                             1324.82  1404.75  1412.74  1441.52  1460.91
                             1499.39  1528.28  1533.35  1546.03  1558.35
                             1594.92  1630.54  1632.26  1672.12  1681.32
                             1706.31  1709.40  1729.49  1770.11  1810.02
                             1823.82  1939.54  1942.09  1962.00  1987.39
                             2037.82  2088.32  2098.67  2107.75  2132.33
                             2155.49  2160.35  2162.30  2163.22  2170.56
                             2175.61  2189.43  2200.67  2215.91  2230.30
                             2360.76  2379.44  2406.80  2465.70  4302.00
                             4306.55  4411.39  4415.43  4445.45  4460.05
                             4500.97  4531.53  4555.27  4564.57  4605.23
                             4607.48  4619.64  4623.75  4636.52  4667.68
                             4707.78

 Zero-point correction=                           0.286513 (Hartree/Particle)
 Thermal correction to Energy=                    0.303095
 Thermal correction to Enthalpy=                  0.304039
 Thermal correction to Gibbs Free Energy=         0.242347
 Sum of electronic and zero-point Energies=           -744.784659
 Sum of electronic and thermal Energies=              -744.768077
 Sum of electronic and thermal Enthalpies=            -744.767133
 Sum of electronic and thermal Free Energies=         -744.828826

                     E (Thermal)             CV                S
                      KCal/Mol        Cal/Mol-Kelvin    Cal/Mol-Kelvin
 Total                  190.195             62.811            129.843
 Electronic               0.000              0.000              0.000
 Translational            0.889              2.981             42.215
 Rotational               0.889              2.981             32.765
 Vibrational            188.418             56.849             54.863
 Vibration     1          0.594              1.981              5.298
 Vibration     2          0.596              1.977              4.753
 Vibration     3          0.597              1.974              4.485
 Vibration     4          0.601              1.958              3.730
 Vibration     5          0.604              1.949              3.445
 Vibration     6          0.606              1.942              3.280
 Vibration     7          0.618              1.903              2.678
 Vibration     8          0.634              1.851              2.205
 Vibration     9          0.639              1.835              2.100
 Vibration    10          0.644              1.821              2.016
 Vibration    11          0.663              1.762              1.728
 Vibration    12          0.666              1.752              1.686
 Vibration    13          0.673              1.731              1.607
 Vibration    14          0.679              1.715              1.548
 Vibration    15          0.689              1.683              1.445
 Vibration    16          0.717              1.603              1.230
 Vibration    17          0.728              1.573              1.161
 Vibration    18          0.743              1.531              1.074
 Vibration    19          0.760              1.485              0.988
 Vibration    20          0.787              1.416              0.875
 Vibration    21          0.804              1.372              0.811
 Vibration    22          0.841              1.284              0.697
 Vibration    23          0.870              1.216              0.621
 Vibration    24          0.906              1.138              0.542
 Vibration    25          0.945              1.058              0.472

                           ! Non-Optimized Parameters !
 Normal termination of Gaussian 16 at Wed Mar  2 06:46:26 2022.

 ------------------------------------------
 #p b3lyp/6-31G(d) geom=allcheck guess=read
 ------------------------------------------

 Structure from the checkpoint file:  "179.n.pdb.xyz.mst.wat.chk"
 -------------
 179.n.pdb.xyz
 -------------
 Charge =  0 Multiplicity = 1

 SCF Done:  E(RB3LYP) =  -745.059956795     A.U. after   12 cycles
 Normal termination of Gaussian 16 at Wed Mar  2 06:49:00 2022.
 Gaussian 16:  ES64L-G16RevA.03 25-Dec-2016

 ----------------------------------------------------------------------
 #p b3lyp/6-31G(d) scrf=(iefpcm,read,solvent=water) geom=allcheck guess
 =read
 ----------------------------------------------------------------------

 Structure from the checkpoint file:  "179.n.pdb.xyz.mst.wat.chk"
 -------------
 179.n.pdb.xyz
 -------------
 Charge =  0 Multiplicity = 1

                         Standard orientation:
 ---------------------------------------------------------------------
 Center     Atomic      Atomic             Coordinates (Angstroms)
 Number     Number       Type             X           Y           Z
 ---------------------------------------------------------------------
      1          6           0       -4.277872   -0.261597    0.244548
      2          7           0       -3.013457   -0.956246    0.059532
      3          6           0       -3.089069   -2.014791   -0.947425
      4          6           0       -1.823103   -0.214316    0.053888
      5          6           0       -1.555205    1.119592   -0.101903
      6          6           0       -2.439372    2.307818   -0.313811
      7          7           0       -0.172702    1.355500   -0.010057
      8          6           0        0.264263    2.430146    0.899202
      9          7           0        0.418920    0.111820    0.273371
     10          6           0       -0.546559   -0.894186    0.285273
     11          8           0       -0.306079   -2.100895    0.418312
     12          6           0        1.805618   -0.067625    0.063837
     13          6           0        2.466601   -1.140480    0.678462
     14          6           0        3.833453   -1.315629    0.467707
     15          6           0        4.553561   -0.424665   -0.331733
     16          6           0        3.889832    0.646031   -0.934300
     17          6           0        2.519495    0.825097   -0.747272
     18          1           0       -4.189146    0.471193    1.049472
     19          1           0       -4.639804    0.249808   -0.662206
     20          1           0       -5.035847   -0.998497    0.528934
     21          1           0       -2.150327   -2.568319   -0.953776
     22          1           0       -3.901253   -2.698298   -0.683342
     23          1           0       -3.285408   -1.620433   -1.957234
     24          1           0       -1.986690    2.988248   -1.040070
     25          1           0       -2.598277    2.871547    0.612528
     26          1           0       -3.412894    2.006725   -0.693218
     27          1           0        1.339012    2.569611    0.791760
     28          1           0       -0.241507    3.346345    0.598719
     29          1           0        0.021321    2.196921    1.941809
     30          1           0        1.903093   -1.826177    1.294460
     31          1           0        4.338534   -2.150792    0.942327
     32          1           0        5.619601   -0.563068   -0.482928
     33          1           0        4.434739    1.343105   -1.562111
     34          1           0        1.994316    1.639358   -1.230390
 ---------------------------------------------------------------------

 SCF Done:  E(RB3LYP) =  -745.070296540     A.U. after   12 cycles

 The electronic state is 1-A.
 Alpha  occ. eigenvalues --  -19.11598 -14.40644 -14.40139 -14.34351 -10.28672
 Alpha  occ. eigenvalues --  -10.24079 -10.23632 -10.21943 -10.21780 -10.20597
 Alpha  occ. eigenvalues --  -10.19969 -10.19537 -10.19477 -10.19429 -10.19252
 Alpha  occ. eigenvalues --  -10.19219 -10.19057  -1.06589  -1.00839  -0.93349
 Alpha  occ. eigenvalues --   -0.88649  -0.84148  -0.80073  -0.75757  -0.75068
 Alpha  occ. eigenvalues --   -0.71891  -0.70489  -0.69017  -0.65378  -0.61873
 Alpha  occ. eigenvalues --   -0.61088  -0.57276  -0.56271  -0.52974  -0.50192
 Alpha  occ. eigenvalues --   -0.49107  -0.48275  -0.47005  -0.45726  -0.44953
 Alpha  occ. eigenvalues --   -0.44586  -0.43678  -0.43096  -0.42494  -0.42086
 Alpha  occ. eigenvalues --   -0.41480  -0.40609  -0.40278  -0.39570  -0.38911
 Alpha  occ. eigenvalues --   -0.38199  -0.37040  -0.36803  -0.36278  -0.34988
 Alpha  occ. eigenvalues --   -0.33020  -0.29976  -0.26837  -0.25740  -0.24796
 Alpha  occ. eigenvalues --   -0.21987  -0.19455
 Alpha virt. eigenvalues --   -0.02574  -0.00664   0.00944   0.08372   0.08747
 Alpha virt. eigenvalues --    0.09911   0.11471   0.11792   0.14085   0.14212
 Alpha virt. eigenvalues --    0.14433   0.14958   0.15279   0.16167   0.16302

 Mulliken charges:
               1
     1  C   -0.320254
     2  N   -0.494508
     3  C   -0.324669
     4  C    0.112488
     5  C    0.335381
     6  C   -0.543660
     7  N   -0.350131
     8  C   -0.323455
     9  N   -0.419162
    10  C    0.598499
    11  O   -0.611357
    12  C    0.292800
    13  C   -0.167202
    14  C   -0.163306
    15  C   -0.144325
    16  C   -0.160589
    17  C   -0.175650
    18  H    0.169067
    19  H    0.147845
    20  H    0.162751
    21  H    0.177453
    22  H    0.156622
    23  H    0.136769
    24  H    0.186422
    25  H    0.189237
    26  H    0.189618
    27  H    0.184981
    28  H    0.193280
    29  H    0.173816
    30  H    0.163503
    31  H    0.154201
    32  H    0.150373
    33  H    0.155223
    34  H    0.167940
 Sum of Mulliken charges =  -0.00000

 Dipole moment (field-independent basis, Debye):
    X=             -1.4187    Y=              6.6149    Z=             -0.5899  Tot=              6.7909
 Quadrupole moment (field-independent basis, Debye-Ang):
   XX=            -81.2690   YY=            -97.8567   ZZ=           -100.3694
   XY=             -4.0908   XZ=              1.0765   YZ=              1.8408

 Normal termination of Gaussian 16 at Wed Mar  2 06:52:04 2022.
