 Gaussian 16, Revision A.03,

 ----------------------------------------------------------------------
 #p b3lyp/6-31G(d) opt=(MaxStep=10,MaxCycles=1000) freq scf=(MaxCycle=2
 000,NoVarAcc,NoIncFock) scrf=(iefpcm,read,solvent=water)
 ----------------------------------------------------------------------

 ------------
 18.n.pdb.xyz
 ------------
 Symbolic Z-matrix:
 Charge =  0 Multiplicity = 1

 SCF Done:  E(RB3LYP) =  -1627.12476332     A.U. after   13 cycles
 SCF Done:  E(RB3LYP) =  -1627.12847272     A.U. after   10 cycles
 SCF Done:  E(RB3LYP) =  -1627.13031003     A.U. after   11 cycles
 SCF Done:  E(RB3LYP) =  -1627.12872751     A.U. after   11 cycles
 SCF Done:  E(RB3LYP) =  -1627.13153473     A.U. after   10 cycles
 SCF Done:  E(RB3LYP) =  -1627.13217967     A.U. after   10 cycles
 SCF Done:  E(RB3LYP) =  -1627.13231500     A.U. after   10 cycles
 SCF Done:  E(RB3LYP) =  -1627.13234776     A.U. after    9 cycles
 SCF Done:  E(RB3LYP) =  -1627.13233923     A.U. after    8 cycles
 SCF Done:  E(RB3LYP) =  -1627.13232520     A.U. after    8 cycles
 SCF Done:  E(RB3LYP) =  -1627.13232643     A.U. after    7 cycles
 SCF Done:  E(RB3LYP) =  -1627.13232543     A.U. after    8 cycles
 SCF Done:  E(RB3LYP) =  -1627.13232638     A.U. after    8 cycles
 SCF Done:  E(RB3LYP) =  -1627.13232636     A.U. after    6 cycles
 Optimization completed.
    -- Stationary point found.
 Normal termination of Gaussian 16 at Wed Mar  2 04:35:45 2022.

 --------------------------------------------------------------------
 #P Geom=AllCheck Guess=TCheck SCRF=Check GenChk RB3LYP/6-31G(d) Freq
 --------------------------------------------------------------------

 Structure from the checkpoint file:  "18.n.pdb.xyz.mst.wat.chk"
 ------------
 18.n.pdb.xyz
 ------------
 Charge =  0 Multiplicity = 1

 SCF Done:  E(RB3LYP) =  -1627.13232636     A.U. after    1 cycles

  Exact polarizability: 337.816   5.778 433.783 -15.934  -5.847 162.003
 Approx polarizability: 377.665   5.749 457.130 -20.367  -5.005 187.231

                      1                      2                      3
                      A                      A                      A
 Frequencies --     14.6754                26.7052                32.9255
 Red. masses --      2.7284                 4.2109                 6.3462
 Frc consts  --      0.0003                 0.0018                 0.0041
 IR Inten    --      0.3734                 0.2304                 0.0292

                      4                      5                      6
                      A                      A                      A
 Frequencies --     54.0820                86.7740               109.8869
 Red. masses --      5.7642                 5.6705                 2.6233
 Frc consts  --      0.0099                 0.0252                 0.0187
 IR Inten    --      0.3381                 1.5107                 0.6787

                      7                      8                      9
                      A                      A                      A
 Frequencies --    127.6212               140.9344               160.1996
 Red. masses --      3.5967                 4.0367                 6.3895
 Frc consts  --      0.0345                 0.0472                 0.0966
 IR Inten    --      0.1738                 0.3976                 0.3082

                     10                     11                     12
                      A                      A                      A
 Frequencies --    184.3797               209.7290               243.9540
 Red. masses --      5.6226                 3.9065                 3.3213
 Frc consts  --      0.1126                 0.1012                 0.1165
 IR Inten    --      0.6451                 0.8933                 1.7362

                     13                     14                     15
                      A                      A                      A
 Frequencies --    256.0492               265.9428               286.3659
 Red. masses --      1.1492                 1.1619                 5.8321
 Frc consts  --      0.0444                 0.0484                 0.2818
 IR Inten    --      2.0161                 0.2623                 3.5211

                     16                     17                     18
                      A                      A                      A
 Frequencies --    289.1453               315.8069               335.7062
 Red. masses --      7.3188                 3.5273                 6.1434
 Frc consts  --      0.3605                 0.2073                 0.4079
 IR Inten    --      0.0749                 2.6526                 3.4996

                     19                     20                     21
                      A                      A                      A
 Frequencies --    358.1892               373.9784               387.5591
 Red. masses --      2.8441                 3.2385                 5.3022
 Frc consts  --      0.2150                 0.2669                 0.4692
 IR Inten    --     15.1697                 5.0705                 4.8639

                     22                     23                     24
                      A                      A                      A
 Frequencies --    410.7079               435.1032               439.7095
 Red. masses --      3.0704                 4.8653                 2.8164
 Frc consts  --      0.3052                 0.5427                 0.3208
 IR Inten    --      2.7501                 2.3044                 0.8772

                     25                     26                     27
                      A                      A                      A
 Frequencies --    457.5810               465.2722               491.1191
 Red. masses --      3.3039                 3.2560                 5.0858
 Frc consts  --      0.4076                 0.4153                 0.7227
 IR Inten    --      4.3745                 2.2117                16.8662

                     28                     29                     30
                      A                      A                      A
 Frequencies --    504.8933               546.2011               556.9854
 Red. masses --      3.6204                 5.0572                 5.4021
 Frc consts  --      0.5438                 0.8889                 0.9874
 IR Inten    --      7.9253                10.3930                 7.2718

                     31                     32                     33
                      A                      A                      A
 Frequencies --    590.5812               622.7028               654.6552
 Red. masses --      5.5670                 5.8805                 5.7343
 Frc consts  --      1.1440                 1.3435                 1.4480
 IR Inten    --      6.8331                 0.9238                10.6867

                     34                     35                     36
                      A                      A                      A
 Frequencies --    689.3081               713.6142               728.1054
 Red. masses --      6.2235                 5.2768                 5.3498
 Frc consts  --      1.7422                 1.5833                 1.6710
 IR Inten    --      4.4885                 2.4334                 2.1101

                     37                     38                     39
                      A                      A                      A
 Frequencies --    737.1170               765.5530               771.2810
 Red. masses --      4.2510                 1.2780                 1.1166
 Frc consts  --      1.3609                 0.4413                 0.3914
 IR Inten    --      2.3510                87.6701                10.7227

                     40                     41                     42
                      A                      A                      A
 Frequencies --    799.3147               812.8299               860.8560
 Red. masses --      5.1369                 1.3310                 2.4989
 Frc consts  --      1.9337                 0.5181                 1.0911
 IR Inten    --     15.5101                37.0146                21.5431

                     43                     44                     45
                      A                      A                      A
 Frequencies --    867.0945               869.7825               873.8742
 Red. masses --      1.6005                 1.3801                 1.7279
 Frc consts  --      0.7090                 0.6152                 0.7774
 IR Inten    --     29.6967                 1.8762               109.1441

                     46                     47                     48
                      A                      A                      A
 Frequencies --    943.1367               948.5637               949.9572
 Red. masses --      1.4531                 1.6388                 1.7545
 Frc consts  --      0.7615                 0.8688                 0.9328
 IR Inten    --     13.9086                34.2329                51.6386

                     49                     50                     51
                      A                      A                      A
 Frequencies --    985.1032              1018.7750              1056.4272
 Red. masses --      1.2531                 3.2861                 3.0361
 Frc consts  --      0.7165                 2.0095                 1.9964
 IR Inten    --      0.1666                13.6176                30.6500

                     52                     53                     54
                      A                      A                      A
 Frequencies --   1067.4946              1069.3982              1069.7692
 Red. masses --      4.9879                 1.7356                 5.6119
 Frc consts  --      3.3489                 1.1695                 3.7839
 IR Inten    --     64.2419                20.1735                10.7170

                     55                     56                     57
                      A                      A                      A
 Frequencies --   1081.5037              1084.3167              1122.6051
 Red. masses --      2.6213                 2.4860                 3.5556
 Frc consts  --      1.8064                 1.7221                 2.6401
 IR Inten    --     27.0467                12.0072                12.7559

                     58                     59                     60
                      A                      A                      A
 Frequencies --   1130.2110              1133.0171              1136.2735
 Red. masses --      1.5275                 1.5135                 1.8087
 Frc consts  --      1.1496                 1.1447                 1.3759
 IR Inten    --      7.0982                 5.0111                91.4918

                     61                     62                     63
                      A                      A                      A
 Frequencies --   1158.5833              1169.0776              1193.1063
 Red. masses --      1.5579                 1.3973                 1.5714
 Frc consts  --      1.2321                 1.1252                 1.3179
 IR Inten    --     82.4784                 3.7357                21.4008

                     64                     65                     66
                      A                      A                      A
 Frequencies --   1201.5081              1214.4122              1257.6558
 Red. masses --      1.1887                 1.7631                 1.8534
 Frc consts  --      1.0111                 1.5320                 1.7272
 IR Inten    --      8.8407                67.8466               148.2487

                     67                     68                     69
                      A                      A                      A
 Frequencies --   1275.4195              1285.6780              1304.7392
 Red. masses --      1.9438                 1.9366                 2.3096
 Frc consts  --      1.8630                 1.8861                 2.3166
 IR Inten    --    114.6945                67.4123                 6.8695

                     70                     71                     72
                      A                      A                      A
 Frequencies --   1319.6163              1322.3637              1335.3595
 Red. masses --      1.3516                 1.7082                 6.9126
 Frc consts  --      1.3867                 1.7599                 7.2625
 IR Inten    --     23.8222                11.3421                74.2801

                     73                     74                     75
                      A                      A                      A
 Frequencies --   1338.2808              1352.0146              1353.0967
 Red. masses --      1.4826                 1.3650                 3.8819
 Frc consts  --      1.5645                 1.4701                 4.1874
 IR Inten    --     12.6098                32.3402                17.8682

                     76                     77                     78
                      A                      A                      A
 Frequencies --   1388.8417              1410.1422              1432.2955
 Red. masses --      1.7734                 1.3369                 1.4944
 Frc consts  --      2.0154                 1.5663                 1.8062
 IR Inten    --     95.0379                11.7867               120.5036

                     79                     80                     81
                      A                      A                      A
 Frequencies --   1447.5981              1464.1651              1486.4973
 Red. masses --      2.9864                 1.1636                 2.1926
 Frc consts  --      3.6872                 1.4698                 2.8546
 IR Inten    --    193.8826                 1.2209                45.6130

                     82                     83                     84
                      A                      A                      A
 Frequencies --   1488.0050              1506.7041              1507.5483
 Red. masses --      1.2077                 1.7394                 1.2461
 Frc consts  --      1.5755                 2.3266                 1.6686
 IR Inten    --      2.0973               434.5532                97.5295

                     85                     86                     87
                      A                      A                      A
 Frequencies --   1510.7630              1519.4167              1522.4891
 Red. masses --      1.0762                 1.0875                 1.0509
 Frc consts  --      1.4472                 1.4792                 1.4353
 IR Inten    --     15.4593                17.3287                10.3845

                     88                     89                     90
                      A                      A                      A
 Frequencies --   1529.8831              1533.3221              1545.6042
 Red. masses --      1.6172                 1.0680                 1.2553
 Frc consts  --      2.2301                 1.4794                 1.7669
 IR Inten    --     23.8943                 9.6886                 3.1575

                     91                     92                     93
                      A                      A                      A
 Frequencies --   1551.7331              1607.5164              1623.7725
 Red. masses --      1.1982                 6.0725                 6.3494
 Frc consts  --      1.6999                 9.2454                 9.8635
 IR Inten    --     11.8505                66.1289               133.1768

                     94                     95                     96
                      A                      A                      A
 Frequencies --   1630.7532              1651.3548              2926.6944
 Red. masses --      5.8685                 6.3754                 1.0721
 Frc consts  --      9.1950                10.2433                 5.4105
 IR Inten    --      6.5740                71.8976               114.2245

                     97                     98                     99
                      A                      A                      A
 Frequencies --   2952.1119              2961.1460              3070.3819
 Red. masses --      1.0610                 1.0619                 1.0867
 Frc consts  --      5.4480                 5.4861                 6.0358
 IR Inten    --     81.7804               242.1231                40.4032

                    100                    101                    102
                      A                      A                      A
 Frequencies --   3090.7078              3092.6619              3100.7132
 Red. masses --      1.0612                 1.0706                 1.0627
 Frc consts  --      5.9724                 6.0333                 6.0198
 IR Inten    --     16.1309                61.2236                26.2430

                    103                    104                    105
                      A                      A                      A
 Frequencies --   3105.5179              3129.5150              3138.4741
 Red. masses --      1.0686                 1.1017                 1.1046
 Frc consts  --      6.0719                 6.3570                 6.4103
 IR Inten    --     98.8052                 7.2083                54.3430

                    106                    107                    108
                      A                      A                      A
 Frequencies --   3146.1326              3152.8882              3207.8253
 Red. masses --      1.1056                 1.1024                 1.0873
 Frc consts  --      6.4475                 6.4567                 6.5918
 IR Inten    --     73.6010                64.4329                 2.6306

                    109                    110                    111
                      A                      A                      A
 Frequencies --   3215.7265              3218.0702              3232.3628
 Red. masses --      1.0900                 1.0900                 1.0963
 Frc consts  --      6.6409                 6.6507                 6.7485
 IR Inten    --     20.4128                 9.7642                45.0886

                    112                    113                    114
                      A                      A                      A
 Frequencies --   3250.2951              3266.0017              3286.6072
 Red. masses --      1.0939                 1.0902                 1.0895
 Frc consts  --      6.8089                 6.8515                 6.9338
 IR Inten    --      4.1147                12.7245                 0.7172

 - Thermochemistry -
 -------------------
 Temperature   298.150 Kelvin.  Pressure   1.00000 Atm.
 Atom     1 has atomic number  6 and mass  12.00000

 Molecular mass:   318.09575 amu.
 Principal axes and moments of inertia in atomic units:
                           1         2         3
     Eigenvalues --  7257.256268554.38061**********
           X            0.99866  -0.05162  -0.00380
           Y            0.05159   0.99865  -0.00578
           Z            0.00409   0.00558   0.99998
 This molecule is an asymmetric top.
 Rotational symmetry number  1.
 Warning -- assumption of classical behavior for rotation
           may cause significant error
 Rotational temperatures (Kelvin)      0.01193     0.01013     0.00571
 Rotational constants (GHZ):           0.24868     0.21097     0.11888
 Zero-point vibrational energy     865525.5 (Joules/Mol)
                                  206.86555 (Kcal/Mol)
 Warning -- explicit consideration of  31 degrees of freedom as
           vibrations may cause significant error
 Vibrational temperatures:     21.11    38.42    47.37    77.81   124.85
          (Kelvin)            158.10   183.62   202.77   230.49   265.28
                              301.75   351.00   368.40   382.63   412.02
                              416.02   454.38   483.01   515.35   538.07
                              557.61   590.92   626.02   632.64   658.36
                              669.42   706.61   726.43   785.86   801.38
                              849.71   895.93   941.90   991.76  1026.73
                             1047.58  1060.55  1101.46  1109.70  1150.04
                             1169.48  1238.58  1247.56  1251.42  1257.31
                             1356.96  1364.77  1366.78  1417.34  1465.79
                             1519.96  1535.89  1538.63  1539.16  1556.04
                             1560.09  1615.18  1626.12  1630.16  1634.84
                             1666.94  1682.04  1716.61  1728.70  1747.27
                             1809.49  1835.04  1849.80  1877.23  1898.63
                             1902.59  1921.28  1925.49  1945.25  1946.80
                             1998.23  2028.88  2060.75  2082.77  2106.61
                             2138.74  2140.91  2167.81  2169.03  2173.65
                             2186.10  2190.52  2201.16  2206.11  2223.78
                             2232.60  2312.86  2336.25  2346.29  2375.93
                             4210.86  4247.43  4260.43  4417.59  4446.84
                             4449.65  4461.23  4468.15  4502.67  4515.56
                             4526.58  4536.30  4615.35  4626.71  4630.09
                             4650.65  4676.45  4699.05  4728.69

 Zero-point correction=                           0.329661 (Hartree/Particle)
 Thermal correction to Energy=                    0.349043
 Thermal correction to Enthalpy=                  0.349987
 Thermal correction to Gibbs Free Energy=         0.279778
 Sum of electronic and zero-point Energies=          -1626.802665
 Sum of electronic and thermal Energies=             -1626.783284
 Sum of electronic and thermal Enthalpies=           -1626.782340
 Sum of electronic and thermal Free Energies=        -1626.852548

                     E (Thermal)             CV                S
                      KCal/Mol        Cal/Mol-Kelvin    Cal/Mol-Kelvin
 Total                  219.028             75.236            147.767
 Electronic               0.000              0.000              0.000
 Translational            0.889              2.981             43.167
 Rotational               0.889              2.981             35.198
 Vibrational            217.250             69.274             69.401
 Vibration     1          0.593              1.986              7.249
 Vibration     2          0.593              1.984              6.060
 Vibration     3          0.594              1.983              5.645
 Vibration     4          0.596              1.976              4.662
 Vibration     5          0.601              1.958              3.732
 Vibration     6          0.606              1.941              3.271
 Vibration     7          0.611              1.926              2.982
 Vibration     8          0.615              1.912              2.791
 Vibration     9          0.622              1.891              2.547
 Vibration    10          0.631              1.861              2.284
 Vibration    11          0.642              1.826              2.046
 Vibration    12          0.659              1.773              1.774
 Vibration    13          0.666              1.753              1.689
 Vibration    14          0.672              1.736              1.622
 Vibration    15          0.684              1.699              1.495
 Vibration    16          0.686              1.694              1.479
 Vibration    17          0.703              1.643              1.332
 Vibration    18          0.717              1.604              1.232
 Vibration    19          0.733              1.558              1.130
 Vibration    20          0.745              1.526              1.063
 Vibration    21          0.756              1.497              1.010
 Vibration    22          0.775              1.447              0.924
 Vibration    23          0.796              1.394              0.842
 Vibration    24          0.800              1.384              0.828
 Vibration    25          0.816              1.344              0.773
 Vibration    26          0.823              1.327              0.751
 Vibration    27          0.847              1.270              0.681
 Vibration    28          0.860              1.239              0.646
 Vibration    29          0.901              1.148              0.552
 Vibration    30          0.912              1.124              0.530
 Vibration    31          0.948              1.052              0.466

                           ! Non-Optimized Parameters !
 Normal termination of Gaussian 16 at Wed Mar  2 05:32:31 2022.

 ------------------------------------------
 #p b3lyp/6-31G(d) geom=allcheck guess=read
 ------------------------------------------

 Structure from the checkpoint file:  "18.n.pdb.xyz.mst.wat.chk"
 ------------
 18.n.pdb.xyz
 ------------
 Charge =  0 Multiplicity = 1

 SCF Done:  E(RB3LYP) =  -1627.12560612     A.U. after   11 cycles
 Normal termination of Gaussian 16 at Wed Mar  2 05:35:59 2022.
 Gaussian 16:  ES64L-G16RevA.03 25-Dec-2016

 ----------------------------------------------------------------------
 #p b3lyp/6-31G(d) scrf=(iefpcm,read,solvent=water) geom=allcheck guess
 =read
 ----------------------------------------------------------------------

 Structure from the checkpoint file:  "18.n.pdb.xyz.mst.wat.chk"
 ------------
 18.n.pdb.xyz
 ------------
 Charge =  0 Multiplicity = 1

                         Standard orientation:
 ---------------------------------------------------------------------
 Center     Atomic      Atomic             Coordinates (Angstroms)
 Number     Number       Type             X           Y           Z
 ---------------------------------------------------------------------
      1          6           0        5.825878    0.249967   -0.399957
      2          7           0        4.573184   -0.028840    0.293895
      3          6           0        4.740576   -1.163158    1.196685
      4          6           0        3.490202   -0.242798   -0.667468
      5          6           0        2.103583   -0.244625   -0.021510
      6          6           0        1.009661   -0.360321   -1.095053
      7          7           0       -0.372897   -0.462469   -0.611488
      8          6           0       -1.051332    0.719710   -0.265019
      9          6           0       -0.363371    1.938782   -0.137884
     10          6           0       -1.053458    3.104517    0.183675
     11         17           0       -0.139449    4.606447    0.310496
     12          6           0       -2.420739    3.117426    0.422296
     13          6           0       -3.105779    1.907206    0.307155
     14          6           0       -2.447908    0.734336   -0.056153
     15         16           0       -3.420772   -0.711556   -0.400485
     16          6           0       -2.224196   -1.968043   -0.005291
     17          6           0       -0.849979   -1.733945   -0.217295
     18          6           0        0.024891   -2.820588   -0.043503
     19          6           0       -0.448574   -4.079179    0.330641
     20          6           0       -1.804404   -4.285174    0.570078
     21          6           0       -2.687351   -3.216959    0.407567
     22          1           0        6.164683   -0.589462   -1.034827
     23          1           0        5.706149    1.130434   -1.037700
     24          1           0        6.611142    0.455141    0.333264
     25          1           0        4.985592   -2.100442    0.662729
     26          1           0        3.828667   -1.329951    1.773871
     27          1           0        5.552857   -0.949740    1.896797
     28          1           0        3.636100   -1.183907   -1.233394
     29          1           0        3.540455    0.572081   -1.398879
     30          1           0        2.012499   -1.071383    0.686977
     31          1           0        1.980662    0.674006    0.557068
     32          1           0        1.193882   -1.242607   -1.709985
     33          1           0        1.053388    0.499826   -1.767718
     34          1           0        0.704564    1.989845   -0.281943
     35          1           0       -2.937717    4.031726    0.683647
     36          1           0       -4.176924    1.879887    0.475174
     37          1           0        1.085956   -2.690702   -0.201195
     38          1           0        0.258996   -4.893234    0.445155
     39          1           0       -2.175453   -5.257404    0.873921
     40          1           0       -3.750740   -3.352578    0.575751
 ---------------------------------------------------------------------

 SCF Done:  E(RB3LYP) =  -1627.13139646     A.U. after   11 cycles

 The electronic state is 1-A.
 Alpha  occ. eigenvalues -- -101.55502 -88.89935 -14.38158 -14.32712 -10.25766
 Alpha  occ. eigenvalues --  -10.25452 -10.24721 -10.23190 -10.22833 -10.22754
 Alpha  occ. eigenvalues --  -10.20838 -10.20763 -10.20581 -10.20204 -10.19987
 Alpha  occ. eigenvalues --  -10.19771 -10.19764 -10.19614 -10.19507 -10.19122
 Alpha  occ. eigenvalues --  -10.18672  -9.47129  -7.96009  -7.23513  -7.22565
 Alpha  occ. eigenvalues --   -7.22533  -5.92510  -5.92150  -5.91511  -0.97802
 Alpha  occ. eigenvalues --   -0.92010  -0.89500  -0.86537  -0.85165  -0.80280
 Alpha  occ. eigenvalues --   -0.78526  -0.77279  -0.74827  -0.73939  -0.70440
 Alpha  occ. eigenvalues --   -0.70159  -0.67847  -0.64034  -0.63480  -0.61303
 Alpha  occ. eigenvalues --   -0.60107  -0.57821  -0.56591  -0.54778  -0.51756
 Alpha  occ. eigenvalues --   -0.49138  -0.48795  -0.48263  -0.47665  -0.46712
 Alpha  occ. eigenvalues --   -0.46043  -0.45384  -0.44743  -0.44084  -0.43433
 Alpha  occ. eigenvalues --   -0.42941  -0.42320  -0.40357  -0.39762  -0.38982
 Alpha  occ. eigenvalues --   -0.38850  -0.38832  -0.38166  -0.36878  -0.36566
 Alpha  occ. eigenvalues --   -0.36153  -0.35585  -0.35163  -0.35048  -0.33658
 Alpha  occ. eigenvalues --   -0.33012  -0.32025  -0.31538  -0.29980  -0.26574
 Alpha  occ. eigenvalues --   -0.25786  -0.23296  -0.21844  -0.18982
 Alpha virt. eigenvalues --   -0.02802  -0.01870  -0.01060   0.01179   0.01960
 Alpha virt. eigenvalues --    0.03447   0.07012   0.08441   0.10552   0.11189
 Alpha virt. eigenvalues --    0.12124   0.12593   0.13314   0.13889   0.14162

 Mulliken charges:
               1
     1  C   -0.303872
     2  N   -0.405514
     3  C   -0.313530
     4  C   -0.115814
     5  C   -0.298887
     6  C   -0.178028
     7  N   -0.602755
     8  C    0.340656
     9  C   -0.180107
    10  C   -0.092179
    11  Cl  -0.044597
    12  C   -0.135943
    13  C   -0.191109
    14  C   -0.127681
    15  S    0.146197
    16  C   -0.135808
    17  C    0.330646
    18  C   -0.186506
    19  C   -0.165357
    20  C   -0.139565
    21  C   -0.192977
    22  H    0.125700
    23  H    0.157243
    24  H    0.155856
    25  H    0.125769
    26  H    0.162191
    27  H    0.157935
    28  H    0.121833
    29  H    0.151163
    30  H    0.162974
    31  H    0.160362
    32  H    0.178816
    33  H    0.179008
    34  H    0.177108
    35  H    0.172133
    36  H    0.172614
    37  H    0.160093
    38  H    0.156107
    39  H    0.153230
    40  H    0.162597
 Sum of Mulliken charges =  -0.00000

 Dipole moment (field-independent basis, Debye):
    X=              2.3845    Y=             -2.9766    Z=             -0.5308  Tot=              3.8507
 Quadrupole moment (field-independent basis, Debye-Ang):
   XX=           -127.2869   YY=           -136.8824   ZZ=           -141.3936
   XY=             -6.7915   XZ=             -6.5854   YZ=             -3.2581

 Normal termination of Gaussian 16 at Wed Mar  2 05:40:19 2022.
