 Gaussian 16, Revision A.03,

 ----------------------------------------------------------------------
 #p b3lyp/6-31G(d) opt=(MaxStep=10,MaxCycles=1000) freq scf=(MaxCycle=2
 000,NoVarAcc,NoIncFock) scrf=(iefpcm,read,solvent=water)
 ----------------------------------------------------------------------

 -------------
 180.n.pdb.xyz
 -------------
 Symbolic Z-matrix:
 Charge =  0 Multiplicity = 1

 SCF Done:  E(RB3LYP) =  -307.711210990     A.U. after   12 cycles
 SCF Done:  E(RB3LYP) =  -307.712826650     A.U. after   10 cycles
 SCF Done:  E(RB3LYP) =  -307.712949231     A.U. after    9 cycles
 SCF Done:  E(RB3LYP) =  -307.712923666     A.U. after    9 cycles
 SCF Done:  E(RB3LYP) =  -307.712931743     A.U. after    9 cycles
 SCF Done:  E(RB3LYP) =  -307.712963946     A.U. after    9 cycles
 SCF Done:  E(RB3LYP) =  -307.712971240     A.U. after    8 cycles
 Optimization completed.
    -- Stationary point found.
 Normal termination of Gaussian 16 at Tue Mar  1 04:12:24 2022.

 --------------------------------------------------------------------
 #P Geom=AllCheck Guess=TCheck SCRF=Check GenChk RB3LYP/6-31G(d) Freq
 --------------------------------------------------------------------

 Structure from the checkpoint file:  "180.n.pdb.xyz.mst.wat.chk"
 -------------
 180.n.pdb.xyz
 -------------
 Charge =  0 Multiplicity = 1

 SCF Done:  E(RB3LYP) =  -307.712971240     A.U. after    1 cycles

  Exact polarizability:  68.798  -0.283  61.965   0.004  -0.006  48.343
 Approx polarizability:  66.387  -3.630  73.159   0.003  -0.007  52.223

                      1                      2                      3
                      A                      A                      A
 Frequencies --     34.6321                62.1338               157.0066
 Red. masses --      2.9055                 1.0762                 1.9732
 Frc consts  --      0.0021                 0.0024                 0.0287
 IR Inten    --      0.7663                 1.4669                 7.4211

                      4                      5                      6
                      A                      A                      A
 Frequencies --    185.6682               274.2722               362.5425
 Red. masses --      3.3232                 1.2210                 3.7135
 Frc consts  --      0.0675                 0.0541                 0.2876
 IR Inten    --      8.9645                 1.4553                15.5480

                      7                      8                      9
                      A                      A                      A
 Frequencies --    429.2982               606.7455               637.1295
 Red. masses --      2.7615                 2.6884                 4.6952
 Frc consts  --      0.2999                 0.5831                 1.1229
 IR Inten    --      1.2108                10.8592                 9.5263

                     10                     11                     12
                      A                      A                      A
 Frequencies --    813.0638               868.3909               959.5425
 Red. masses --      1.0909                 2.4985                 4.8297
 Frc consts  --      0.4249                 1.1101                 2.6200
 IR Inten    --      1.7178                15.7516                 7.1231

                     13                     14                     15
                      A                      A                      A
 Frequencies --   1020.2852              1071.7740              1073.6784
 Red. masses --      1.6339                 1.7719                 3.0699
 Frc consts  --      1.0021                 1.1992                 2.0851
 IR Inten    --      4.8119                15.3589               165.1653

                     16                     17                     18
                      A                      A                      A
 Frequencies --   1147.8395              1187.9310              1279.7327
 Red. masses --      2.1262                 1.5070                 3.3624
 Frc consts  --      1.6505                 1.2530                 3.2444
 IR Inten    --     20.9670                 8.8782               583.9127

                     19                     20                     21
                      A                      A                      A
 Frequencies --   1288.0469              1393.3512              1420.5137
 Red. masses --      1.1257                 1.3232                 1.4416
 Frc consts  --      1.1003                 1.5135                 1.7138
 IR Inten    --      4.6735                 2.1160                82.1665

                     22                     23                     24
                      A                      A                      A
 Frequencies --   1445.0514              1484.6944              1489.4950
 Red. masses --      1.3533                 1.0547                 1.0449
 Frc consts  --      1.6650                 1.3698                 1.3658
 IR Inten    --      3.7672                24.2293                11.4310

                     25                     26                     27
                      A                      A                      A
 Frequencies --   1508.2865              1512.6445              1537.3926
 Red. masses --      1.0399                 1.0565                 1.0842
 Frc consts  --      1.3938                 1.4243                 1.5098
 IR Inten    --      8.0412                 1.6551                 8.4232

                     28                     29                     30
                      A                      A                      A
 Frequencies --   1786.8032              3074.9900              3085.9017
 Red. masses --     10.7256                 1.0356                 1.0372
 Frc consts  --     20.1755                 5.7693                 5.8194
 IR Inten    --    432.2549                23.1843                 1.7095

                     31                     32                     33
                      A                      A                      A
 Frequencies --   3090.2474              3130.1320              3149.0560
 Red. masses --      1.0575                 1.1072                 1.1029
 Frc consts  --      5.9501                 6.3915                 6.4436
 IR Inten    --     31.2550                 5.8374                45.3534

                     34                     35                     36
                      A                      A                      A
 Frequencies --   3150.3009              3153.3947              3195.4425
 Red. masses --      1.1012                 1.1057                 1.1038
 Frc consts  --      6.4388                 6.4781                 6.6404
 IR Inten    --      7.0402                70.7364                14.1036

 - Thermochemistry -
 -------------------
 Temperature   298.150 Kelvin.  Pressure   1.00000 Atm.
 Atom     1 has atomic number  6 and mass  12.00000

 Molecular mass:    88.05243 amu.
 Principal axes and moments of inertia in atomic units:
                           1         2         3
     Eigenvalues --   215.02452 867.318261048.53941
           X            0.99955   0.02993  -0.00000
           Y           -0.02993   0.99955  -0.00000
           Z            0.00000   0.00000   1.00000
 This molecule is an asymmetric top.
 Rotational symmetry number  1.
 Rotational temperatures (Kelvin)      0.40281     0.09986     0.08260
 Rotational constants (GHZ):           8.39319     2.08083     1.72120
 Zero-point vibrational energy     311432.3 (Joules/Mol)
                                   74.43410 (Kcal/Mol)
 Warning -- explicit consideration of   8 degrees of freedom as
           vibrations may cause significant error
 Vibrational temperatures:     49.83    89.40   225.90   267.14   394.62
          (Kelvin)            521.62   617.66   872.97   916.69  1169.82
                             1249.42  1380.57  1467.96  1542.04  1544.78
                             1651.49  1709.17  1841.25  1853.21  2004.72
                             2043.80  2079.11  2136.14  2143.05  2170.09
                             2176.36  2211.96  2570.81  4424.22  4439.92
                             4446.18  4503.56  4530.79  4532.58  4537.03
                             4597.53

 Zero-point correction=                           0.118618 (Hartree/Particle)
 Thermal correction to Energy=                    0.126099
 Thermal correction to Enthalpy=                  0.127043
 Thermal correction to Gibbs Free Energy=         0.086075
 Sum of electronic and zero-point Energies=           -307.594353
 Sum of electronic and thermal Energies=              -307.586872
 Sum of electronic and thermal Enthalpies=            -307.585928
 Sum of electronic and thermal Free Energies=         -307.626896

                     E (Thermal)             CV                S
                      KCal/Mol        Cal/Mol-Kelvin    Cal/Mol-Kelvin
 Total                   79.128             24.339             86.224
 Electronic               0.000              0.000              0.000
 Translational            0.889              2.981             39.339
 Rotational               0.889              2.981             26.772
 Vibrational             77.351             18.378             20.113
 Vibration     1          0.594              1.983              5.545
 Vibration     2          0.597              1.972              4.388
 Vibration     3          0.621              1.895              2.586
 Vibration     4          0.632              1.859              2.271
 Vibration     5          0.677              1.721              1.569
 Vibration     6          0.736              1.549              1.111
 Vibration     7          0.791              1.406              0.861
 Vibration     8          0.965              1.018              0.438

                           ! Non-Optimized Parameters !
 Normal termination of Gaussian 16 at Tue Mar  1 04:14:35 2022.

 ------------------------------------------
 #p b3lyp/6-31G(d) geom=allcheck guess=read
 ------------------------------------------

 Structure from the checkpoint file:  "180.n.pdb.xyz.mst.wat.chk"
 -------------
 180.n.pdb.xyz
 -------------
 Charge =  0 Multiplicity = 1

 SCF Done:  E(RB3LYP) =  -307.707277225     A.U. after   10 cycles
 Normal termination of Gaussian 16 at Tue Mar  1 04:14:50 2022.
 Gaussian 16:  ES64L-G16RevA.03 25-Dec-2016

 ----------------------------------------------------------------------
 #p b3lyp/6-31G(d) scrf=(iefpcm,read,solvent=water) geom=allcheck guess
 =read
 ----------------------------------------------------------------------

 Structure from the checkpoint file:  "180.n.pdb.xyz.mst.wat.chk"
 -------------
 180.n.pdb.xyz
 -------------
 Charge =  0 Multiplicity = 1

                         Standard orientation:
 ---------------------------------------------------------------------
 Center     Atomic      Atomic             Coordinates (Angstroms)
 Number     Number       Type             X           Y           Z
 ---------------------------------------------------------------------
      1          6           0        2.565372   -0.402022   -0.000135
      2          6           0        1.316642    0.453525    0.000208
      3          8           0        0.174730   -0.440099    0.000082
      4          6           0       -1.037486    0.141108   -0.000063
      5          6           0       -2.138434   -0.887181   -0.000023
      6          8           0       -1.199902    1.347928   -0.000051
      7          1           0        2.604135   -1.038192   -0.888387
      8          1           0        2.605210   -1.039033    0.888316
      9          1           0        3.449021    0.242142   -0.000707
     10          1           0        1.258297    1.092632    0.884393
     11          1           0        1.258280    1.092878   -0.883797
     12          1           0       -2.051546   -1.527799    0.881683
     13          1           0       -2.051577   -1.528219   -0.881621
     14          1           0       -3.107008   -0.389614   -0.000047
 ---------------------------------------------------------------------

 SCF Done:  E(RB3LYP) =  -307.712758834     A.U. after   10 cycles

 The electronic state is 1-A.
 Alpha  occ. eigenvalues --  -19.19088 -19.13875 -10.31971 -10.23985 -10.19013
 Alpha  occ. eigenvalues --  -10.17948  -1.10173  -1.01359  -0.78308  -0.73438
 Alpha  occ. eigenvalues --   -0.63537  -0.56624  -0.49339  -0.49102  -0.46935
 Alpha  occ. eigenvalues --   -0.44188  -0.41212  -0.39719  -0.38679  -0.38153
 Alpha  occ. eigenvalues --   -0.35335  -0.34952  -0.30235  -0.27619
 Alpha virt. eigenvalues --    0.01078   0.10596   0.11750   0.13626   0.15245
 Alpha virt. eigenvalues --    0.15387   0.17303   0.18075   0.18478   0.20240
 Alpha virt. eigenvalues --    0.22430   0.24770   0.29849   0.35109   0.52053

 Mulliken charges:
               1
     1  C   -0.468693
     2  C   -0.034963
     3  O   -0.456067
     4  C    0.622698
     5  C   -0.526560
     6  O   -0.531318
     7  H    0.163983
     8  H    0.163844
     9  H    0.165515
    10  H    0.164602
    11  H    0.164578
    12  H    0.195305
    13  H    0.195296
    14  H    0.181781
 Sum of Mulliken charges =  -0.00000

 Dipole moment (field-independent basis, Debye):
    X=              1.3073    Y=             -2.1706    Z=             -0.0004  Tot=              2.5338
 Quadrupole moment (field-independent basis, Debye-Ang):
   XX=            -31.6804   YY=            -40.1211   ZZ=            -34.9355
   XY=              5.7930   XZ=             -0.0010   YZ=             -0.0002

 Normal termination of Gaussian 16 at Tue Mar  1 04:15:09 2022.
