 Gaussian 16, Revision A.03,

 ----------------------------------------------------------------------
 #p b3lyp/6-31G(d) opt=(MaxStep=10,MaxCycles=1000) freq scf=(MaxCycle=2
 000,NoVarAcc,NoIncFock) scrf=(iefpcm,read,solvent=water)
 ----------------------------------------------------------------------

 -------------
 181.n.pdb.xyz
 -------------
 Symbolic Z-matrix:
 Charge =  0 Multiplicity = 1

 SCF Done:  E(RB3LYP) =  -233.665078321     A.U. after   10 cycles
 SCF Done:  E(RB3LYP) =  -233.665573972     A.U. after    9 cycles
 SCF Done:  E(RB3LYP) =  -233.665590200     A.U. after    7 cycles
 SCF Done:  E(RB3LYP) =  -233.665592442     A.U. after    7 cycles
 Optimization completed.
    -- Stationary point found.
 Normal termination of Gaussian 16 at Tue Mar  1 05:46:32 2022.

 --------------------------------------------------------------------
 #P Geom=AllCheck Guess=TCheck SCRF=Check GenChk RB3LYP/6-31G(d) Freq
 --------------------------------------------------------------------

 Structure from the checkpoint file:  "181.n.pdb.xyz.mst.wat.chk"
 -------------
 181.n.pdb.xyz
 -------------
 Charge =  0 Multiplicity = 1

 SCF Done:  E(RB3LYP) =  -233.665592442     A.U. after    1 cycles

  Exact polarizability:  66.928  -0.002  57.098   0.002  -0.004  56.606
 Approx polarizability:  62.987  -0.002  60.286   0.001  -0.011  58.926

                      1                      2                      3
                      A                      A                      A
 Frequencies --     92.2571               109.0137               187.2643
 Red. masses --      3.3801                 1.6302                 2.6948
 Frc consts  --      0.0170                 0.0114                 0.0557
 IR Inten    --      7.3356                 0.0047                 1.0972

                      4                      5                      6
                      A                      A                      A
 Frequencies --    264.0283               269.9755               430.8608
 Red. masses --      1.1294                 1.1594                 3.0518
 Frc consts  --      0.0464                 0.0498                 0.3338
 IR Inten    --      0.3803                 2.6324                 0.9028

                      7                      8                      9
                      A                      A                      A
 Frequencies --    431.5589               823.9330               829.0798
 Red. masses --      2.6721                 1.0761                 1.0816
 Frc consts  --      0.2932                 0.4304                 0.4380
 IR Inten    --      2.9181                 0.0027                 1.7763

                     10                     11                     12
                      A                      A                      A
 Frequencies --    863.8989               954.0426              1057.1696
 Red. masses --      1.9135                 2.0881                 2.7391
 Frc consts  --      0.8414                 1.1198                 1.8036
 IR Inten    --     13.1613                 8.6021                20.0619

                     13                     14                     15
                      A                      A                      A
 Frequencies --   1104.5952              1147.5854              1180.9735
 Red. masses --      2.1052                 5.1889                 1.4587
 Frc consts  --      1.5134                 4.0262                 1.1987
 IR Inten    --     13.6472               284.8632                 0.0236

                     16                     17                     18
                      A                      A                      A
 Frequencies --   1184.6893              1209.3991              1287.4408
 Red. masses --      2.3740                 1.5982                 1.1325
 Frc consts  --      1.9631                 1.3772                 1.1060
 IR Inten    --     40.3383                25.0779                 3.9160

                     19                     20                     21
                      A                      A                      A
 Frequencies --   1304.3000              1390.8221              1417.0165
 Red. masses --      1.0964                 1.2182                 1.2522
 Frc consts  --      1.0990                 1.3884                 1.4814
 IR Inten    --      0.0486                65.1025                 0.7434

                     22                     23                     24
                      A                      A                      A
 Frequencies --   1433.5706              1452.7013              1502.4264
 Red. masses --      1.3065                 1.5301                 1.0412
 Frc consts  --      1.5819                 1.9025                 1.3848
 IR Inten    --     36.2747                 7.3446                 8.1431

                     25                     26                     27
                      A                      A                      A
 Frequencies --   1506.4684              1514.4498              1517.4489
 Red. masses --      1.0413                 1.0499                 1.0486
 Frc consts  --      1.3923                 1.4187                 1.4226
 IR Inten    --      6.4332                 3.0242                 3.1909

                     28                     29                     30
                      A                      A                      A
 Frequencies --   1543.2508              1559.2884              2989.9820
 Red. masses --      1.0853                 1.0917                 1.0548
 Frc consts  --      1.5229                 1.5639                 5.5558
 IR Inten    --      4.5432                 0.4688                11.1854

                     31                     32                     33
                      A                      A                      A
 Frequencies --   2998.8906              3015.9451              3022.9036
 Red. masses --      1.0553                 1.1054                 1.1083
 Frc consts  --      5.5916                 5.9239                 5.9670
 IR Inten    --    170.7817               225.7404                 0.2661

                     34                     35                     36
                      A                      A                      A
 Frequencies --   3066.6854              3067.2873              3135.6451
 Red. masses --      1.0354                 1.0356                 1.1035
 Frc consts  --      5.7371                 5.7407                 6.3927
 IR Inten    --     29.4892                22.3571                63.9145

                     37                     38                     39
                      A                      A                      A
 Frequencies --   3137.3569              3140.3973              3143.1361
 Red. masses --      1.1039                 1.1026                 1.1025
 Frc consts  --      6.4021                 6.4069                 6.4175
 IR Inten    --     53.2775                44.9787                44.5568

 - Thermochemistry -
 -------------------
 Temperature   298.150 Kelvin.  Pressure   1.00000 Atm.
 Atom     1 has atomic number  6 and mass  12.00000

 Molecular mass:    74.07317 amu.
 Principal axes and moments of inertia in atomic units:
                           1         2         3
     Eigenvalues --    99.47731 811.48762 865.72692
           X            1.00000  -0.00001  -0.00000
           Y            0.00001   1.00000   0.00008
           Z            0.00000  -0.00008   1.00000
 This molecule is an asymmetric top.
 Rotational symmetry number  1.
 Rotational temperatures (Kelvin)      0.87069     0.10673     0.10005
 Rotational constants (GHZ):          18.14224     2.22399     2.08465
 Zero-point vibrational energy     360600.8 (Joules/Mol)
                                   86.18565 (Kcal/Mol)
 Warning -- explicit consideration of   7 degrees of freedom as
           vibrations may cause significant error
 Vibrational temperatures:    132.74   156.85   269.43   379.88   388.43
          (Kelvin)            619.91   620.92  1185.46  1192.86  1242.96
                             1372.65  1521.03  1589.27  1651.12  1699.16
                             1704.50  1740.06  1852.34  1876.60  2001.08
                             2038.77  2062.59  2090.11  2161.66  2167.47
                             2178.96  2183.27  2220.39  2243.47  4301.92
                             4314.73  4339.27  4349.28  4412.28  4413.14
                             4511.49  4513.96  4518.33  4522.27

 Zero-point correction=                           0.137346 (Hartree/Particle)
 Thermal correction to Energy=                    0.144164
 Thermal correction to Enthalpy=                  0.145108
 Thermal correction to Gibbs Free Energy=         0.107186
 Sum of electronic and zero-point Energies=           -233.528247
 Sum of electronic and thermal Energies=              -233.521428
 Sum of electronic and thermal Enthalpies=            -233.520484
 Sum of electronic and thermal Free Energies=         -233.558406

                     E (Thermal)             CV                S
                      KCal/Mol        Cal/Mol-Kelvin    Cal/Mol-Kelvin
 Total                   90.464             22.761             79.814
 Electronic               0.000              0.000              0.000
 Translational            0.889              2.981             38.823
 Rotational               0.889              2.981             25.750
 Vibrational             88.687             16.799             15.241
 Vibration     1          0.602              1.955              3.612
 Vibration     2          0.606              1.942              3.286
 Vibration     3          0.632              1.857              2.255
 Vibration     4          0.671              1.739              1.635
 Vibration     5          0.674              1.728              1.596
 Vibration     6          0.792              1.403              0.856
 Vibration     7          0.793              1.401              0.854

                           ! Non-Optimized Parameters !
 Normal termination of Gaussian 16 at Tue Mar  1 05:48:39 2022.

 ------------------------------------------
 #p b3lyp/6-31G(d) geom=allcheck guess=read
 ------------------------------------------

 Structure from the checkpoint file:  "181.n.pdb.xyz.mst.wat.chk"
 -------------
 181.n.pdb.xyz
 -------------
 Charge =  0 Multiplicity = 1

 SCF Done:  E(RB3LYP) =  -233.663335620     A.U. after    8 cycles
 Normal termination of Gaussian 16 at Tue Mar  1 05:48:50 2022.
 Gaussian 16:  ES64L-G16RevA.03 25-Dec-2016

 ----------------------------------------------------------------------
 #p b3lyp/6-31G(d) scrf=(iefpcm,read,solvent=water) geom=allcheck guess
 =read
 ----------------------------------------------------------------------

 Structure from the checkpoint file:  "181.n.pdb.xyz.mst.wat.chk"
 -------------
 181.n.pdb.xyz
 -------------
 Charge =  0 Multiplicity = 1

                         Standard orientation:
 ---------------------------------------------------------------------
 Center     Atomic      Atomic             Coordinates (Angstroms)
 Number     Number       Type             X           Y           Z
 ---------------------------------------------------------------------
      1          6           0        2.386700   -0.404770   -0.000643
      2          6           0        1.180692    0.516245   -0.000020
      3          8           0        0.000046   -0.275406    0.001974
      4          6           0       -1.180536    0.516128   -0.000033
      5          6           0       -2.386969   -0.404759   -0.000651
      6          1           0        2.383290   -1.045365   -0.887329
      7          1           0        3.310387    0.180831   -0.002860
      8          1           0        2.386302   -1.044376    0.887673
      9          1           0        1.188992    1.169811   -0.886037
     10          1           0        1.191209    1.171833    0.884610
     11          1           0       -1.191068    1.171760    0.884584
     12          1           0       -1.188677    1.169884   -0.885909
     13          1           0       -3.310751    0.181099   -0.002320
     14          1           0       -2.385782   -1.043843    0.887199
     15          1           0       -2.383593   -1.045456   -0.887326
 ---------------------------------------------------------------------

 SCF Done:  E(RB3LYP) =  -233.665434091     A.U. after    9 cycles

 The electronic state is 1-A.
 Alpha  occ. eigenvalues --  -19.14418 -10.22603 -10.22601 -10.17357 -10.17354
 Alpha  occ. eigenvalues --   -1.02684  -0.77152  -0.72271  -0.61566  -0.60016
 Alpha  occ. eigenvalues --   -0.49007  -0.48392  -0.43818  -0.42746  -0.39344
 Alpha  occ. eigenvalues --   -0.37252  -0.37134  -0.34985  -0.34075  -0.31700
 Alpha  occ. eigenvalues --   -0.25335
 Alpha virt. eigenvalues --    0.09532   0.11728   0.13213   0.14538   0.15313
 Alpha virt. eigenvalues --    0.17286   0.17392   0.19457   0.19643   0.20217
 Alpha virt. eigenvalues --    0.20351   0.21839   0.24156   0.27693   0.50235

 Mulliken charges:
               1
     1  C   -0.464734
     2  C   -0.008218
     3  O   -0.503531
     4  C   -0.008253
     5  C   -0.464773
     6  H    0.155474
     7  H    0.155900
     8  H    0.155175
     9  H    0.129126
    10  H    0.129085
    11  H    0.129029
    12  H    0.129067
    13  H    0.155862
    14  H    0.155322
    15  H    0.155469
 Sum of Mulliken charges =  -0.00000

 Dipole moment (field-independent basis, Debye):
    X=              0.0008    Y=              1.4910    Z=             -0.0081  Tot=              1.4910
 Quadrupole moment (field-independent basis, Debye-Ang):
   XX=            -29.3561   YY=            -33.0852   ZZ=            -32.6347
   XY=              0.0007   XZ=             -0.0014   YZ=              0.0027

 Normal termination of Gaussian 16 at Tue Mar  1 05:49:08 2022.
