 Gaussian 16, Revision A.03,

 ----------------------------------------------------------------------
 #p b3lyp/6-31G(d) opt=(MaxStep=10,MaxCycles=1000) freq scf=(MaxCycle=2
 000,NoVarAcc,NoIncFock) scrf=(iefpcm,read,solvent=water)
 ----------------------------------------------------------------------

 -------------
 182.n.pdb.xyz
 -------------
 Symbolic Z-matrix:
 Charge =  0 Multiplicity = 1

 SCF Done:  E(RB3LYP) =  -231.200433387     A.U. after   11 cycles
 SCF Done:  E(RB3LYP) =  -231.200702344     A.U. after    9 cycles
 SCF Done:  E(RB3LYP) =  -231.200771634     A.U. after    8 cycles
 SCF Done:  E(RB3LYP) =  -231.200775869     A.U. after    8 cycles
 SCF Done:  E(RB3LYP) =  -231.200773778     A.U. after    8 cycles
 SCF Done:  E(RB3LYP) =  -231.200772732     A.U. after    7 cycles
 SCF Done:  E(RB3LYP) =  -231.200775713     A.U. after    8 cycles
 SCF Done:  E(RB3LYP) =  -231.200773920     A.U. after    8 cycles
 Optimization completed.
    -- Stationary point found.
 Normal termination of Gaussian 16 at Tue Mar  1 15:29:33 2022.

 --------------------------------------------------------------------
 #P Geom=AllCheck Guess=TCheck SCRF=Check GenChk RB3LYP/6-31G(d) Freq
 --------------------------------------------------------------------

 Structure from the checkpoint file:  "182.n.pdb.xyz.mst.wat.chk"
 -------------
 182.n.pdb.xyz
 -------------
 Charge =  0 Multiplicity = 1

 SCF Done:  E(RB3LYP) =  -231.200773920     A.U. after    1 cycles

  Exact polarizability: 107.123  -0.001  53.514   0.001   0.001  21.856
 Approx polarizability: 111.349  -0.002  58.138   0.001   0.001  25.288

                      1                      2                      3
                      A                      A                      A
 Frequencies --     73.9057                92.7336               237.5240
 Red. masses --      1.6840                 5.4261                 2.7024
 Frc consts  --      0.0054                 0.0275                 0.0898
 IR Inten    --      0.0245                 2.0525                 0.0442

                      4                      5                      6
                      A                      A                      A
 Frequencies --    490.4401               525.7882               695.3161
 Red. masses --      2.1894                 3.8248                 1.4907
 Frc consts  --      0.3103                 0.6230                 0.4246
 IR Inten    --     12.3244                 0.9789                 4.2767

                      7                      8                      9
                      A                      A                      A
 Frequencies --    723.7930               848.8341               853.4218
 Red. masses --      1.4701                 1.3975                 1.3729
 Frc consts  --      0.4537                 0.5933                 0.5891
 IR Inten    --      0.0007                39.4366               117.1982

                     10                     11                     12
                      A                      A                      A
 Frequencies --    868.4381               973.4633               990.6436
 Red. masses --      1.8118                 1.1089                 1.1270
 Frc consts  --      0.8051                 0.6191                 0.6516
 IR Inten    --      4.4084                 0.3629                46.1900

                     13                     14                     15
                      A                      A                      A
 Frequencies --   1038.2713              1207.0752              1209.9162
 Red. masses --      1.6940                 4.8016                 3.0523
 Frc consts  --      1.0760                 4.1219                 2.6326
 IR Inten    --     10.2502               794.6387                33.8221

                     16                     17                     18
                      A                      A                      A
 Frequencies --   1345.4268              1382.2961              1435.0412
 Red. masses --      1.1566                 1.1672                 1.2198
 Frc consts  --      1.2336                 1.3140                 1.4800
 IR Inten    --     22.5773                 7.4784               101.4085

                     19                     20                     21
                      A                      A                      A
 Frequencies --   1458.9261              1696.1383              1753.4441
 Red. masses --      1.1717                 4.2686                 4.5832
 Frc consts  --      1.4694                 7.2354                 8.3024
 IR Inten    --      0.1123               645.7799                10.4142

                     22                     23                     24
                      A                      A                      A
 Frequencies --   3185.3582              3192.4547              3204.3320
 Red. masses --      1.0806                 1.0695                 1.0737
 Frc consts  --      6.4599                 6.4220                 6.4952
 IR Inten    --     13.3779                25.0896                 0.1423

                     25                     26                     27
                      A                      A                      A
 Frequencies --   3206.8230              3292.2663              3292.5684
 Red. masses --      1.0837                 1.1177                 1.1176
 Frc consts  --      6.5663                 7.1378                 7.1385
 IR Inten    --      5.3938                 9.9418                 4.4717

 - Thermochemistry -
 -------------------
 Temperature   298.150 Kelvin.  Pressure   1.00000 Atm.
 Atom     1 has atomic number  6 and mass  12.00000

 Molecular mass:    70.04186 amu.
 Principal axes and moments of inertia in atomic units:
                           1         2         3
     Eigenvalues --    51.82907 721.84829 773.67736
           X            1.00000   0.00000  -0.00000
           Y           -0.00000   1.00000   0.00001
           Z            0.00000  -0.00001   1.00000
 This molecule is an asymmetric top.
 Rotational symmetry number  1.
 Rotational temperatures (Kelvin)      1.67115     0.11999     0.11195
 Rotational constants (GHZ):          34.82102     2.50017     2.33268
 Zero-point vibrational energy     234914.5 (Joules/Mol)
                                   56.14592 (Kcal/Mol)
 Warning -- explicit consideration of   5 degrees of freedom as
           vibrations may cause significant error
 Vibrational temperatures:    106.33   133.42   341.74   705.63   756.49
          (Kelvin)           1000.40  1041.38  1221.28  1227.88  1249.49
                             1400.60  1425.32  1493.84  1736.71  1740.80
                             1935.77  1988.82  2064.70  2099.07  2440.36
                             2522.81  4583.02  4593.23  4610.32  4613.90
                             4736.84  4737.27

 Zero-point correction=                           0.089474 (Hartree/Particle)
 Thermal correction to Energy=                    0.095368
 Thermal correction to Enthalpy=                  0.096312
 Thermal correction to Gibbs Free Energy=         0.060292
 Sum of electronic and zero-point Energies=           -231.111300
 Sum of electronic and thermal Energies=              -231.105406
 Sum of electronic and thermal Enthalpies=            -231.104462
 Sum of electronic and thermal Free Energies=         -231.140481

                     E (Thermal)             CV                S
                      KCal/Mol        Cal/Mol-Kelvin    Cal/Mol-Kelvin
 Total                   59.844             19.455             75.809
 Electronic               0.000              0.000              0.000
 Translational            0.889              2.981             38.657
 Rotational               0.889              2.981             24.874
 Vibrational             58.067             13.494             12.278
 Vibration     1          0.599              1.966              4.047
 Vibration     2          0.602              1.954              3.602
 Vibration     3          0.656              1.783              1.821
 Vibration     4          0.846              1.271              0.682
 Vibration     5          0.881              1.193              0.597

 Optimization completed.
    -- Stationary point found.
 Normal termination of Gaussian 16 at Tue Mar  1 15:30:43 2022.

 ------------------------------------------
 #p b3lyp/6-31G(d) geom=allcheck guess=read
 ------------------------------------------

 Structure from the checkpoint file:  "182.n.pdb.xyz.mst.wat.chk"
 -------------
 182.n.pdb.xyz
 -------------
 Charge =  0 Multiplicity = 1

 SCF Done:  E(RB3LYP) =  -231.196322164     A.U. after    9 cycles
 Normal termination of Gaussian 16 at Tue Mar  1 15:30:51 2022.
 Gaussian 16:  ES64L-G16RevA.03 25-Dec-2016

 ----------------------------------------------------------------------
 #p b3lyp/6-31G(d) scrf=(iefpcm,read,solvent=water) geom=allcheck guess
 =read
 ----------------------------------------------------------------------

 Structure from the checkpoint file:  "182.n.pdb.xyz.mst.wat.chk"
 -------------
 182.n.pdb.xyz
 -------------
 Charge =  0 Multiplicity = 1

                         Standard orientation:
 ---------------------------------------------------------------------
 Center     Atomic      Atomic             Coordinates (Angstroms)
 Number     Number       Type             X           Y           Z
 ---------------------------------------------------------------------
      1          6           0        2.356136   -0.237787   -0.000071
      2          6           0        1.175341    0.376192   -0.000024
      3          8           0        0.000049   -0.330040    0.000177
      4          6           0       -1.175314    0.375982    0.000039
      5          6           0       -2.356280   -0.237635   -0.000107
      6          1           0        3.264188    0.350866   -0.000195
      7          1           0        2.439377   -1.318688    0.000019
      8          1           0        1.061746    1.457880   -0.000118
      9          1           0       -1.061029    1.456794    0.000157
     10          1           0       -3.264092    0.351456   -0.000109
     11          1           0       -2.439889   -1.318499   -0.000191
 ---------------------------------------------------------------------

 SCF Done:  E(RB3LYP) =  -231.200686797     A.U. after    9 cycles

 The electronic state is 1-A.
 Alpha  occ. eigenvalues --  -19.20108 -10.24909 -10.24902 -10.17621 -10.17621
 Alpha  occ. eigenvalues --   -1.08761  -0.79256  -0.73388  -0.61189  -0.58970
 Alpha  occ. eigenvalues --   -0.52005  -0.47267  -0.43292  -0.41808  -0.41738
 Alpha  occ. eigenvalues --   -0.38578  -0.35149  -0.28349  -0.22024
 Alpha virt. eigenvalues --    0.01667   0.03884   0.09880   0.13527   0.14559
 Alpha virt. eigenvalues --    0.15081   0.16712   0.19966   0.23692   0.32468
 Alpha virt. eigenvalues --    0.35134   0.35512   0.47223   0.50588   0.55317

 Mulliken charges:
               1
     1  C   -0.436706
     2  C    0.164342
     3  O   -0.455150
     4  C    0.164528
     5  C   -0.436741
     6  H    0.166925
     7  H    0.160567
     8  H    0.172436
     9  H    0.172294
    10  H    0.166939
    11  H    0.160566
 Sum of Mulliken charges =  -0.00000

 Dipole moment (field-independent basis, Debye):
    X=              0.0004    Y=              1.8029    Z=             -0.0002  Tot=              1.8029
 Quadrupole moment (field-independent basis, Debye-Ang):
   XX=            -26.9222   YY=            -26.8155   ZZ=            -33.2136
   XY=              0.0013   XZ=             -0.0002   YZ=              0.0001

 Normal termination of Gaussian 16 at Tue Mar  1 15:31:03 2022.
