 Gaussian 16, Revision A.03,

 ----------------------------------------------------------------------
 #p b3lyp/6-31G(d) opt=(MaxStep=10,MaxCycles=1000) freq scf=(MaxCycle=2
 000,NoVarAcc,NoIncFock) scrf=(iefpcm,read,solvent=water)
 ----------------------------------------------------------------------

 -------------
 184.n.pdb.xyz
 -------------
 Symbolic Z-matrix:
 Charge =  0 Multiplicity = 1

 SCF Done:  E(RB3LYP) =  -837.625093637     A.U. after   13 cycles
 SCF Done:  E(RB3LYP) =  -837.628172781     A.U. after   11 cycles
 SCF Done:  E(RB3LYP) =  -837.624775948     A.U. after   12 cycles
 SCF Done:  E(RB3LYP) =  -837.629727421     A.U. after   12 cycles
 SCF Done:  E(RB3LYP) =  -837.630032475     A.U. after   12 cycles
 SCF Done:  E(RB3LYP) =  -837.630262120     A.U. after   11 cycles
 SCF Done:  E(RB3LYP) =  -837.630274053     A.U. after   10 cycles
 SCF Done:  E(RB3LYP) =  -837.630263750     A.U. after   10 cycles
 SCF Done:  E(RB3LYP) =  -837.630246156     A.U. after   10 cycles
 SCF Done:  E(RB3LYP) =  -837.630278379     A.U. after   10 cycles
 SCF Done:  E(RB3LYP) =  -837.630244349     A.U. after    9 cycles
 SCF Done:  E(RB3LYP) =  -837.630277929     A.U. after   11 cycles
 SCF Done:  E(RB3LYP) =  -837.630177751     A.U. after   12 cycles
 SCF Done:  E(RB3LYP) =  -837.630190613     A.U. after   10 cycles
 SCF Done:  E(RB3LYP) =  -837.630277747     A.U. after   12 cycles
 SCF Done:  E(RB3LYP) =  -837.630277921     A.U. after    7 cycles
 SCF Done:  E(RB3LYP) =  -837.630277971     A.U. after    7 cycles
 Optimization completed.
    -- Stationary point found.
 Normal termination of Gaussian 16 at Tue Mar  1 20:42:56 2022.

 --------------------------------------------------------------------
 #P Geom=AllCheck Guess=TCheck SCRF=Check GenChk RB3LYP/6-31G(d) Freq
 --------------------------------------------------------------------

 Structure from the checkpoint file:  "184.n.pdb.xyz.mst.wat.chk"
 -------------
 184.n.pdb.xyz
 -------------
 Charge =  0 Multiplicity = 1

 SCF Done:  E(RB3LYP) =  -837.630277971     A.U. after    1 cycles

  Exact polarizability: 158.030  -4.303 183.058 -21.979  -1.728  96.957
 Approx polarizability: 184.320  -2.929 221.461 -32.935  -3.368 115.443

                      1                      2                      3
                      A                      A                      A
 Frequencies --     23.0267                42.7939                50.0907
 Red. masses --      8.7751                 8.9300                 3.4799
 Frc consts  --      0.0027                 0.0096                 0.0051
 IR Inten    --      5.2246                 3.4892                 7.0172

                      4                      5                      6
                      A                      A                      A
 Frequencies --     59.9716                73.1779                96.9826
 Red. masses --      6.7736                 5.2540                 4.1084
 Frc consts  --      0.0144                 0.0166                 0.0228
 IR Inten    --      2.0948                 5.6048                 4.1437

                      7                      8                      9
                      A                      A                      A
 Frequencies --    127.8520               138.5580               186.9589
 Red. masses --      3.6586                 4.9706                 5.4994
 Frc consts  --      0.0352                 0.0562                 0.1133
 IR Inten    --      5.9400                12.5370                 4.4671

                     10                     11                     12
                      A                      A                      A
 Frequencies --    236.4214               257.5305               284.3122
 Red. masses --      5.2085                 5.9784                 1.5287
 Frc consts  --      0.1715                 0.2336                 0.0728
 IR Inten    --     23.4921                 5.7144               118.4906

                     13                     14                     15
                      A                      A                      A
 Frequencies --    294.0873               327.1421               381.8768
 Red. masses --      5.3933                 3.0932                 2.7881
 Frc consts  --      0.2748                 0.1950                 0.2396
 IR Inten    --     15.0849                51.0490                27.8419

                     16                     17                     18
                      A                      A                      A
 Frequencies --    453.8923               486.0202               521.5994
 Red. masses --      6.4526                 2.5998                 4.7907
 Frc consts  --      0.7832                 0.3618                 0.7679
 IR Inten    --      9.8082                12.1179                13.0561

                     19                     20                     21
                      A                      A                      A
 Frequencies --    572.0054               572.3568               646.0495
 Red. masses --      3.7323                 5.9063                 3.4976
 Frc consts  --      0.7195                 1.1400                 0.8601
 IR Inten    --      8.6126                 7.4885                21.0630

                     22                     23                     24
                      A                      A                      A
 Frequencies --    662.1728               749.7979               752.9498
 Red. masses --      7.8641                 9.1838                 5.4920
 Frc consts  --      2.0316                 3.0420                 1.8345
 IR Inten    --     24.3675                 2.9092                30.5278

                     25                     26                     27
                      A                      A                      A
 Frequencies --    794.7782               844.4324               880.0169
 Red. masses --      1.3178                11.5728                 1.4405
 Frc consts  --      0.4905                 4.8620                 0.6573
 IR Inten    --     44.5706                82.5707                 1.3317

                     28                     29                     30
                      A                      A                      A
 Frequencies --    891.9669               924.1121               939.5654
 Red. masses --      2.7002                 2.8729                 2.4949
 Frc consts  --      1.2658                 1.4455                 1.2977
 IR Inten    --     39.4228                10.5872                 5.8566

                     31                     32                     33
                      A                      A                      A
 Frequencies --   1019.8892              1069.3438              1093.8677
 Red. masses --      3.4314                 3.2988                 1.8221
 Frc consts  --      2.1029                 2.2225                 1.2845
 IR Inten    --     95.0404                49.8963                32.4050

                     34                     35                     36
                      A                      A                      A
 Frequencies --   1101.7247              1110.6677              1133.1261
 Red. masses --      4.4410                 2.2508                 3.5713
 Frc consts  --      3.1760                 1.6359                 2.7017
 IR Inten    --    285.3379               128.3267                68.2712

                     37                     38                     39
                      A                      A                      A
 Frequencies --   1165.0288              1171.5721              1181.2520
 Red. masses --      2.2619                 4.8882                 1.7648
 Frc consts  --      1.8088                 3.9531                 1.4509
 IR Inten    --    105.3534               199.6884                21.6767

                     40                     41                     42
                      A                      A                      A
 Frequencies --   1205.4755              1236.0208              1262.0760
 Red. masses --      2.3888                 1.6974                 1.0518
 Frc consts  --      2.0452                 1.5279                 0.9871
 IR Inten    --    161.7744                81.8008                 2.2114

                     43                     44                     45
                      A                      A                      A
 Frequencies --   1285.6994              1298.8175              1328.5697
 Red. masses --      1.1579                 1.6330                 2.2524
 Frc consts  --      1.1277                 1.6230                 2.3424
 IR Inten    --     29.3966               188.0587                69.2152

                     46                     47                     48
                      A                      A                      A
 Frequencies --   1342.4343              1378.9304              1401.8826
 Red. masses --      1.2519                 3.5432                 4.3902
 Frc consts  --      1.3293                 3.9695                 5.0835
 IR Inten    --     82.4720               312.2194               548.4706

                     49                     50                     51
                      A                      A                      A
 Frequencies --   1410.7902              1432.7643              1456.1546
 Red. masses --      1.3846                 1.3696                 2.3444
 Frc consts  --      1.6236                 1.6566                 2.9289
 IR Inten    --     19.2930                29.4393                33.3537

                     52                     53                     54
                      A                      A                      A
 Frequencies --   1460.4898              1490.0173              1494.9783
 Red. masses --      1.7495                 1.2860                 1.2802
 Frc consts  --      2.1987                 1.6822                 1.6858
 IR Inten    --     20.2945                39.2962                22.7240

                     55                     56                     57
                      A                      A                      A
 Frequencies --   1522.6579              1539.9314              1543.8507
 Red. masses --      3.9963                 1.1225                 3.6547
 Frc consts  --      5.4590                 1.5683                 5.1323
 IR Inten    --    350.8063                 3.0371                36.9908

                     58                     59                     60
                      A                      A                      A
 Frequencies --   1571.1866              1591.2034              3025.4687
 Red. masses --      1.0910                 9.1385                 1.0526
 Frc consts  --      1.5868                13.6326                 5.6767
 IR Inten    --      2.5231               265.6851                17.7493

                     61                     62                     63
                      A                      A                      A
 Frequencies --   3032.3149              3052.9229              3070.9271
 Red. masses --      1.0518                 1.0867                 1.1063
 Frc consts  --      5.6980                 5.9673                 6.1467
 IR Inten    --    118.8207                13.2187               200.1645

                     64                     65                     66
                      A                      A                      A
 Frequencies --   3080.1620              3137.8612              3214.6838
 Red. masses --      1.1148                 1.0645                 1.1022
 Frc consts  --      6.2314                 6.1756                 6.7113
 IR Inten    --     31.6335                25.3852                 1.7171

                     67                     68                     69
                      A                      A                      A
 Frequencies --   3291.2107              3322.1216              3700.1840
 Red. masses --      1.0945                 1.1026                 1.0659
 Frc consts  --      6.9854                 7.1699                 8.5980
 IR Inten    --      7.7591                 1.2318               109.7850

 - Thermochemistry -
 -------------------
 Temperature   298.150 Kelvin.  Pressure   1.00000 Atm.
 Atom     1 has atomic number  8 and mass  15.99491

 Molecular mass:   219.06553 amu.
 Principal axes and moments of inertia in atomic units:
                           1         2         3
     Eigenvalues --  1484.134756823.115297790.34072
           X            0.99991  -0.00944  -0.00979
           Y            0.00948   0.99995   0.00410
           Z            0.00975  -0.00419   0.99994
 This molecule is an asymmetric top.
 Rotational symmetry number  1.
 Warning -- assumption of classical behavior for rotation
           may cause significant error
 Rotational temperatures (Kelvin)      0.05836     0.01269     0.01112
 Rotational constants (GHZ):           1.21602     0.26450     0.23166
 Zero-point vibrational energy     499445.4 (Joules/Mol)
                                  119.37033 (Kcal/Mol)
 Warning -- explicit consideration of  20 degrees of freedom as
           vibrations may cause significant error
 Vibrational temperatures:     33.13    61.57    72.07    86.29   105.29
          (Kelvin)            139.54   183.95   199.35   268.99   340.16
                              370.53   409.06   423.13   470.68   549.44
                              653.05   699.27   750.47   822.99   823.49
                              929.52   952.72  1078.79  1083.33  1143.51
                             1214.95  1266.15  1283.34  1329.59  1351.83
                             1467.39  1538.55  1573.83  1585.14  1598.00
                             1630.32  1676.22  1685.63  1699.56  1734.41
                             1778.36  1815.85  1849.83  1868.71  1911.52
                             1931.46  1983.97  2017.00  2029.81  2061.43
                             2095.08  2101.32  2143.80  2150.94  2190.77
                             2215.62  2221.26  2260.59  2289.39  4352.97
                             4362.82  4392.48  4418.38  4431.67  4514.68
                             4625.21  4735.32  4779.79  5323.74

 Zero-point correction=                           0.190229 (Hartree/Particle)
 Thermal correction to Energy=                    0.204708
 Thermal correction to Enthalpy=                  0.205652
 Thermal correction to Gibbs Free Energy=         0.145732
 Sum of electronic and zero-point Energies=           -837.440049
 Sum of electronic and thermal Energies=              -837.425570
 Sum of electronic and thermal Enthalpies=            -837.424626
 Sum of electronic and thermal Free Energies=         -837.484546

                     E (Thermal)             CV                S
                      KCal/Mol        Cal/Mol-Kelvin    Cal/Mol-Kelvin
 Total                  128.456             50.662            126.114
 Electronic               0.000              0.000              0.000
 Translational            0.889              2.981             42.056
 Rotational               0.889              2.981             32.734
 Vibrational            126.679             44.700             51.325
 Vibration     1          0.593              1.985              6.354
 Vibration     2          0.595              1.980              5.125
 Vibration     3          0.595              1.978              4.814
 Vibration     4          0.597              1.973              4.458
 Vibration     5          0.599              1.967              4.066
 Vibration     6          0.603              1.951              3.514
 Vibration     7          0.611              1.925              2.978
 Vibration     8          0.614              1.915              2.824
 Vibration     9          0.632              1.858              2.258
 Vibration    10          0.655              1.785              1.830
 Vibration    11          0.667              1.750              1.678
 Vibration    12          0.683              1.703              1.508
 Vibration    13          0.689              1.685              1.450
 Vibration    14          0.711              1.621              1.274
 Vibration    15          0.751              1.509              1.032
 Vibration    16          0.812              1.352              0.784
 Vibration    17          0.842              1.281              0.694
 Vibration    18          0.877              1.202              0.606
 Vibration    19          0.928              1.092              0.500
 Vibration    20          0.929              1.091              0.500

                           ! Non-Optimized Parameters !
 Normal termination of Gaussian 16 at Tue Mar  1 20:59:22 2022.

 ------------------------------------------
 #p b3lyp/6-31G(d) geom=allcheck guess=read
 ------------------------------------------

 Structure from the checkpoint file:  "184.n.pdb.xyz.mst.wat.chk"
 -------------
 184.n.pdb.xyz
 -------------
 Charge =  0 Multiplicity = 1

 SCF Done:  E(RB3LYP) =  -837.608363728     A.U. after   12 cycles
 Normal termination of Gaussian 16 at Tue Mar  1 21:00:54 2022.
 Gaussian 16:  ES64L-G16RevA.03 25-Dec-2016

 ----------------------------------------------------------------------
 #p b3lyp/6-31G(d) scrf=(iefpcm,read,solvent=water) geom=allcheck guess
 =read
 ----------------------------------------------------------------------

 Structure from the checkpoint file:  "184.n.pdb.xyz.mst.wat.chk"
 -------------
 184.n.pdb.xyz
 -------------
 Charge =  0 Multiplicity = 1

                         Standard orientation:
 ---------------------------------------------------------------------
 Center     Atomic      Atomic             Coordinates (Angstroms)
 Number     Number       Type             X           Y           Z
 ---------------------------------------------------------------------
      1          8           0       -0.987334   -1.514555   -0.630424
      2          6           0       -0.881917   -0.277578    0.058161
      3          6           0       -2.196232    0.075247    0.751663
      4          8           0       -3.179781    0.189560   -0.274108
      5          6           0       -4.474333    0.320915    0.231030
      6          9           0       -5.319111    0.281505   -0.851136
      7          6           0        0.237758   -0.423702    1.088208
      8          7           0        1.535919   -0.695146    0.456190
      9          6           0        2.039830   -1.946736    0.261705
     10          6           0        3.264184   -1.790852   -0.366326
     11          7           0        3.529441   -0.473555   -0.561660
     12          6           0        2.477355    0.157036   -0.066425
     13          7           0        2.356603    1.577854   -0.079999
     14          8           0        3.311218    2.231311   -0.505274
     15          8           0        1.301306    2.082907    0.331921
     16          1           0       -1.712693   -1.420576   -1.273959
     17          1           0       -0.628550    0.534882   -0.635032
     18          1           0       -2.106703    1.018301    1.308309
     19          1           0       -2.478517   -0.721202    1.453662
     20          1           0       -4.609733    1.282243    0.743288
     21          1           0       -4.720910   -0.511226    0.902865
     22          1           0        0.032884   -1.272716    1.741204
     23          1           0        0.328299    0.477976    1.687239
     24          1           0        1.499089   -2.822175    0.582392
     25          1           0        3.951951   -2.562891   -0.676471
 ---------------------------------------------------------------------

 SCF Done:  E(RB3LYP) =  -837.628614058     A.U. after   12 cycles

 The electronic state is 1-A.
 Alpha  occ. eigenvalues --  -24.69132 -19.19192 -19.19106 -19.17282 -19.15229
 Alpha  occ. eigenvalues --  -14.58785 -14.43165 -14.35346 -10.31105 -10.30233
 Alpha  occ. eigenvalues --  -10.25250 -10.24554 -10.24497 -10.24314 -10.22681
 Alpha  occ. eigenvalues --   -1.23614  -1.20717  -1.06154  -1.05912  -1.05401
 Alpha  occ. eigenvalues --   -1.02389  -0.92198  -0.82513  -0.79421  -0.73700
 Alpha  occ. eigenvalues --   -0.70613  -0.66710  -0.63137  -0.62057  -0.58523
 Alpha  occ. eigenvalues --   -0.56151  -0.54749  -0.53928  -0.52370  -0.52308
 Alpha  occ. eigenvalues --   -0.52033  -0.50828  -0.50175  -0.47342  -0.45798
 Alpha  occ. eigenvalues --   -0.45473  -0.44861  -0.41804  -0.41215  -0.40778
 Alpha  occ. eigenvalues --   -0.38730  -0.36351  -0.35677  -0.34640  -0.32544
 Alpha  occ. eigenvalues --   -0.32195  -0.31641  -0.30293  -0.29887  -0.28056
 Alpha  occ. eigenvalues --   -0.27736  -0.25748
 Alpha virt. eigenvalues --   -0.09808   0.02266   0.05002   0.08422   0.09841
 Alpha virt. eigenvalues --    0.10230   0.11205   0.11976   0.13016   0.14375
 Alpha virt. eigenvalues --    0.15456   0.15752   0.16820   0.17691   0.18447

 Mulliken charges:
               1
     1  O   -0.667925
     2  C    0.113375
     3  C   -0.043117
     4  O   -0.498443
     5  C    0.253317
     6  F   -0.315475
     7  C   -0.166877
     8  N   -0.421355
     9  C    0.055664
    10  C   -0.032058
    11  N   -0.491439
    12  C    0.702756
    13  N    0.377987
    14  O   -0.432925
    15  O   -0.445372
    16  H    0.443978
    17  H    0.158589
    18  H    0.158865
    19  H    0.156059
    20  H    0.145659
    21  H    0.144908
    22  H    0.197830
    23  H    0.211497
    24  H    0.212110
    25  H    0.182391
 Sum of Mulliken charges =  -0.00000

 Dipole moment (field-independent basis, Debye):
    X=             -4.6774    Y=             -5.1373    Z=              4.9312  Tot=              8.5198
 Quadrupole moment (field-independent basis, Debye-Ang):
   XX=           -105.2566   YY=            -87.7461   ZZ=            -80.7251
   XY=            -14.1893   XZ=             -4.0137   YZ=              0.8306

 Normal termination of Gaussian 16 at Tue Mar  1 21:02:45 2022.
