 Gaussian 16, Revision A.03,

 ----------------------------------------------------------------------
 #p b3lyp/6-31G(d) opt=(MaxStep=10,MaxCycles=1000) freq scf=(MaxCycle=2
 000,NoVarAcc,NoIncFock) scrf=(iefpcm,read,solvent=water)
 ----------------------------------------------------------------------

 -------------
 185.n.pdb.xyz
 -------------
 Symbolic Z-matrix:
 Charge =  0 Multiplicity = 1

 SCF Done:  E(RB3LYP) =  -723.102466402     A.U. after   13 cycles
 SCF Done:  E(RB3LYP) =  -723.105654764     A.U. after   12 cycles
 SCF Done:  E(RB3LYP) =  -723.102492699     A.U. after   12 cycles
 SCF Done:  E(RB3LYP) =  -723.107091249     A.U. after   12 cycles
 SCF Done:  E(RB3LYP) =  -723.107342400     A.U. after   11 cycles
 SCF Done:  E(RB3LYP) =  -723.107475117     A.U. after   11 cycles
 SCF Done:  E(RB3LYP) =  -723.107484545     A.U. after   10 cycles
 SCF Done:  E(RB3LYP) =  -723.107480592     A.U. after   10 cycles
 SCF Done:  E(RB3LYP) =  -723.107485905     A.U. after   10 cycles
 SCF Done:  E(RB3LYP) =  -723.107486846     A.U. after    8 cycles
 SCF Done:  E(RB3LYP) =  -723.107486440     A.U. after    9 cycles
 SCF Done:  E(RB3LYP) =  -723.107487177     A.U. after    8 cycles
 Optimization completed.
    -- Stationary point found.
 Normal termination of Gaussian 16 at Tue Mar  1 21:23:06 2022.

 --------------------------------------------------------------------
 #P Geom=AllCheck Guess=TCheck SCRF=Check GenChk RB3LYP/6-31G(d) Freq
 --------------------------------------------------------------------

 Structure from the checkpoint file:  "185.n.pdb.xyz.mst.wat.chk"
 -------------
 185.n.pdb.xyz
 -------------
 Charge =  0 Multiplicity = 1

 SCF Done:  E(RB3LYP) =  -723.107487177     A.U. after    1 cycles

  Exact polarizability: 135.652   0.407 168.014 -19.107  -2.006  78.957
 Approx polarizability: 167.641   1.537 205.366 -28.655  -3.319  93.083

                      1                      2                      3
                      A                      A                      A
 Frequencies --     36.2126                50.8582                62.6074
 Red. masses --      7.5231                 8.9430                 7.0111
 Frc consts  --      0.0058                 0.0136                 0.0162
 IR Inten    --      5.3295                 5.1033                 1.9115

                      4                      5                      6
                      A                      A                      A
 Frequencies --     94.5281               121.6199               184.3220
 Red. masses --      7.1138                 3.6245                 5.9844
 Frc consts  --      0.0375                 0.0316                 0.1198
 IR Inten    --      2.9632                 9.4989                 0.7079

                      7                      8                      9
                      A                      A                      A
 Frequencies --    217.3754               252.0809               297.3775
 Red. masses --      4.6087                 7.0053                 6.6513
 Frc consts  --      0.1283                 0.2623                 0.3466
 IR Inten    --     12.5383                 2.6455                 4.8097

                     10                     11                     12
                      A                      A                      A
 Frequencies --    312.8975               329.1817               378.4913
 Red. masses --      1.9281                 1.9893                 2.6197
 Frc consts  --      0.1112                 0.1270                 0.2211
 IR Inten    --     96.5576                87.8302                29.3106

                     13                     14                     15
                      A                      A                      A
 Frequencies --    460.0044               479.2765               546.5973
 Red. masses --      8.1594                 2.1719                 3.4635
 Frc consts  --      1.0173                 0.2939                 0.6097
 IR Inten    --      4.1534                16.2499                28.2533

                     16                     17                     18
                      A                      A                      A
 Frequencies --    564.0448               646.2429               662.4929
 Red. masses --      5.5201                 3.5814                 7.8559
 Frc consts  --      1.0347                 0.8812                 2.0315
 IR Inten    --      2.9137                20.2131                24.7751

                     19                     20                     21
                      A                      A                      A
 Frequencies --    747.8301               751.7307               798.6535
 Red. masses --      5.6241                10.6405                 1.2896
 Frc consts  --      1.8531                 3.5427                 0.4847
 IR Inten    --     31.5437                 4.5261                47.0133

                     22                     23                     24
                      A                      A                      A
 Frequencies --    844.1609               881.9787               891.9037
 Red. masses --     11.6765                 1.4557                 2.6770
 Frc consts  --      4.9025                 0.6672                 1.2547
 IR Inten    --     81.8538                 2.1722                49.5336

                     25                     26                     27
                      A                      A                      A
 Frequencies --    918.6836               935.2980              1024.8244
 Red. masses --      2.1703                 3.6787                 3.0943
 Frc consts  --      1.0792                 1.8960                 1.9148
 IR Inten    --     16.5949                 6.9766               111.6132

                     28                     29                     30
                      A                      A                      A
 Frequencies --   1058.9902              1096.8855              1117.4252
 Red. masses --      3.8440                 1.6394                 1.9819
 Frc consts  --      2.5399                 1.1622                 1.4580
 IR Inten    --    104.0242                 6.3232                24.7586

                     31                     32                     33
                      A                      A                      A
 Frequencies --   1139.0287              1168.4561              1205.1487
 Red. masses --      3.4697                 2.6128                 2.3540
 Frc consts  --      2.6522                 2.1018                 2.0143
 IR Inten    --     32.9142                90.2562               153.0603

                     34                     35                     36
                      A                      A                      A
 Frequencies --   1232.6289              1277.2535              1294.2348
 Red. masses --      1.7010                 1.1124                 1.6804
 Frc consts  --      1.5227                 1.0692                 1.6584
 IR Inten    --    100.1680                17.4860               156.1358

                     37                     38                     39
                      A                      A                      A
 Frequencies --   1328.3665              1336.0286              1379.8043
 Red. masses --      2.3089                 1.2628                 3.6627
 Frc consts  --      2.4004                 1.3281                 4.1085
 IR Inten    --     64.7226                81.7149               326.1451

                     40                     41                     42
                      A                      A                      A
 Frequencies --   1402.8577              1413.7306              1438.4277
 Red. masses --      5.5735                 1.3244                 1.4233
 Frc consts  --      6.4626                 1.5596                 1.7350
 IR Inten    --    552.3738                 7.0315                16.9869

                     43                     44                     45
                      A                      A                      A
 Frequencies --   1457.3433              1461.6364              1488.5655
 Red. masses --      2.6766                 1.6058                 1.2238
 Frc consts  --      3.3494                 2.0212                 1.5977
 IR Inten    --      5.6446                30.2216                21.3099

                     46                     47                     48
                      A                      A                      A
 Frequencies --   1522.2601              1530.5395              1543.9093
 Red. masses --      4.3284                 1.0924                 4.0713
 Frc consts  --      5.9096                 1.5078                 5.7178
 IR Inten    --    352.2230                 5.9462                23.7454

                     49                     50                     51
                      A                      A                      A
 Frequencies --   1591.3444              3062.4101              3087.0585
 Red. masses --      9.4840                 1.0838                 1.0560
 Frc consts  --     14.1504                 5.9888                 5.9291
 IR Inten    --    270.4655                35.0373                45.0284

                     52                     53                     54
                      A                      A                      A
 Frequencies --   3134.4864              3145.2001              3216.1455
 Red. masses --      1.0660                 1.1107                 1.1011
 Frc consts  --      6.1709                 6.4733                 6.7106
 IR Inten    --     23.6418                60.6910                 1.5555

                     55                     56                     57
                      A                      A                      A
 Frequencies --   3289.9326              3323.2434              3719.6754
 Red. masses --      1.0948                 1.1024                 1.0658
 Frc consts  --      6.9815                 7.1731                 8.6885
 IR Inten    --      7.8070                 1.1492               110.0900

 - Thermochemistry -
 -------------------
 Temperature   298.150 Kelvin.  Pressure   1.00000 Atm.
 Atom     1 has atomic number  8 and mass  15.99491

 Molecular mass:   189.05497 amu.
 Principal axes and moments of inertia in atomic units:
                           1         2         3
     Eigenvalues --  1375.897643487.400474491.70103
           X            0.99989  -0.01191  -0.00918
           Y            0.01196   0.99992   0.00448
           Z            0.00913  -0.00459   0.99995
 This molecule is an asymmetric top.
 Rotational symmetry number  1.
 Warning -- assumption of classical behavior for rotation
           may cause significant error
 Rotational temperatures (Kelvin)      0.06295     0.02484     0.01928
 Rotational constants (GHZ):           1.31168     0.51750     0.40179
 Zero-point vibrational energy     412438.3 (Joules/Mol)
                                   98.57511 (Kcal/Mol)
 Warning -- explicit consideration of  16 degrees of freedom as
           vibrations may cause significant error
 Vibrational temperatures:     52.10    73.17    90.08   136.00   174.98
          (Kelvin)            265.20   312.75   362.69   427.86   450.19
                              473.62   544.56   661.84   689.57   786.43
                              811.53   929.80   953.18  1075.96  1081.57
                             1149.08  1214.56  1268.97  1283.25  1321.78
                             1345.69  1474.49  1523.65  1578.17  1607.73
                             1638.81  1681.15  1733.94  1773.48  1837.68
                             1862.12  1911.22  1922.25  1985.23  2018.40
                             2034.04  2069.58  2096.79  2102.97  2141.71
                             2190.19  2202.10  2221.34  2289.59  4406.13
                             4441.59  4509.83  4525.24  4627.32  4733.48
                             4781.41  5351.78

 Zero-point correction=                           0.157089 (Hartree/Particle)
 Thermal correction to Energy=                    0.168980
 Thermal correction to Enthalpy=                  0.169924
 Thermal correction to Gibbs Free Energy=         0.117279
 Sum of electronic and zero-point Energies=           -722.950398
 Sum of electronic and thermal Energies=              -722.938508
 Sum of electronic and thermal Enthalpies=            -722.937563
 Sum of electronic and thermal Free Energies=         -722.990208

                     E (Thermal)             CV                S
                      KCal/Mol        Cal/Mol-Kelvin    Cal/Mol-Kelvin
 Total                  106.036             42.646            110.800
 Electronic               0.000              0.000              0.000
 Translational            0.889              2.981             41.616
 Rotational               0.889              2.981             31.444
 Vibrational            104.259             36.685             37.739
 Vibration     1          0.594              1.982              5.456
 Vibration     2          0.595              1.977              4.784
 Vibration     3          0.597              1.972              4.373
 Vibration     4          0.603              1.953              3.564
 Vibration     5          0.609              1.931              3.074
 Vibration     6          0.631              1.861              2.284
 Vibration     7          0.646              1.815              1.981
 Vibration     8          0.664              1.759              1.716
 Vibration     9          0.691              1.679              1.432
 Vibration    10          0.701              1.649              1.347
 Vibration    11          0.712              1.617              1.264
 Vibration    12          0.749              1.516              1.045
 Vibration    13          0.818              1.339              0.766
 Vibration    14          0.836              1.296              0.712
 Vibration    15          0.902              1.147              0.551
 Vibration    16          0.920              1.109              0.516

 Optimization completed.
    -- Stationary point found.
 Normal termination of Gaussian 16 at Tue Mar  1 21:35:05 2022.

 ------------------------------------------
 #p b3lyp/6-31G(d) geom=allcheck guess=read
 ------------------------------------------

 Structure from the checkpoint file:  "185.n.pdb.xyz.mst.wat.chk"
 -------------
 185.n.pdb.xyz
 -------------
 Charge =  0 Multiplicity = 1

 SCF Done:  E(RB3LYP) =  -723.087418740     A.U. after   12 cycles
 Normal termination of Gaussian 16 at Tue Mar  1 21:36:20 2022.
 Gaussian 16:  ES64L-G16RevA.03 25-Dec-2016

 ----------------------------------------------------------------------
 #p b3lyp/6-31G(d) scrf=(iefpcm,read,solvent=water) geom=allcheck guess
 =read
 ----------------------------------------------------------------------

 Structure from the checkpoint file:  "185.n.pdb.xyz.mst.wat.chk"
 -------------
 185.n.pdb.xyz
 -------------
 Charge =  0 Multiplicity = 1

                         Standard orientation:
 ---------------------------------------------------------------------
 Center     Atomic      Atomic             Coordinates (Angstroms)
 Number     Number       Type             X           Y           Z
 ---------------------------------------------------------------------
      1          8           0       -1.934328   -1.324568   -0.719657
      2          6           0       -1.720277   -0.062921   -0.103291
      3          6           0       -3.022133    0.483372    0.467773
      4          9           0       -3.928266    0.615480   -0.592541
      5          6           0       -0.689031   -0.266878    1.006285
      6          7           0        0.611597   -0.693213    0.473935
      7          6           0        0.991551   -1.996076    0.344842
      8          6           0        2.264725   -1.988272   -0.199527
      9          7           0        2.679803   -0.712625   -0.409818
     10          6           0        1.670633    0.039409   -0.003243
     11          7           0        1.704020    1.463907   -0.058720
     12          8           0        0.679246    2.089537    0.252659
     13          8           0        2.753707    1.999693   -0.418683
     14          1           0       -2.566314   -1.186158   -1.446707
     15          1           0       -1.331158    0.663945   -0.827221
     16          1           0       -2.885561    1.466201    0.925973
     17          1           0       -3.455186   -0.209696    1.194536
     18          1           0       -1.020233   -1.059948    1.677634
     19          1           0       -0.544071    0.647944    1.573074
     20          1           0        0.340923   -2.799965    0.648197
     21          1           0        2.886245   -2.837224   -0.441976
 ---------------------------------------------------------------------

 SCF Done:  E(RB3LYP) =  -723.106093078     A.U. after   12 cycles

 The electronic state is 1-A.
 Alpha  occ. eigenvalues --  -24.68343 -19.19200 -19.19118 -19.15418 -14.58793
 Alpha  occ. eigenvalues --  -14.43190 -14.35350 -10.30243 -10.26119 -10.25241
 Alpha  occ. eigenvalues --  -10.24597 -10.24318 -10.22685  -1.23630  -1.18740
 Alpha  occ. eigenvalues --   -1.06140  -1.05495  -1.02840  -0.92232  -0.82522
 Alpha  occ. eigenvalues --   -0.79379  -0.72556  -0.70100  -0.63153  -0.62402
 Alpha  occ. eigenvalues --   -0.58554  -0.56084  -0.54733  -0.53870  -0.52022
 Alpha  occ. eigenvalues --   -0.50876  -0.50045  -0.48683  -0.47059  -0.45588
 Alpha  occ. eigenvalues --   -0.45461  -0.43596  -0.41185  -0.40971  -0.37289
 Alpha  occ. eigenvalues --   -0.35034  -0.34070  -0.32547  -0.32207  -0.31652
 Alpha  occ. eigenvalues --   -0.30211  -0.29877  -0.28088  -0.25738
 Alpha virt. eigenvalues --   -0.09808   0.02255   0.04980   0.08101   0.09609
 Alpha virt. eigenvalues --    0.10810   0.12672   0.12996   0.14168   0.15430
 Alpha virt. eigenvalues --    0.16203   0.17926   0.18722   0.19679   0.21596

 Mulliken charges:
               1
     1  O   -0.664920
     2  C    0.092136
     3  C    0.032695
     4  F   -0.334828
     5  C   -0.172289
     6  N   -0.419968
     7  C    0.055848
     8  C   -0.032022
     9  N   -0.491504
    10  C    0.704285
    11  N    0.378117
    12  O   -0.445624
    13  O   -0.432658
    14  H    0.443635
    15  H    0.160981
    16  H    0.160750
    17  H    0.157613
    18  H    0.199356
    19  H    0.213867
    20  H    0.212100
    21  H    0.182429
 Sum of Mulliken charges =  -0.00000

 Dipole moment (field-independent basis, Debye):
    X=             -4.8963    Y=             -4.6754    Z=              2.9538  Tot=              7.3863
 Quadrupole moment (field-independent basis, Debye-Ang):
   XX=            -89.4793   YY=            -75.1387   ZZ=            -67.7810
   XY=             -8.2699   XZ=              1.0136   YZ=              0.4533

 Normal termination of Gaussian 16 at Tue Mar  1 21:37:46 2022.
