 Gaussian 16, Revision A.03,

 ----------------------------------------------------------------------
 #p b3lyp/6-31G(d) opt=(MaxStep=10,MaxCycles=1000) freq scf=(MaxCycle=2
 000,NoVarAcc,NoIncFock) scrf=(iefpcm,read,solvent=water)
 ----------------------------------------------------------------------

 -------------
 186.n.pdb.xyz
 -------------
 Symbolic Z-matrix:
 Charge =  0 Multiplicity = 1

 SCF Done:  E(RB3LYP) =  -271.788438572     A.U. after   11 cycles
 SCF Done:  E(RB3LYP) =  -271.789584749     A.U. after    9 cycles
 SCF Done:  E(RB3LYP) =  -271.789621585     A.U. after    9 cycles
 SCF Done:  E(RB3LYP) =  -271.789521692     A.U. after    9 cycles
 SCF Done:  E(RB3LYP) =  -271.789623836     A.U. after    9 cycles
 SCF Done:  E(RB3LYP) =  -271.789627784     A.U. after    8 cycles
 Optimization completed.
    -- Stationary point found.
 Normal termination of Gaussian 16 at Wed Mar  2 00:05:30 2022.

 --------------------------------------------------------------------
 #P Geom=AllCheck Guess=TCheck SCRF=Check GenChk RB3LYP/6-31G(d) Freq
 --------------------------------------------------------------------

 Structure from the checkpoint file:  "186.n.pdb.xyz.mst.wat.chk"
 -------------
 186.n.pdb.xyz
 -------------
 Charge =  0 Multiplicity = 1

 SCF Done:  E(RB3LYP) =  -271.789627784     A.U. after    1 cycles

  Exact polarizability:  74.349   0.205  75.224  -0.001  -0.002  59.575
 Approx polarizability:  70.376  -1.621  87.048  -0.001  -0.003  64.827

                      1                      2                      3
                      A                      A                      A
 Frequencies --     47.6913               100.7343               116.7383
 Red. masses --      1.4683                 2.4752                 1.2371
 Frc consts  --      0.0020                 0.0148                 0.0099
 IR Inten    --      0.5984                 1.4923                 0.0885

                      4                      5                      6
                      A                      A                      A
 Frequencies --    176.3335               252.4854               340.3782
 Red. masses --      3.2153                 1.0780                 3.7741
 Frc consts  --      0.0589                 0.0405                 0.2576
 IR Inten    --      7.0974                 0.1170                 4.4874

                      7                      8                      9
                      A                      A                      A
 Frequencies --    399.0299               484.5203               594.0587
 Red. masses --      2.6345                 1.9517                 4.1761
 Frc consts  --      0.2472                 0.2699                 0.8683
 IR Inten    --      1.6863                 0.1202                20.7193

                     10                     11                     12
                      A                      A                      A
 Frequencies --    732.5448               834.8327               845.1721
 Red. masses --      1.1659                 2.8493                 1.2405
 Frc consts  --      0.3686                 1.1700                 0.5221
 IR Inten    --      9.8957                 1.1624                 1.1246

                     13                     14                     15
                      A                      A                      A
 Frequencies --    918.2467               974.5695               986.5408
 Red. masses --      2.3912                 1.5399                 1.2419
 Frc consts  --      1.1879                 0.8617                 0.7122
 IR Inten    --     13.5773                 5.7371                 2.8907

                     16                     17                     18
                      A                      A                      A
 Frequencies --   1062.4349              1138.1841              1153.3911
 Red. masses --      2.4572                 2.1196                 1.8741
 Frc consts  --      1.6342                 1.6178                 1.4689
 IR Inten    --      0.0276                 0.1108                 4.2775

                     19                     20                     21
                      A                      A                      A
 Frequencies --   1200.0386              1270.1389              1331.5777
 Red. masses --      2.1042                 1.3263                 1.0957
 Frc consts  --      1.7854                 1.2606                 1.1447
 IR Inten    --     94.6221                 0.0155                 0.4410

                     22                     23                     24
                      A                      A                      A
 Frequencies --   1337.6787              1406.8627              1420.2190
 Red. masses --      1.5374                 1.2840                 1.8123
 Frc consts  --      1.6208                 1.4973                 2.1538
 IR Inten    --     15.7916                34.1803                66.9221

                     25                     26                     27
                      A                      A                      A
 Frequencies --   1435.8635              1470.4911              1480.6135
 Red. masses --      1.2543                 1.0911                 1.0640
 Frc consts  --      1.5236                 1.3900                 1.3743
 IR Inten    --      0.5680                11.2888                32.1390

                     28                     29                     30
                      A                      A                      A
 Frequencies --   1492.5246              1502.5461              1519.1672
 Red. masses --      1.0466                 1.0627                 1.0410
 Frc consts  --      1.3737                 1.4136                 1.4155
 IR Inten    --     13.4903                 5.0179                 6.4699

                     31                     32                     33
                      A                      A                      A
 Frequencies --   1527.6476              1780.5323              3040.3037
 Red. masses --      1.0755                 9.8180                 1.0602
 Frc consts  --      1.4788                18.3389                 5.7741
 IR Inten    --      7.3170               281.2280                17.6925

                     34                     35                     36
                      A                      A                      A
 Frequencies --   3054.0285              3063.8094              3066.2607
 Red. masses --      1.0361                 1.0600                 1.0382
 Frc consts  --      5.6938                 5.8626                 5.7510
 IR Inten    --     44.2871                42.9458                10.1504

                     37                     38                     39
                      A                      A                      A
 Frequencies --   3066.6258              3096.0962              3120.3182
 Red. masses --      1.0984                 1.1031                 1.1038
 Frc consts  --      6.0862                 6.2304                 6.3318
 IR Inten    --      7.2445                15.1860               111.6898

                     40                     41                     42
                      A                      A                      A
 Frequencies --   3123.3121              3126.5527              3173.3201
 Red. masses --      1.1020                 1.1000                 1.1033
 Frc consts  --      6.3339                 6.3357                 6.5461
 IR Inten    --     69.3331                17.7194                24.6416

 - Thermochemistry -
 -------------------
 Temperature   298.150 Kelvin.  Pressure   1.00000 Atm.
 Atom     1 has atomic number  6 and mass  12.00000

 Molecular mass:    86.07317 amu.
 Principal axes and moments of inertia in atomic units:
                           1         2         3
     Eigenvalues --   216.463421010.793181182.90767
           X            0.99971   0.02403  -0.00000
           Y           -0.02403   0.99971   0.00000
           Z            0.00000  -0.00000   1.00000
 This molecule is an asymmetric top.
 Rotational symmetry number  1.
 Rotational temperatures (Kelvin)      0.40013     0.08569     0.07322
 Rotational constants (GHZ):           8.33740     1.78547     1.52568
 Zero-point vibrational energy     372423.9 (Joules/Mol)
                                   89.01145 (Kcal/Mol)
 Warning -- explicit consideration of   9 degrees of freedom as
           vibrations may cause significant error
 Vibrational temperatures:     68.62   144.93   167.96   253.70   363.27
          (Kelvin)            489.73   574.12   697.12   854.72  1053.97
                             1201.14  1216.01  1321.15  1402.19  1419.41
                             1528.61  1637.59  1659.47  1726.59  1827.45
                             1915.84  1924.62  2024.16  2043.38  2065.89
                             2115.71  2130.27  2147.41  2161.83  2185.74
                             2197.94  2561.79  4374.32  4394.07  4408.14
                             4411.67  4412.19  4454.59  4489.44  4493.75
                             4498.41  4565.70

 Zero-point correction=                           0.141849 (Hartree/Particle)
 Thermal correction to Energy=                    0.149657
 Thermal correction to Enthalpy=                  0.150601
 Thermal correction to Gibbs Free Energy=         0.109447
 Sum of electronic and zero-point Energies=           -271.647779
 Sum of electronic and thermal Energies=              -271.639971
 Sum of electronic and thermal Enthalpies=            -271.639027
 Sum of electronic and thermal Free Energies=         -271.680181

                     E (Thermal)             CV                S
                      KCal/Mol        Cal/Mol-Kelvin    Cal/Mol-Kelvin
 Total                   93.911             26.275             86.617
 Electronic               0.000              0.000              0.000
 Translational            0.889              2.981             39.271
 Rotational               0.889              2.981             27.051
 Vibrational             92.134             20.313             20.295
 Vibration     1          0.595              1.978              4.911
 Vibration     2          0.604              1.949              3.440
 Vibration     3          0.608              1.935              3.154
 Vibration     4          0.628              1.872              2.367
 Vibration     5          0.664              1.759              1.713
 Vibration     6          0.720              1.595              1.210
 Vibration     7          0.765              1.472              0.966
 Vibration     8          0.841              1.284              0.698
 Vibration     9          0.952              1.044              0.460

 Optimization completed.
    -- Stationary point found.
 Normal termination of Gaussian 16 at Wed Mar  2 00:08:16 2022.

 ------------------------------------------
 #p b3lyp/6-31G(d) geom=allcheck guess=read
 ------------------------------------------

 Structure from the checkpoint file:  "186.n.pdb.xyz.mst.wat.chk"
 -------------
 186.n.pdb.xyz
 -------------
 Charge =  0 Multiplicity = 1

 SCF Done:  E(RB3LYP) =  -271.783999756     A.U. after   10 cycles
 Normal termination of Gaussian 16 at Wed Mar  2 00:08:34 2022.
 Gaussian 16:  ES64L-G16RevA.03 25-Dec-2016

 ----------------------------------------------------------------------
 #p b3lyp/6-31G(d) scrf=(iefpcm,read,solvent=water) geom=allcheck guess
 =read
 ----------------------------------------------------------------------

 Structure from the checkpoint file:  "186.n.pdb.xyz.mst.wat.chk"
 -------------
 186.n.pdb.xyz
 -------------
 Charge =  0 Multiplicity = 1

                         Standard orientation:
 ---------------------------------------------------------------------
 Center     Atomic      Atomic             Coordinates (Angstroms)
 Number     Number       Type             X           Y           Z
 ---------------------------------------------------------------------
      1          6           0        2.754357   -0.293423   -0.000102
      2          6           0        1.408192    0.431906    0.000190
      3          6           0        0.224529   -0.533194    0.000037
      4          6           0       -1.135493    0.139142   -0.000011
      5          6           0       -2.345225   -0.770043    0.000001
      6          8           0       -1.254388    1.356473   -0.000068
      7          1           0        3.585648    0.418552   -0.000094
      8          1           0        2.861761   -0.931708    0.883643
      9          1           0        2.861526   -0.931480   -0.884127
     10          1           0        1.338448    1.086185    0.875970
     11          1           0        1.338329    1.086136   -0.875331
     12          1           0        0.265883   -1.201668   -0.871107
     13          1           0        0.265795   -1.202180    0.870929
     14          1           0       -2.329514   -1.422114   -0.879606
     15          1           0       -3.260997   -0.177505   -0.000304
     16          1           0       -2.329943   -1.422327    0.879878
 ---------------------------------------------------------------------

 SCF Done:  E(RB3LYP) =  -271.789267727     A.U. after   10 cycles

 The electronic state is 1-A.
 Alpha  occ. eigenvalues --  -19.14094 -10.27799 -10.18639 -10.18243 -10.17963
 Alpha  occ. eigenvalues --  -10.17121  -1.03843  -0.79269  -0.74536  -0.68906
 Alpha  occ. eigenvalues --   -0.59616  -0.52459  -0.47287  -0.46297  -0.44118
 Alpha  occ. eigenvalues --   -0.43037  -0.40254  -0.39252  -0.38449  -0.34876
 Alpha  occ. eigenvalues --   -0.34758  -0.33578  -0.32933  -0.24907
 Alpha virt. eigenvalues --   -0.01234   0.09255   0.11522   0.14377   0.14853
 Alpha virt. eigenvalues --    0.15813   0.17204   0.17776   0.18685   0.19746
 Alpha virt. eigenvalues --    0.20378   0.22533   0.23534   0.26161   0.31845

 Mulliken charges:
               1
     1  C   -0.454473
     2  C   -0.244112
     3  C   -0.350567
     4  C    0.469077
     5  C   -0.531091
     6  O   -0.505693
     7  H    0.147959
     8  H    0.146786
     9  H    0.146772
    10  H    0.142640
    11  H    0.142691
    12  H    0.173524
    13  H    0.173506
    14  H    0.186111
    15  H    0.170801
    16  H    0.186070
 Sum of Mulliken charges =  -0.00000

 Dipole moment (field-independent basis, Debye):
    X=              0.4130    Y=             -3.5665    Z=             -0.0004  Tot=              3.5904
 Quadrupole moment (field-independent basis, Debye-Ang):
   XX=            -37.3672   YY=            -41.4200   ZZ=            -36.4924
   XY=              4.7476   XZ=             -0.0001   YZ=             -0.0002

 Normal termination of Gaussian 16 at Wed Mar  2 00:08:58 2022.
