 Gaussian 16, Revision A.03,

 ----------------------------------------------------------------------
 #p b3lyp/6-31G(d) opt=(MaxStep=10,MaxCycles=1000) freq scf=(MaxCycle=2
 000,NoVarAcc,NoIncFock) scrf=(iefpcm,read,solvent=water)
 ----------------------------------------------------------------------

 -------------
 188.n.pdb.xyz
 -------------
 Symbolic Z-matrix:
 Charge =  0 Multiplicity = 1

 SCF Done:  E(RB3LYP) =  -790.620304374     A.U. after   12 cycles
 SCF Done:  E(RB3LYP) =  -790.623176810     A.U. after    9 cycles
 SCF Done:  E(RB3LYP) =  -790.622574312     A.U. after   10 cycles
 SCF Done:  E(RB3LYP) =  -790.624259053     A.U. after    9 cycles
 SCF Done:  E(RB3LYP) =  -790.624162962     A.U. after    9 cycles
 SCF Done:  E(RB3LYP) =  -790.624258908     A.U. after    8 cycles
 SCF Done:  E(RB3LYP) =  -790.624268830     A.U. after    8 cycles
 SCF Done:  E(RB3LYP) =  -790.624283389     A.U. after    8 cycles
 SCF Done:  E(RB3LYP) =  -790.624295617     A.U. after    7 cycles
 SCF Done:  E(RB3LYP) =  -790.624306955     A.U. after    7 cycles
 SCF Done:  E(RB3LYP) =  -790.624308803     A.U. after    6 cycles
 Optimization completed.
    -- Stationary point found.
 Normal termination of Gaussian 16 at Wed Mar  2 04:01:29 2022.

 --------------------------------------------------------------------
 #P Geom=AllCheck Guess=TCheck SCRF=Check GenChk RB3LYP/6-31G(d) Freq
 --------------------------------------------------------------------

 Structure from the checkpoint file:  "188.n.pdb.xyz.mst.wat.chk"
 -------------
 188.n.pdb.xyz
 -------------
 Charge =  0 Multiplicity = 1

 SCF Done:  E(RB3LYP) =  -790.624308803     A.U. after    1 cycles

  Exact polarizability: 280.559   8.762 213.077  13.515 -26.914 178.637
 Approx polarizability: 278.938  13.131 236.700  13.469 -36.715 197.047

                      1                      2                      3
                      A                      A                      A
 Frequencies --     18.5596                35.6796                45.5409
 Red. masses --      4.5261                 3.9190                 3.3962
 Frc consts  --      0.0009                 0.0029                 0.0041
 IR Inten    --      0.2708                 1.0576                 1.6925

                      4                      5                      6
                      A                      A                      A
 Frequencies --     55.2709                62.6176                79.2190
 Red. masses --      3.1002                 4.1187                 2.2697
 Frc consts  --      0.0056                 0.0095                 0.0084
 IR Inten    --      2.0851                 2.8613                12.2198

                      7                      8                      9
                      A                      A                      A
 Frequencies --    109.1820               114.9566               148.2137
 Red. masses --      3.1332                 3.1828                 2.1666
 Frc consts  --      0.0220                 0.0248                 0.0280
 IR Inten    --      0.3433                 1.6574                 0.2511

                     10                     11                     12
                      A                      A                      A
 Frequencies --    177.0630               206.7773               226.4151
 Red. masses --      2.1177                 4.0043                 4.3987
 Frc consts  --      0.0391                 0.1009                 0.1329
 IR Inten    --      0.5672                 1.4402                 1.5370

                     13                     14                     15
                      A                      A                      A
 Frequencies --    232.9501               246.7147               267.2421
 Red. masses --      3.2285                 5.0803                 2.1375
 Frc consts  --      0.1032                 0.1822                 0.0899
 IR Inten    --      2.7291                 1.5605                 1.7091

                     16                     17                     18
                      A                      A                      A
 Frequencies --    290.5201               299.5793               344.1950
 Red. masses --      1.0741                 3.0828                 3.1553
 Frc consts  --      0.0534                 0.1630                 0.2202
 IR Inten    --    207.3948                 1.3474                 1.2623

                     19                     20                     21
                      A                      A                      A
 Frequencies --    390.0500               440.4364               451.9354
 Red. masses --      1.8354                 3.7509                 3.2775
 Frc consts  --      0.1645                 0.4287                 0.3944
 IR Inten    --      9.1468                 8.0982                 3.7606

                     22                     23                     24
                      A                      A                      A
 Frequencies --    474.9645               484.2166               513.8710
 Red. masses --      3.0217                 4.0182                 4.6619
 Frc consts  --      0.4016                 0.5551                 0.7253
 IR Inten    --      6.8415                 4.5606                 5.7128

                     25                     26                     27
                      A                      A                      A
 Frequencies --    557.5357               576.0824               619.0394
 Red. masses --      2.1624                 2.7865                 5.8256
 Frc consts  --      0.3960                 0.5449                 1.3153
 IR Inten    --      2.9209                 0.8831                17.2915

                     28                     29                     30
                      A                      A                      A
 Frequencies --    646.5396               708.5316               773.2868
 Red. masses --      4.8717                 2.5760                 1.6797
 Frc consts  --      1.1998                 0.7619                 0.5918
 IR Inten    --      0.4422                 9.5058                11.0215

                     31                     32                     33
                      A                      A                      A
 Frequencies --    776.7650               780.2127               795.4971
 Red. masses --      2.9853                 2.0997                 1.2578
 Frc consts  --      1.0613                 0.7531                 0.4690
 IR Inten    --     22.1662                27.4704                 7.1006

                     34                     35                     36
                      A                      A                      A
 Frequencies --    806.4109               854.6951               875.0512
 Red. masses --      1.5730                 2.7666                 1.5122
 Frc consts  --      0.6027                 1.1907                 0.6822
 IR Inten    --     36.1816                 7.3983                 6.4081

                     37                     38                     39
                      A                      A                      A
 Frequencies --    888.3546               893.4739               903.5944
 Red. masses --      1.3938                 1.3759                 2.2244
 Frc consts  --      0.6481                 0.6472                 1.0701
 IR Inten    --     15.7998                18.6498                10.4234

                     40                     41                     42
                      A                      A                      A
 Frequencies --    905.0044               929.4519               977.1390
 Red. masses --      1.2062                 3.4406                 1.2623
 Frc consts  --      0.5821                 1.7512                 0.7101
 IR Inten    --      0.4602                14.8295                 1.6402

                     43                     44                     45
                      A                      A                      A
 Frequencies --    990.5775              1002.0664              1010.0472
 Red. masses --      1.4273                 2.1630                 2.3907
 Frc consts  --      0.8252                 1.2797                 1.4370
 IR Inten    --      2.2663                19.1664                18.6035

                     46                     47                     48
                      A                      A                      A
 Frequencies --   1011.1725              1035.0984              1045.5520
 Red. masses --      5.0195                 2.4518                 2.0218
 Frc consts  --      3.0238                 1.5477                 1.3022
 IR Inten    --      0.9065                 6.2181                10.5350

                     49                     50                     51
                      A                      A                      A
 Frequencies --   1055.2458              1079.2783              1092.4464
 Red. masses --      4.4253                 3.1515                 1.7011
 Frc consts  --      2.9033                 2.1629                 1.1962
 IR Inten    --    268.5450                65.5784                 4.9322

                     52                     53                     54
                      A                      A                      A
 Frequencies --   1102.4131              1108.9971              1127.1139
 Red. masses --      3.2555                 2.0309                 1.7107
 Frc consts  --      2.3311                 1.4716                 1.2805
 IR Inten    --     24.6181                36.1938                10.5386

                     55                     56                     57
                      A                      A                      A
 Frequencies --   1134.0807              1164.5807              1181.9503
 Red. masses --      2.6375                 2.0704                 1.6418
 Frc consts  --      1.9986                 1.6544                 1.3514
 IR Inten    --     15.8200                31.3133                62.9580

                     58                     59                     60
                      A                      A                      A
 Frequencies --   1182.9116              1205.4610              1216.2228
 Red. masses --      1.6471                 1.2321                 1.4442
 Frc consts  --      1.3579                 1.0549                 1.2587
 IR Inten    --     27.8352                 3.6751                15.2368

                     61                     62                     63
                      A                      A                      A
 Frequencies --   1234.0365              1240.5507              1251.2982
 Red. masses --      1.3818                 1.1928                 1.2182
 Frc consts  --      1.2398                 1.0815                 1.1238
 IR Inten    --      5.9906                 0.1727                73.0248

                     64                     65                     66
                      A                      A                      A
 Frequencies --   1262.8276              1290.6231              1296.1076
 Red. masses --      1.2693                 2.8101                 1.1852
 Frc consts  --      1.1926                 2.7578                 1.1730
 IR Inten    --      7.7021               160.0538                 2.6440

                     67                     68                     69
                      A                      A                      A
 Frequencies --   1305.8940              1319.6574              1320.4738
 Red. masses --      1.9897                 1.1490                 1.0720
 Frc consts  --      1.9991                 1.1789                 1.1013
 IR Inten    --    239.3525                 0.1909                 2.2948

                     70                     71                     72
                      A                      A                      A
 Frequencies --   1333.9430              1334.1962              1341.9329
 Red. masses --      1.3324                 1.3613                 1.3408
 Frc consts  --      1.3969                 1.4277                 1.4226
 IR Inten    --      8.5909                49.1769                22.1700

                     73                     74                     75
                      A                      A                      A
 Frequencies --   1356.7620              1368.2298              1375.1282
 Red. masses --      1.3416                 4.1541                 1.3951
 Frc consts  --      1.4550                 4.5819                 1.5544
 IR Inten    --      0.9916                12.7922                 3.2354

                     76                     77                     78
                      A                      A                      A
 Frequencies --   1391.2402              1395.4734              1405.7356
 Red. masses --      1.3956                 1.4687                 1.3480
 Frc consts  --      1.5915                 1.6851                 1.5695
 IR Inten    --     47.3737                61.1276                20.8340

                     79                     80                     81
                      A                      A                      A
 Frequencies --   1433.8156              1439.8229              1482.5991
 Red. masses --      1.5110                 1.4409                 1.4944
 Frc consts  --      1.8302                 1.7600                 1.9354
 IR Inten    --      6.6796                54.8757                25.9448

                     82                     83                     84
                      A                      A                      A
 Frequencies --   1496.3362              1499.5201              1505.4827
 Red. masses --      2.5854                 1.1031                 1.0917
 Frc consts  --      3.4106                 1.4614                 1.4578
 IR Inten    --     61.5190                 2.1772                 4.1229

                     85                     86                     87
                      A                      A                      A
 Frequencies --   1513.7237              1518.4976              1522.9677
 Red. masses --      1.1173                 1.1105                 1.1425
 Frc consts  --      1.5084                 1.5086                 1.5613
 IR Inten    --      5.0040                 1.2524                 7.7331

                     88                     89                     90
                      A                      A                      A
 Frequencies --   1530.3568              1532.7429              1538.5864
 Red. masses --      1.1199                 1.7430                 1.1013
 Frc consts  --      1.5453                 2.4126                 1.5361
 IR Inten    --     12.7931                72.9069                 9.6248

                     91                     92                     93
                      A                      A                      A
 Frequencies --   1544.1521              1557.3329              1639.2154
 Red. masses --      1.2070                 1.0952                 5.6450
 Frc consts  --      1.6956                 1.5649                 8.9368
 IR Inten    --      0.1479                 0.6614               106.7655

                     94                     95                     96
                      A                      A                      A
 Frequencies --   1665.4952              2942.7535              2951.4137
 Red. masses --      6.1879                 1.0740                 1.0724
 Frc consts  --     10.1130                 5.4797                 5.5036
 IR Inten    --    103.9055               110.9798               178.8412

                     97                     98                     99
                      A                      A                      A
 Frequencies --   3007.9648              3030.4080              3035.6436
 Red. masses --      1.0550                 1.0720                 1.1068
 Frc consts  --      5.6242                 5.8005                 6.0090
 IR Inten    --     81.2211                63.3595                90.1465

                    100                    101                    102
                      A                      A                      A
 Frequencies --   3039.4797              3051.7710              3053.4350
 Red. masses --      1.0560                 1.0619                 1.0656
 Frc consts  --      5.7480                 5.8269                 5.8536
 IR Inten    --     61.8220                11.8705                75.2463

                    103                    104                    105
                      A                      A                      A
 Frequencies --   3057.8893              3061.3170              3068.9349
 Red. masses --      1.0867                 1.0701                 1.0808
 Frc consts  --      5.9866                 5.9089                 5.9976
 IR Inten    --     52.9913               103.9239                80.2823

                    106                    107                    108
                      A                      A                      A
 Frequencies --   3071.1366              3078.0478              3086.2761
 Red. masses --      1.0597                 1.1067                 1.1004
 Frc consts  --      5.8889                 6.1778                 6.1752
 IR Inten    --     49.1523                38.8219                35.0039

                    109                    110                    111
                      A                      A                      A
 Frequencies --   3100.1601              3108.6175              3110.8021
 Red. masses --      1.1007                 1.0961                 1.1007
 Frc consts  --      6.2329                 6.2410                 6.2757
 IR Inten    --     66.3126               104.8482                88.9707

                    112                    113                    114
                      A                      A                      A
 Frequencies --   3118.6294              3202.9584              3209.7276
 Red. masses --      1.1063                 1.0874                 1.0902
 Frc consts  --      6.3396                 6.5727                 6.6177
 IR Inten    --     99.2584                21.0397                15.4968

                    115                    116                    117
                      A                      A                      A
 Frequencies --   3222.9636              3246.7243              3737.4361
 Red. masses --      1.0930                 1.0918                 1.0667
 Frc consts  --      6.6896                 6.7806                 8.7786
 IR Inten    --     29.6030                14.6129                75.1230

 - Thermochemistry -
 -------------------
 Temperature   298.150 Kelvin.  Pressure   1.00000 Atm.
 Atom     1 has atomic number  8 and mass  15.99491

 Molecular mass:   249.17288 amu.
 Principal axes and moments of inertia in atomic units:
                           1         2         3
     Eigenvalues --  1677.55232********************
           X            0.99998  -0.00624   0.00238
           Y            0.00625   0.99998  -0.00214
           Z           -0.00237   0.00216   0.99999
 This molecule is an asymmetric top.
 Rotational symmetry number  1.
 Warning -- assumption of classical behavior for rotation
           may cause significant error
 Rotational temperatures (Kelvin)      0.05163     0.00599     0.00561
 Rotational constants (GHZ):           1.07582     0.12472     0.11695
 Zero-point vibrational energy     954424.4 (Joules/Mol)
                                  228.11291 (Kcal/Mol)
 Warning -- explicit consideration of  27 degrees of freedom as
           vibrations may cause significant error
 Vibrational temperatures:     26.70    51.33    65.52    79.52    90.09
          (Kelvin)            113.98   157.09   165.40   213.25   254.75
                              297.51   325.76   335.16   354.97   384.50
                              417.99   431.03   495.22   561.19   633.69
                              650.23   683.37   696.68   739.35   802.17
                              828.85   890.66   930.23  1019.42  1112.59
                             1117.59  1122.55  1144.54  1160.25  1229.72
                             1259.00  1278.14  1285.51  1300.07  1302.10
                             1337.27  1405.89  1425.22  1441.75  1453.23
                             1454.85  1489.28  1504.32  1518.26  1552.84
                             1571.79  1586.13  1595.60  1621.67  1631.69
                             1675.57  1700.56  1701.95  1734.39  1749.87
                             1775.50  1784.88  1800.34  1816.93  1856.92
                             1864.81  1878.89  1898.69  1899.87  1919.25
                             1919.61  1930.74  1952.08  1968.58  1978.50
                             2001.68  2007.77  2022.54  2062.94  2071.58
                             2133.13  2152.89  2157.48  2166.05  2177.91
                             2184.78  2191.21  2201.84  2205.28  2213.68
                             2221.69  2240.65  2358.47  2396.28  4233.97
                             4246.43  4327.79  4360.08  4367.61  4373.13
                             4390.82  4393.21  4399.62  4404.55  4415.51
                             4418.68  4428.62  4440.46  4460.44  4472.61
                             4475.75  4487.01  4608.34  4618.08  4637.13
                             4671.31  5377.34

 Zero-point correction=                           0.363521 (Hartree/Particle)
 Thermal correction to Energy=                    0.381670
 Thermal correction to Enthalpy=                  0.382615
 Thermal correction to Gibbs Free Energy=         0.314912
 Sum of electronic and zero-point Energies=           -790.260788
 Sum of electronic and thermal Energies=              -790.242638
 Sum of electronic and thermal Enthalpies=            -790.241694
 Sum of electronic and thermal Free Energies=         -790.309397

                     E (Thermal)             CV                S
                      KCal/Mol        Cal/Mol-Kelvin    Cal/Mol-Kelvin
 Total                  239.502             68.484            142.493
 Electronic               0.000              0.000              0.000
 Translational            0.889              2.981             42.439
 Rotational               0.889              2.981             34.281
 Vibrational            237.724             62.522             65.772
 Vibration     1          0.593              1.986              6.783
 Vibration     2          0.594              1.982              5.486
 Vibration     3          0.595              1.979              5.002
 Vibration     4          0.596              1.975              4.619
 Vibration     5          0.597              1.972              4.373
 Vibration     6          0.600              1.963              3.910
 Vibration     7          0.606              1.942              3.283
 Vibration     8          0.608              1.937              3.183
 Vibration     9          0.618              1.905              2.695
 Vibration    10          0.628              1.871              2.359
 Vibration    11          0.641              1.830              2.072
 Vibration    12          0.650              1.801              1.907
 Vibration    13          0.654              1.791              1.856
 Vibration    14          0.661              1.768              1.754
 Vibration    15          0.672              1.733              1.614
 Vibration    16          0.686              1.691              1.471
 Vibration    17          0.692              1.674              1.419
 Vibration    18          0.723              1.587              1.193
 Vibration    19          0.758              1.491              1.000
 Vibration    20          0.800              1.382              0.825
 Vibration    21          0.811              1.357              0.790
 Vibration    22          0.832              1.306              0.724
 Vibration    23          0.840              1.285              0.699
 Vibration    24          0.869              1.219              0.624
 Vibration    25          0.913              1.123              0.529
 Vibration    26          0.932              1.083              0.493
 Vibration    27          0.979              0.992              0.418

 Optimization completed.
    -- Stationary point found.
 Normal termination of Gaussian 16 at Wed Mar  2 04:39:45 2022.

 ------------------------------------------
 #p b3lyp/6-31G(d) geom=allcheck guess=read
 ------------------------------------------

 Structure from the checkpoint file:  "188.n.pdb.xyz.mst.wat.chk"
 -------------
 188.n.pdb.xyz
 -------------
 Charge =  0 Multiplicity = 1

 SCF Done:  E(RB3LYP) =  -790.611150282     A.U. after   11 cycles
 Normal termination of Gaussian 16 at Wed Mar  2 04:42:16 2022.
 Gaussian 16:  ES64L-G16RevA.03 25-Dec-2016

 ----------------------------------------------------------------------
 #p b3lyp/6-31G(d) scrf=(iefpcm,read,solvent=water) geom=allcheck guess
 =read
 ----------------------------------------------------------------------

 Structure from the checkpoint file:  "188.n.pdb.xyz.mst.wat.chk"
 -------------
 188.n.pdb.xyz
 -------------
 Charge =  0 Multiplicity = 1

                         Standard orientation:
 ---------------------------------------------------------------------
 Center     Atomic      Atomic             Coordinates (Angstroms)
 Number     Number       Type             X           Y           Z
 ---------------------------------------------------------------------
      1          8           0       -7.189866   -1.574482    0.152447
      2          6           0       -6.317264   -0.539624   -0.295599
      3          6           0       -4.924637   -0.854420    0.235225
      4          6           0       -3.895511    0.185688   -0.171886
      5          8           0       -2.635585   -0.227399    0.368638
      6          6           0       -1.548679    0.565503    0.135890
      7          6           0       -0.332158    0.106197    0.664144
      8          6           0        0.844278    0.831442    0.490055
      9          6           0        2.135058    0.337806    1.112699
     10          7           0        3.267767    0.329990    0.187418
     11          6           0        3.129820   -0.675592   -0.895819
     12          6           0        3.956362   -1.941245   -0.646584
     13          6           0        5.459347   -1.598266   -0.580717
     14          6           0        5.679065   -0.182032    0.002697
     15          6           0        4.530887    0.200668    0.934469
     16          6           0        0.802626    2.035891   -0.231578
     17          6           0       -0.403136    2.489012   -0.756731
     18          6           0       -1.588210    1.765084   -0.580742
     19          1           0       -8.074074   -1.383409   -0.201473
     20          1           0       -6.299210   -0.488510   -1.393781
     21          1           0       -6.649200    0.442011    0.073172
     22          1           0       -4.962500   -0.917626    1.328366
     23          1           0       -4.612698   -1.835280   -0.137711
     24          1           0       -4.156231    1.176588    0.218179
     25          1           0       -3.819180    0.263767   -1.263575
     26          1           0       -0.323256   -0.829882    1.213280
     27          1           0        2.410349    1.007231    1.937330
     28          1           0        1.956074   -0.652930    1.569134
     29          1           0        3.445221   -0.226269   -1.846465
     30          1           0        2.068688   -0.915540   -1.003473
     31          1           0        3.632782   -2.399893    0.295096
     32          1           0        3.759711   -2.676704   -1.433587
     33          1           0        5.900893   -1.655125   -1.581393
     34          1           0        5.978341   -2.343060    0.032061
     35          1           0        6.627267   -0.126772    0.546010
     36          1           0        5.733446    0.558691   -0.803675
     37          1           0        4.730855    1.155016    1.435396
     38          1           0        4.451760   -0.559799    1.733187
     39          1           0        1.714606    2.603544   -0.379379
     40          1           0       -0.434019    3.420556   -1.313186
     41          1           0       -2.517459    2.131840   -0.997248
 ---------------------------------------------------------------------

 SCF Done:  E(RB3LYP) =  -790.623063084     A.U. after   10 cycles

 The electronic state is 1-A.
 Alpha  occ. eigenvalues --  -19.17846 -19.13920 -14.31711 -10.24845 -10.23986
 Alpha  occ. eigenvalues --  -10.22926 -10.20669 -10.19925 -10.19761 -10.19499
 Alpha  occ. eigenvalues --  -10.19084 -10.18596 -10.18409 -10.18371 -10.17947
 Alpha  occ. eigenvalues --  -10.17583 -10.17508 -10.17416  -1.06388  -1.00946
 Alpha  occ. eigenvalues --   -0.91642  -0.85190  -0.79406  -0.78688  -0.75505
 Alpha  occ. eigenvalues --   -0.74203  -0.73593  -0.68290  -0.67281  -0.62740
 Alpha  occ. eigenvalues --   -0.61628  -0.60481  -0.59286  -0.56991  -0.52818
 Alpha  occ. eigenvalues --   -0.52024  -0.50615  -0.49508  -0.49210  -0.48735
 Alpha  occ. eigenvalues --   -0.48295  -0.46516  -0.44557  -0.44307  -0.42687
 Alpha  occ. eigenvalues --   -0.42229  -0.40975  -0.39918  -0.39703  -0.38877
 Alpha  occ. eigenvalues --   -0.38556  -0.38320  -0.37526  -0.36691  -0.36028
 Alpha  occ. eigenvalues --   -0.35686  -0.34801  -0.34366  -0.32955  -0.32602
 Alpha  occ. eigenvalues --   -0.32134  -0.31424  -0.30701  -0.30501  -0.26641
 Alpha  occ. eigenvalues --   -0.24825  -0.22153  -0.20245
 Alpha virt. eigenvalues --   -0.00248   0.00781   0.08147   0.09286   0.09565
 Alpha virt. eigenvalues --    0.10857   0.11143   0.12286   0.13012   0.13610
 Alpha virt. eigenvalues --    0.13709   0.14758   0.15183   0.15293   0.15848

 Mulliken charges:
               1
     1  O   -0.674723
     2  C   -0.027652
     3  C   -0.292533
     4  C   -0.043337
     5  O   -0.545218
     6  C    0.381690
     7  C   -0.265918
     8  C    0.153166
     9  C   -0.208093
    10  N   -0.407416
    11  C   -0.140944
    12  C   -0.277846
    13  C   -0.264064
    14  C   -0.285866
    15  C   -0.121708
    16  C   -0.190299
    17  C   -0.162944
    18  C   -0.218506
    19  H    0.440120
    20  H    0.134172
    21  H    0.133498
    22  H    0.156263
    23  H    0.156365
    24  H    0.157396
    25  H    0.156823
    26  H    0.140414
    27  H    0.158528
    28  H    0.129165
    29  H    0.136663
    30  H    0.144362
    31  H    0.142805
    32  H    0.139784
    33  H    0.138956
    34  H    0.138477
    35  H    0.143845
    36  H    0.143420
    37  H    0.140632
    38  H    0.116968
    39  H    0.135925
    40  H    0.148844
    41  H    0.158786
 Sum of Mulliken charges =  -0.00000

 Dipole moment (field-independent basis, Debye):
    X=             -1.6532    Y=              1.0668    Z=             -1.5001  Tot=              2.4741
 Quadrupole moment (field-independent basis, Debye-Ang):
   XX=            -77.4149   YY=           -111.0581   ZZ=           -108.3834
   XY=            -13.6557   XZ=             13.3292   YZ=              0.2086

 Normal termination of Gaussian 16 at Wed Mar  2 04:45:17 2022.
