 Gaussian 16, Revision A.03,

 ----------------------------------------------------------------------
 #p b3lyp/6-31G(d) opt=(MaxStep=10,MaxCycles=1000) freq scf=(MaxCycle=2
 000,NoVarAcc,NoIncFock) scrf=(iefpcm,read,solvent=water)
 ----------------------------------------------------------------------

 -------------
 189.n.pdb.xyz
 -------------
 Symbolic Z-matrix:
 Charge =  0 Multiplicity = 1

 SCF Done:  E(RB3LYP) =  -233.668284732     A.U. after   11 cycles
 SCF Done:  E(RB3LYP) =  -233.669295451     A.U. after    9 cycles
 SCF Done:  E(RB3LYP) =  -233.669333164     A.U. after    8 cycles
 SCF Done:  E(RB3LYP) =  -233.669332027     A.U. after    7 cycles
 Optimization completed.
    -- Stationary point found.
 Normal termination of Gaussian 16 at Wed Mar  2 04:17:56 2022.

 --------------------------------------------------------------------
 #P Geom=AllCheck Guess=TCheck SCRF=Check GenChk RB3LYP/6-31G(d) Freq
 --------------------------------------------------------------------

 Structure from the checkpoint file:  "189.n.pdb.xyz.mst.wat.chk"
 -------------
 189.n.pdb.xyz
 -------------
 Charge =  0 Multiplicity = 1

 SCF Done:  E(RB3LYP) =  -233.669332027     A.U. after    1 cycles

  Exact polarizability:  65.623  -0.377  57.972   0.002  -0.009  56.137
 Approx polarizability:  62.360   0.793  60.967   0.001  -0.010  59.134

                      1                      2                      3
                      A                      A                      A
 Frequencies --    121.0594               124.6844               189.7716
 Red. masses --      2.4969                 1.9390                 3.0579
 Frc consts  --      0.0216                 0.0178                 0.0649
 IR Inten    --      0.0017                 9.1584                 3.4689

                      4                      5                      6
                      A                      A                      A
 Frequencies --    258.9139               317.2323               392.1503
 Red. masses --      1.1107                 1.0725                 3.1130
 Frc consts  --      0.0439                 0.0636                 0.2821
 IR Inten    --      0.7875               203.0164                 0.2479

                      7                      8                      9
                      A                      A                      A
 Frequencies --    438.0083               752.2040               821.6564
 Red. masses --      3.7564                 1.0738                 1.1244
 Frc consts  --      0.4246                 0.3580                 0.4473
 IR Inten    --     17.4699                 5.2520                 2.3836

                     10                     11                     12
                      A                      A                      A
 Frequencies --    914.9901               962.3817              1011.6971
 Red. masses --      1.7985                 1.1365                 3.4340
 Frc consts  --      0.8872                 0.6202                 2.0708
 IR Inten    --     20.2044                 0.1320                 0.3551

                     13                     14                     15
                      A                      A                      A
 Frequencies --   1067.6602              1071.0446              1126.7221
 Red. masses --      2.8301                 2.9490                 1.9096
 Frc consts  --      1.9007                 1.9931                 1.4283
 IR Inten    --    112.7342                27.6156                 1.9006

                     16                     17                     18
                      A                      A                      A
 Frequencies --   1200.5637              1257.7380              1261.2180
 Red. masses --      1.6362                 1.2343                 1.2981
 Frc consts  --      1.3895                 1.1504                 1.2166
 IR Inten    --      5.0877                73.5645                 0.3115

                     19                     20                     21
                      A                      A                      A
 Frequencies --   1322.8519              1325.5486              1331.0918
 Red. masses --      1.1462                 1.3173                 1.0711
 Frc consts  --      1.1818                 1.3637                 1.1181
 IR Inten    --      0.7626                28.3833                 0.0808

                     22                     23                     24
                      A                      A                      A
 Frequencies --   1403.8263              1436.6314              1478.7977
 Red. masses --      1.5725                 1.2536                 1.4691
 Frc consts  --      1.8258                 1.5244                 1.8928
 IR Inten    --      7.1390                 1.2040                14.4777

                     25                     26                     27
                      A                      A                      A
 Frequencies --   1500.6021              1519.9716              1521.4328
 Red. masses --      1.0676                 1.0409                 1.0806
 Frc consts  --      1.4164                 1.4169                 1.4737
 IR Inten    --      0.2264                 7.0021                 0.3876

                     28                     29                     30
                      A                      A                      A
 Frequencies --   1531.7031              1553.9517              2993.9871
 Red. masses --      1.0829                 1.0887                 1.0557
 Frc consts  --      1.4968                 1.5490                 5.5757
 IR Inten    --      5.7157                 3.5530                93.0968

                     31                     32                     33
                      A                      A                      A
 Frequencies --   3020.1302              3036.0267              3044.8912
 Red. masses --      1.1057                 1.0590                 1.0585
 Frc consts  --      5.9419                 5.7514                 5.7819
 IR Inten    --     93.8324                32.6007                87.1271

                     34                     35                     36
                      A                      A                      A
 Frequencies --   3054.4771              3061.9601              3087.7368
 Red. masses --      1.0367                 1.1020                 1.1058
 Frc consts  --      5.6985                 6.0874                 6.2115
 IR Inten    --     55.3608                 3.4273               124.6290

                     37                     38                     39
                      A                      A                      A
 Frequencies --   3117.1806              3123.8711              3740.4391
 Red. masses --      1.1031                 1.1021                 1.0665
 Frc consts  --      6.3155                 6.3364                 8.7915
 IR Inten    --    111.1338                69.3122                69.1058

 - Thermochemistry -
 -------------------
 Temperature   298.150 Kelvin.  Pressure   1.00000 Atm.
 Atom     1 has atomic number  6 and mass  12.00000

 Molecular mass:    74.07317 amu.
 Principal axes and moments of inertia in atomic units:
                           1         2         3
     Eigenvalues --    96.08717 918.64687 969.93971
           X            0.99985  -0.01716   0.00000
           Y            0.01716   0.99985  -0.00002
           Z           -0.00000   0.00002   1.00000
 This molecule is an asymmetric top.
 Rotational symmetry number  1.
 Rotational temperatures (Kelvin)      0.90141     0.09428     0.08930
 Rotational constants (GHZ):          18.78233     1.96456     1.86067
 Zero-point vibrational energy     361851.3 (Joules/Mol)
                                   86.48453 (Kcal/Mol)
 Warning -- explicit consideration of   7 degrees of freedom as
           vibrations may cause significant error
 Vibrational temperatures:    174.18   179.39   273.04   372.52   456.43
          (Kelvin)            564.22   630.20  1082.25  1182.18  1316.47
                             1384.65  1455.61  1536.12  1540.99  1621.10
                             1727.34  1809.60  1814.61  1903.29  1907.17
                             1915.14  2019.79  2066.99  2127.66  2159.03
                             2186.90  2189.00  2203.78  2235.79  4307.68
                             4345.29  4368.17  4380.92  4394.71  4405.48
                             4442.56  4484.93  4494.55  5381.66

 Zero-point correction=                           0.137822 (Hartree/Particle)
 Thermal correction to Energy=                    0.144567
 Thermal correction to Enthalpy=                  0.145511
 Thermal correction to Gibbs Free Energy=         0.107891
 Sum of electronic and zero-point Energies=           -233.531510
 Sum of electronic and thermal Energies=              -233.524765
 Sum of electronic and thermal Enthalpies=            -233.523821
 Sum of electronic and thermal Free Energies=         -233.561441

                     E (Thermal)             CV                S
                      KCal/Mol        Cal/Mol-Kelvin    Cal/Mol-Kelvin
 Total                   90.717             22.996             79.178
 Electronic               0.000              0.000              0.000
 Translational            0.889              2.981             38.823
 Rotational               0.889              2.981             25.951
 Vibrational             88.940             17.035             14.403
 Vibration     1          0.609              1.932              3.083
 Vibration     2          0.610              1.928              3.026
 Vibration     3          0.633              1.854              2.230
 Vibration     4          0.668              1.748              1.669
 Vibration     5          0.704              1.641              1.324
 Vibration     6          0.760              1.487              0.992
 Vibration     7          0.798              1.387              0.833

 Optimization completed.
    -- Stationary point found.
 Normal termination of Gaussian 16 at Wed Mar  2 04:20:05 2022.

 ------------------------------------------
 #p b3lyp/6-31G(d) geom=allcheck guess=read
 ------------------------------------------

 Structure from the checkpoint file:  "189.n.pdb.xyz.mst.wat.chk"
 -------------
 189.n.pdb.xyz
 -------------
 Charge =  0 Multiplicity = 1

 SCF Done:  E(RB3LYP) =  -233.661018430     A.U. after   10 cycles

 1\1\GINC-PIRINEUS3\SP\RB3LYP\6-31G(d)\C4H10O1\UBATOR01\02-Mar-2022\0\\
 #p b3lyp/6-31G(d) geom=allcheck guess=read\\189.n.pdb.xyz\\0,1\C,0,-2.
 130314542,0.5133325056,-0.2910582801\C,0,-0.9253655407,-0.0869563316,0
 .4354061376\C,0,0.3947602007,0.1512575923,-0.3034152907\C,0,1.59581626
 9,-0.44446785,0.4159984903\O,0,2.7663288544,-0.1662720669,-0.352454717
 2\H,0,-2.2426350012,0.0822856836,-1.2919036628\H,0,-3.0588433863,0.328
 5287398,0.2581244313\H,0,-2.0211146957,1.5970870036,-0.4076014056\H,0,
 -1.0791267786,-1.1657034405,0.5669248334\H,0,-0.8591971283,0.338303349

 Normal termination of Gaussian 16 at Wed Mar  2 04:20:20 2022.
 Gaussian 16:  ES64L-G16RevA.03 25-Dec-2016

 ----------------------------------------------------------------------
 #p b3lyp/6-31G(d) scrf=(iefpcm,read,solvent=water) geom=allcheck guess
 =read
 ----------------------------------------------------------------------

 Structure from the checkpoint file:  "189.n.pdb.xyz.mst.wat.chk"
 -------------
 189.n.pdb.xyz
 -------------
 Charge =  0 Multiplicity = 1

                         Standard orientation:
 ---------------------------------------------------------------------
 Center     Atomic      Atomic             Coordinates (Angstroms)
 Number     Number       Type             X           Y           Z
 ---------------------------------------------------------------------
      1          6           0        2.518622   -0.294161   -0.000017
      2          6           0        1.228972    0.528519    0.000203
      3          6           0       -0.031885   -0.340720   -0.000223
      4          6           0       -1.316921    0.473936   -0.000110
      5          8           0       -2.423527   -0.427970    0.000152
      6          1           0        2.575613   -0.938366   -0.884245
      7          1           0        3.402535    0.351298    0.000279
      8          1           0        2.575499   -0.938997    0.883715
      9          1           0        1.216735    1.187634   -0.877323
     10          1           0        1.216631    1.187252    0.878178
     11          1           0       -0.032196   -0.996264    0.880008
     12          1           0       -0.031795   -0.995862   -0.880693
     13          1           0       -1.346311    1.126529    0.885641
     14          1           0       -1.346921    1.127585   -0.886012
     15          1           0       -3.234308    0.107513    0.000109
 ---------------------------------------------------------------------

 SCF Done:  E(RB3LYP) =  -233.669267684     A.U. after    9 cycles

 The electronic state is 1-A.
 Alpha  occ. eigenvalues --  -19.13525 -10.22179 -10.17821 -10.17430 -10.17001
 Alpha  occ. eigenvalues --   -1.00481  -0.78805  -0.71249  -0.61832  -0.57579
 Alpha  occ. eigenvalues --   -0.49601  -0.47506  -0.42592  -0.42301  -0.39491
 Alpha  occ. eigenvalues --   -0.36146  -0.35120  -0.33142  -0.32359  -0.31644
 Alpha  occ. eigenvalues --   -0.26215
 Alpha virt. eigenvalues --    0.09610   0.09758   0.13373   0.13393   0.14926
 Alpha virt. eigenvalues --    0.17992   0.18876   0.19469   0.19951   0.20793
 Alpha virt. eigenvalues --    0.21011   0.25374   0.26434   0.28532   0.51096

 Mulliken charges:
               1
     1  C   -0.449231
     2  C   -0.255784
     3  C   -0.260697
     4  C   -0.024469
     5  O   -0.679630
     6  H    0.145586
     7  H    0.145589
     8  H    0.145586
     9  H    0.136984
    10  H    0.136971
    11  H    0.136598
    12  H    0.136573
    13  H    0.124674
    14  H    0.124478
    15  H    0.436773
 Sum of Mulliken charges =  -0.00000

 Dipole moment (field-independent basis, Debye):
    X=             -0.2642    Y=              1.9903    Z=              0.0006  Tot=              2.0078
 Quadrupole moment (field-independent basis, Debye-Ang):
   XX=            -28.8503   YY=            -33.8893   ZZ=            -32.8701
   XY=             -4.6798   XZ=             -0.0007   YZ=              0.0003

 1\1\GINC-PIRINEUS3\SP\RB3LYP\6-31G(d)\C4H10O1\UBATOR01\02-Mar-2022\0\\
 #p b3lyp/6-31G(d) scrf=(iefpcm,read,solvent=water) geom=allcheck guess
 =read\\189.n.pdb.xyz\\0,1\C,0,-2.130314542,0.5133325056,-0.2910582801\
 C,0,-0.9253655407,-0.0869563316,0.4354061376\C,0,0.3947602007,0.151257
 5923,-0.3034152907\C,0,1.595816269,-0.44446785,0.4159984903\O,0,2.7663
 288544,-0.1662720669,-0.3524547172\H,0,-2.2426350012,0.0822856836,-1.2
 919036628\H,0,-3.0588433863,0.3285287398,0.2581244313\H,0,-2.021114695
 7,1.5970870036,-0.4076014056\H,0,-1.0791267786,-1.1657034405,0.5669248

 Normal termination of Gaussian 16 at Wed Mar  2 04:20:39 2022.
