 Gaussian 16, Revision A.03,

 ----------------------------------------------------------------------
 #p b3lyp/6-31G(d) opt=(MaxStep=10,MaxCycles=1000) freq scf=(MaxCycle=2
 000,NoVarAcc,NoIncFock) scrf=(iefpcm,read,solvent=water)
 ----------------------------------------------------------------------

 ------------
 19.n.pdb.xyz
 ------------
 Symbolic Z-matrix:
 Charge =  0 Multiplicity = 1

 SCF Done:  E(RB3LYP) =  -1286.90174329     A.U. after   13 cycles
 SCF Done:  E(RB3LYP) =  -1286.90493788     A.U. after   10 cycles
 SCF Done:  E(RB3LYP) =  -1286.90215909     A.U. after   10 cycles
 SCF Done:  E(RB3LYP) =  -1286.90610531     A.U. after   10 cycles
 SCF Done:  E(RB3LYP) =  -1286.90633875     A.U. after    9 cycles
 SCF Done:  E(RB3LYP) =  -1286.90639411     A.U. after    9 cycles
 SCF Done:  E(RB3LYP) =  -1286.90647094     A.U. after    9 cycles
 SCF Done:  E(RB3LYP) =  -1286.90654911     A.U. after    9 cycles
 SCF Done:  E(RB3LYP) =  -1286.90661778     A.U. after    9 cycles
 SCF Done:  E(RB3LYP) =  -1286.90678808     A.U. after   10 cycles
 SCF Done:  E(RB3LYP) =  -1286.90917975     A.U. after    9 cycles
 SCF Done:  E(RB3LYP) =  -1286.90918591     A.U. after    8 cycles
 SCF Done:  E(RB3LYP) =  -1286.90918488     A.U. after    7 cycles
 SCF Done:  E(RB3LYP) =  -1286.90914779     A.U. after    9 cycles
 SCF Done:  E(RB3LYP) =  -1286.90918341     A.U. after    8 cycles
 SCF Done:  E(RB3LYP) =  -1286.90918490     A.U. after    7 cycles
 SCF Done:  E(RB3LYP) =  -1286.90918493     A.U. after    6 cycles
 Optimization completed.
    -- Stationary point found.
 Normal termination of Gaussian 16 at Wed Mar  2 07:17:37 2022.

 --------------------------------------------------------------------
 #P Geom=AllCheck Guess=TCheck SCRF=Check GenChk RB3LYP/6-31G(d) Freq
 --------------------------------------------------------------------

 Structure from the checkpoint file:  "19.n.pdb.xyz.mst.wat.chk"
 ------------
 19.n.pdb.xyz
 ------------
 Charge =  0 Multiplicity = 1

 SCF Done:  E(RB3LYP) =  -1286.90918493     A.U. after    1 cycles

  Exact polarizability: 337.811  -2.351 305.373 -15.040  -1.163 175.799
 Approx polarizability: 354.975  -0.227 339.562 -17.882  -4.907 204.429

                      1                      2                      3
                      A                      A                      A
 Frequencies --     33.4690                59.2598                81.3313
 Red. masses --      5.6989                 3.7982                 3.7349
 Frc consts  --      0.0038                 0.0079                 0.0146
 IR Inten    --      0.2493                 0.4164                 0.3485

                      4                      5                      6
                      A                      A                      A
 Frequencies --     96.2378               115.5848               133.7720
 Red. masses --      4.3832                 5.9119                 4.6600
 Frc consts  --      0.0239                 0.0465                 0.0491
 IR Inten    --      0.3523                 1.1938                 0.1457

                      7                      8                      9
                      A                      A                      A
 Frequencies --    166.9303               178.5559               236.7372
 Red. masses --      3.6470                 2.1431                 3.2188
 Frc consts  --      0.0599                 0.0403                 0.1063
 IR Inten    --      1.0491                 0.1625                 3.4646

                     10                     11                     12
                      A                      A                      A
 Frequencies --    253.5157               265.3767               275.0212
 Red. masses --      1.9426                 2.3590                 3.4070
 Frc consts  --      0.0736                 0.0979                 0.1518
 IR Inten    --      1.3625                 0.6797                 3.0367

                     13                     14                     15
                      A                      A                      A
 Frequencies --    283.6288               304.9859               334.5436
 Red. masses --      4.1524                 7.6144                 2.5174
 Frc consts  --      0.1968                 0.4173                 0.1660
 IR Inten    --      2.4031                 2.2244                10.0636

                     16                     17                     18
                      A                      A                      A
 Frequencies --    343.1211               370.2690               386.5869
 Red. masses --      3.5703                 2.6816                 5.3561
 Frc consts  --      0.2477                 0.2166                 0.4716
 IR Inten    --      0.6827                 2.2224                 1.1849

                     19                     20                     21
                      A                      A                      A
 Frequencies --    410.4426               450.7150               462.9014
 Red. masses --      4.6788                 4.9733                 4.3170
 Frc consts  --      0.4644                 0.5952                 0.5450
 IR Inten    --      1.6576                 6.1971                 1.6401

                     22                     23                     24
                      A                      A                      A
 Frequencies --    486.7937               506.1856               538.8407
 Red. masses --      3.7190                 4.0927                 4.2365
 Frc consts  --      0.5192                 0.6178                 0.7247
 IR Inten    --      8.9833                18.7627                 1.9443

                     25                     26                     27
                      A                      A                      A
 Frequencies --    563.0948               574.6500               585.7580
 Red. masses --      4.3823                 4.2165                 5.0994
 Frc consts  --      0.8187                 0.8204                 1.0309
 IR Inten    --      2.9196                 2.2958                 2.2633

                     28                     29                     30
                      A                      A                      A
 Frequencies --    622.2597               648.5349               673.7298
 Red. masses --      4.5690                 4.8804                 4.4609
 Frc consts  --      1.0423                 1.2094                 1.1930
 IR Inten    --      1.3354                 5.8422                 7.0158

                     31                     32                     33
                      A                      A                      A
 Frequencies --    697.2985               729.3029               732.5108
 Red. masses --      5.3987                 3.6162                 3.7167
 Frc consts  --      1.5466                 1.1332                 1.1750
 IR Inten    --     19.3635                 3.5716                24.7072

                     34                     35                     36
                      A                      A                      A
 Frequencies --    773.0708               780.2021               800.4452
 Red. masses --      3.4186                 1.5630                 2.7292
 Frc consts  --      1.2038                 0.5606                 1.0303
 IR Inten    --     17.1896                68.9781                 5.7440

                     37                     38                     39
                      A                      A                      A
 Frequencies --    810.8435               839.7008               859.6012
 Red. masses --      2.8166                 1.5983                 1.9200
 Frc consts  --      1.0911                 0.6640                 0.8359
 IR Inten    --      8.4432                43.0029                 1.9689

                     40                     41                     42
                      A                      A                      A
 Frequencies --    882.9139               890.4101               899.6496
 Red. masses --      3.7066                 1.6689                 1.4421
 Frc consts  --      1.7024                 0.7796                 0.6877
 IR Inten    --     38.4454                 3.6722                28.6203

                     43                     44                     45
                      A                      A                      A
 Frequencies --    933.3524               952.3706               956.4142
 Red. masses --      3.8330                 2.1661                 1.3561
 Frc consts  --      1.9673                 1.1575                 0.7309
 IR Inten    --     15.3445                 7.5664                 0.7200

                     46                     47                     48
                      A                      A                      A
 Frequencies --    960.6256               980.3969               991.1438
 Red. masses --      1.5168                 2.5187                 1.2583
 Frc consts  --      0.8247                 1.4264                 0.7283
 IR Inten    --      9.6905                 5.4657                 0.2195

                     49                     50                     51
                      A                      A                      A
 Frequencies --   1012.0137              1046.3773              1065.9390
 Red. masses --      1.7967                 2.7543                 2.1277
 Frc consts  --      1.0842                 1.7768                 1.4244
 IR Inten    --      8.2452                13.5260                13.4955

                     52                     53                     54
                      A                      A                      A
 Frequencies --   1083.7149              1090.5369              1106.9574
 Red. masses --      2.0753                 1.8936                 2.3974
 Frc consts  --      1.4360                 1.3269                 1.7308
 IR Inten    --     18.6797                14.1680                44.2379

                     55                     56                     57
                      A                      A                      A
 Frequencies --   1119.0219              1132.1655              1138.3481
 Red. masses --      2.6486                 2.4215                 1.6476
 Frc consts  --      1.9541                 1.8288                 1.2579
 IR Inten    --      5.2699                40.4904                54.6032

                     58                     59                     60
                      A                      A                      A
 Frequencies --   1156.4997              1179.8861              1181.4918
 Red. masses --      1.4002                 1.9967                 1.2416
 Frc consts  --      1.1034                 1.6377                 1.0212
 IR Inten    --     23.4718                45.2109                11.7830

                     61                     62                     63
                      A                      A                      A
 Frequencies --   1199.1139              1200.9328              1219.5081
 Red. masses --      1.6837                 2.2366                 1.3936
 Frc consts  --      1.4264                 1.9005                 1.2211
 IR Inten    --     25.0464                52.0014                19.7219

                     64                     65                     66
                      A                      A                      A
 Frequencies --   1232.1525              1243.9298              1256.9334
 Red. masses --      2.8808                 1.4850                 2.4037
 Frc consts  --      2.5769                 1.3538                 2.2374
 IR Inten    --      7.8027                20.7019               245.5666

                     67                     68                     69
                      A                      A                      A
 Frequencies --   1260.3777              1281.9351              1304.8995
 Red. masses --      1.4641                 1.7382                 1.4905
 Frc consts  --      1.3703                 1.6830                 1.4953
 IR Inten    --    148.0273               192.8940                 7.4286

                     70                     71                     72
                      A                      A                      A
 Frequencies --   1315.8935              1322.0647              1329.1227
 Red. masses --      1.5160                 1.5096                 1.5407
 Frc consts  --      1.5467                 1.5546                 1.6036
 IR Inten    --      4.2791                30.5330                 8.6610

                     73                     74                     75
                      A                      A                      A
 Frequencies --   1339.5104              1345.3691              1360.4343
 Red. masses --      1.5771                 6.1308                 2.4061
 Frc consts  --      1.6673                 6.5381                 2.6237
 IR Inten    --     11.2616                 2.6621                 2.6634

                     76                     77                     78
                      A                      A                      A
 Frequencies --   1377.8984              1388.1469              1406.3209
 Red. masses --      1.5912                 1.3587                 1.6130
 Frc consts  --      1.7799                 1.5426                 1.8795
 IR Inten    --      4.9693                 0.5781                18.8474

                     79                     80                     81
                      A                      A                      A
 Frequencies --   1421.3036              1439.8978              1477.9022
 Red. masses --      1.4862                 3.2165                 1.1819
 Frc consts  --      1.7688                 3.9291                 1.5210
 IR Inten    --     65.6291                79.9018                 0.6891

                     82                     83                     84
                      A                      A                      A
 Frequencies --   1494.9779              1508.0426              1512.4872
 Red. masses --      2.3201                 1.0586                 1.2280
 Frc consts  --      3.0551                 1.4185                 1.6551
 IR Inten    --     70.0320                28.3251                48.7758

                     85                     86                     87
                      A                      A                      A
 Frequencies --   1515.2243              1525.1274              1530.5718
 Red. masses --      2.0340                 1.6211                 1.2488
 Frc consts  --      2.7514                 2.2217                 1.7237
 IR Inten    --    265.9264                 6.9021                19.3887

                     88                     89                     90
                      A                      A                      A
 Frequencies --   1536.4342              1551.5272              1618.8068
 Red. masses --      1.1551                 1.1467                 6.9469
 Frc consts  --      1.6065                 1.6264                10.7258
 IR Inten    --      5.9877                19.4838                 3.7712

                     91                     92                     93
                      A                      A                      A
 Frequencies --   1637.0042              1649.7684              1661.2567
 Red. masses --      6.0000                 7.2575                 6.4975
 Frc consts  --      9.4733                11.6381                10.5651
 IR Inten    --      5.9654                 5.3683                 5.2788

                     94                     95                     96
                      A                      A                      A
 Frequencies --   2956.3696              2964.4832              2986.4104
 Red. masses --      1.0615                 1.0727                 1.0722
 Frc consts  --      5.4664                 5.5543                 5.6343
 IR Inten    --    102.5305               160.3142               170.4686

                     97                     98                     99
                      A                      A                      A
 Frequencies --   3063.7585              3069.9159              3075.2976
 Red. masses --      1.0847                 1.0843                 1.0625
 Frc consts  --      5.9991                 6.0207                 5.9206
 IR Inten    --     17.8125                 7.4479                48.9245

                    100                    101                    102
                      A                      A                      A
 Frequencies --   3082.5609              3087.8976              3095.6559
 Red. masses --      1.0869                 1.0709                 1.0864
 Frc consts  --      6.0849                 6.0165                 6.1343
 IR Inten    --     97.1075                72.0293                51.2240

                    103                    104                    105
                      A                      A                      A
 Frequencies --   3118.9965              3135.0315              3205.9970
 Red. masses --      1.1045                 1.1041                 1.0862
 Frc consts  --      6.3307                 6.3935                 6.5780
 IR Inten    --     85.7698                52.6303                 2.4483

                    106                    107                    108
                      A                      A                      A
 Frequencies --   3218.3644              3226.2698              3229.4196
 Red. masses --      1.0907                 1.0906                 1.0900
 Frc consts  --      6.6560                 6.6882                 6.6974
 IR Inten    --     29.0076                 7.6600                 6.1281

                    109                    110                    111
                      A                      A                      A
 Frequencies --   3229.7994              3234.4305              3246.2370
 Red. masses --      1.0919                 1.0951                 1.0952
 Frc consts  --      6.7108                 6.7500                 6.8000
 IR Inten    --     34.9186                18.2602                 6.7050

 - Thermochemistry -
 -------------------
 Temperature   298.150 Kelvin.  Pressure   1.00000 Atm.
 Atom     1 has atomic number  6 and mass  12.00000

 Molecular mass:   299.10769 amu.
 Principal axes and moments of inertia in atomic units:
                           1         2         3
     Eigenvalues --  4399.673978573.94650**********
           X            0.99906   0.04297  -0.00552
           Y           -0.04294   0.99906   0.00593
           Z            0.00577  -0.00569   0.99997
 This molecule is an asymmetric top.
 Rotational symmetry number  1.
 Warning -- assumption of classical behavior for rotation
           may cause significant error
 Rotational temperatures (Kelvin)      0.01969     0.01010     0.00733
 Rotational constants (GHZ):           0.41020     0.21049     0.15280
 Zero-point vibrational energy     848857.0 (Joules/Mol)
                                  202.88169 (Kcal/Mol)
 Warning -- explicit consideration of  27 degrees of freedom as
           vibrations may cause significant error
 Vibrational temperatures:     48.15    85.26   117.02   138.46   166.30
          (Kelvin)            192.47   240.18   256.90   340.61   364.75
                              381.82   395.69   408.08   438.81   481.33
                              493.67   532.73   556.21   590.54   648.48
                              666.01   700.39   728.29   775.27   810.17
                              826.79   842.78   895.29   933.10   969.35
                             1003.26  1049.30  1053.92  1112.28  1122.54
                             1151.66  1166.62  1208.14  1236.77  1270.32
                             1281.10  1294.40  1342.89  1370.25  1376.07
                             1382.13  1410.57  1426.03  1456.06  1505.50
                             1533.65  1559.22  1569.04  1592.66  1610.02
                             1628.93  1637.83  1663.95  1697.59  1699.90
                             1725.26  1727.87  1754.60  1772.79  1789.74
                             1808.45  1813.40  1844.42  1877.46  1893.28
                             1902.16  1912.31  1927.26  1935.69  1957.36
                             1982.49  1997.23  2023.38  2044.94  2071.69
                             2126.37  2150.94  2169.74  2176.13  2180.07
                             2194.32  2202.15  2210.59  2232.30  2329.10
                             2355.28  2373.65  2390.18  4253.56  4265.23
                             4296.78  4408.07  4416.92  4424.67  4435.12
                             4442.80  4453.96  4487.54  4510.61  4612.71
                             4630.51  4641.88  4646.41  4646.96  4653.62
                             4670.61

 Zero-point correction=                           0.323313 (Hartree/Particle)
 Thermal correction to Energy=                    0.340259
 Thermal correction to Enthalpy=                  0.341203
 Thermal correction to Gibbs Free Energy=         0.278730
 Sum of electronic and zero-point Energies=          -1286.585872
 Sum of electronic and thermal Energies=             -1286.568926
 Sum of electronic and thermal Enthalpies=           -1286.567982
 Sum of electronic and thermal Free Energies=        -1286.630455

                     E (Thermal)             CV                S
                      KCal/Mol        Cal/Mol-Kelvin    Cal/Mol-Kelvin
 Total                  213.515             69.189            131.485
 Electronic               0.000              0.000              0.000
 Translational            0.889              2.981             42.984
 Rotational               0.889              2.981             34.454
 Vibrational            211.738             63.227             54.048
 Vibration     1          0.594              1.983              5.612
 Vibration     2          0.597              1.974              4.482
 Vibration     3          0.600              1.962              3.858
 Vibration     4          0.603              1.952              3.529
 Vibration     5          0.608              1.936              3.173
 Vibration     6          0.613              1.920              2.891
 Vibration     7          0.624              1.883              2.470
 Vibration     8          0.629              1.869              2.343
 Vibration     9          0.656              1.784              1.827
 Vibration    10          0.665              1.757              1.706
 Vibration    11          0.671              1.737              1.626
 Vibration    12          0.677              1.720              1.564
 Vibration    13          0.682              1.704              1.512
 Vibration    14          0.696              1.664              1.389
 Vibration    15          0.716              1.607              1.238
 Vibration    16          0.722              1.589              1.198
 Vibration    17          0.742              1.533              1.079
 Vibration    18          0.755              1.499              1.013
 Vibration    19          0.775              1.448              0.925
 Vibration    20          0.809              1.359              0.794
 Vibration    21          0.821              1.332              0.758
 Vibration    22          0.843              1.279              0.692
 Vibration    23          0.861              1.236              0.643
 Vibration    24          0.894              1.164              0.568
 Vibration    25          0.919              1.111              0.518
 Vibration    26          0.931              1.086              0.495
 Vibration    27          0.943              1.062              0.475

                           ! Non-Optimized Parameters !
 Normal termination of Gaussian 16 at Wed Mar  2 08:23:03 2022.

 ------------------------------------------
 #p b3lyp/6-31G(d) geom=allcheck guess=read
 ------------------------------------------

 Structure from the checkpoint file:  "19.n.pdb.xyz.mst.wat.chk"
 ------------
 19.n.pdb.xyz
 ------------
 Charge =  0 Multiplicity = 1

 SCF Done:  E(RB3LYP) =  -1286.90484187     A.U. after   11 cycles
 Normal termination of Gaussian 16 at Wed Mar  2 08:27:15 2022.
 Gaussian 16:  ES64L-G16RevA.03 25-Dec-2016

 ----------------------------------------------------------------------
 #p b3lyp/6-31G(d) scrf=(iefpcm,read,solvent=water) geom=allcheck guess
 =read
 ----------------------------------------------------------------------

 Structure from the checkpoint file:  "19.n.pdb.xyz.mst.wat.chk"
 ------------
 19.n.pdb.xyz
 ------------
 Charge =  0 Multiplicity = 1

                         Standard orientation:
 ---------------------------------------------------------------------
 Center     Atomic      Atomic             Coordinates (Angstroms)
 Number     Number       Type             X           Y           Z
 ---------------------------------------------------------------------
      1          6           0       -3.409718   -3.487922   -0.326244
      2          7           0       -2.249218   -2.613414   -0.283616
      3          6           0       -1.906535   -2.218144    1.083791
      4          6           0       -0.532308   -1.507972    1.115097
      5          6           0       -0.127081   -1.026378   -0.297478
      6          6           0       -1.347618   -0.370850   -0.988915
      7          6           0       -2.443070   -1.453949   -1.164136
      8          6           0       -1.783086    0.898901   -0.272343
      9          6           0       -2.970710    1.071698    0.448373
     10          6           0       -3.288901    2.292354    1.049393
     11          6           0       -2.419505    3.377018    0.938213
     12          6           0       -1.225479    3.230725    0.231350
     13          6           0       -0.923243    2.002800   -0.349858
     14          8           0        0.242117    1.919446   -1.106282
     15          6           0        1.291120    1.133392   -0.651875
     16          6           0        2.538238    1.765833   -0.656442
     17          6           0        3.689982    1.082389   -0.284117
     18          6           0        3.564834   -0.250666    0.099229
     19         17           0        5.001554   -1.153376    0.581722
     20          6           0        2.331505   -0.887936    0.099266
     21          6           0        1.159041   -0.214496   -0.281385
     22          1           0       -3.589093   -3.813877   -1.355732
     23          1           0       -3.226175   -4.371750    0.291287
     24          1           0       -4.332100   -2.999099    0.038737
     25          1           0       -2.684377   -1.571329    1.525534
     26          1           0       -1.878842   -3.126652    1.692159
     27          1           0       -0.567470   -0.657359    1.801908
     28          1           0        0.238463   -2.186790    1.491026
     29          1           0        0.090533   -1.926798   -0.881384
     30          1           0       -1.030196   -0.057126   -1.988672
     31          1           0       -2.416481   -1.821558   -2.195201
     32          1           0       -3.442263   -1.010289   -1.022608
     33          1           0       -3.667064    0.246966    0.539038
     34          1           0       -4.219225    2.392036    1.598550
     35          1           0       -2.663514    4.329043    1.397308
     36          1           0       -0.526238    4.052071    0.122458
     37          1           0        2.586075    2.805971   -0.957564
     38          1           0        4.655030    1.573515   -0.286366
     39          1           0        2.269318   -1.932039    0.384322
 ---------------------------------------------------------------------

 SCF Done:  E(RB3LYP) =  -1286.90846848     A.U. after   10 cycles

 The electronic state is 1-A.
 Alpha  occ. eigenvalues -- -101.55356 -19.18730 -14.32406 -10.25848 -10.25336
 Alpha  occ. eigenvalues --  -10.24902 -10.21146 -10.20710 -10.20564 -10.20445
 Alpha  occ. eigenvalues --  -10.20419 -10.20149 -10.20139 -10.20068 -10.20044
 Alpha  occ. eigenvalues --  -10.19829 -10.19440 -10.19368 -10.19347 -10.19171
 Alpha  occ. eigenvalues --  -10.18257  -9.46979  -7.23362  -7.22414  -7.22386
 Alpha  occ. eigenvalues --   -1.07665  -0.92536  -0.89413  -0.86274  -0.84563
 Alpha  occ. eigenvalues --   -0.81440  -0.77524  -0.75977  -0.75322  -0.73645
 Alpha  occ. eigenvalues --   -0.71670  -0.68844  -0.65127  -0.64085  -0.61819
 Alpha  occ. eigenvalues --   -0.60900  -0.59978  -0.58166  -0.54955  -0.52350
 Alpha  occ. eigenvalues --   -0.50882  -0.49703  -0.49489  -0.47640  -0.47502
 Alpha  occ. eigenvalues --   -0.46276  -0.45530  -0.45173  -0.44455  -0.43670
 Alpha  occ. eigenvalues --   -0.42433  -0.42199  -0.41473  -0.39888  -0.39417
 Alpha  occ. eigenvalues --   -0.39161  -0.38489  -0.37874  -0.37554  -0.36952
 Alpha  occ. eigenvalues --   -0.36341  -0.35728  -0.34926  -0.33729  -0.32531
 Alpha  occ. eigenvalues --   -0.32370  -0.31989  -0.31363  -0.30220  -0.25869
 Alpha  occ. eigenvalues --   -0.25404  -0.24501  -0.23132  -0.21162
 Alpha virt. eigenvalues --   -0.02000  -0.00855  -0.00661  -0.00240   0.02551
 Alpha virt. eigenvalues --    0.07923   0.09267   0.10428   0.11687   0.12189
 Alpha virt. eigenvalues --    0.12843   0.13542   0.14223   0.14508   0.15604

 Mulliken charges:
               1
     1  C   -0.304189
     2  N   -0.419938
     3  C   -0.128384
     4  C   -0.285600
     5  C   -0.168265
     6  C   -0.224825
     7  C   -0.126141
     8  C    0.153284
     9  C   -0.233138
    10  C   -0.143539
    11  C   -0.161788
    12  C   -0.172570
    13  C    0.267639
    14  O   -0.591549
    15  C    0.264688
    16  C   -0.177337
    17  C   -0.153115
    18  C   -0.069523
    19  Cl  -0.050409
    20  C   -0.216131
    21  C    0.175814
    22  H    0.155477
    23  H    0.156821
    24  H    0.124731
    25  H    0.127008
    26  H    0.151872
    27  H    0.148456
    28  H    0.153851
    29  H    0.167852
    30  H    0.166123
    31  H    0.153460
    32  H    0.132914
    33  H    0.153673
    34  H    0.150975
    35  H    0.154999
    36  H    0.155357
    37  H    0.165217
    38  H    0.174436
    39  H    0.171794
 Sum of Mulliken charges =  -0.00000

 Dipole moment (field-independent basis, Debye):
    X=             -3.3781    Y=              0.3490    Z=              0.6914  Tot=              3.4658
 Quadrupole moment (field-independent basis, Debye-Ang):
   XX=           -129.9085   YY=           -120.8920   ZZ=           -130.3767
   XY=              7.9477   XZ=             -4.2337   YZ=              1.7166

 Normal termination of Gaussian 16 at Wed Mar  2 08:31:49 2022.
