 Gaussian 16, Revision A.03,

 ----------------------------------------------------------------------
 #p b3lyp/6-31G(d) opt=(MaxStep=10,MaxCycles=1000) freq scf=(MaxCycle=2
 000,NoVarAcc,NoIncFock) scrf=(iefpcm,read,solvent=water)
 ----------------------------------------------------------------------

 -------------
 190.n.pdb.xyz
 -------------
 Symbolic Z-matrix:
 Charge =  0 Multiplicity = 1

 SCF Done:  E(RB3LYP) =  -453.636585716     A.U. after   13 cycles
 SCF Done:  E(RB3LYP) =  -453.639271795     A.U. after   11 cycles
 SCF Done:  E(RB3LYP) =  -453.639790336     A.U. after   11 cycles
 SCF Done:  E(RB3LYP) =  -453.639907932     A.U. after   10 cycles
 SCF Done:  E(RB3LYP) =  -453.639928329     A.U. after   10 cycles
 SCF Done:  E(RB3LYP) =  -453.639960495     A.U. after    9 cycles
 SCF Done:  E(RB3LYP) =  -453.639961732     A.U. after    9 cycles
 SCF Done:  E(RB3LYP) =  -453.639963871     A.U. after    8 cycles
 SCF Done:  E(RB3LYP) =  -453.639963974     A.U. after    8 cycles
 SCF Done:  E(RB3LYP) =  -453.639963895     A.U. after    7 cycles
 Optimization completed.
    -- Stationary point found.
 Normal termination of Gaussian 16 at Tue Mar  1 04:24:29 2022.

 --------------------------------------------------------------------
 #P Geom=AllCheck Guess=TCheck SCRF=Check GenChk RB3LYP/6-31G(d) Freq
 --------------------------------------------------------------------

 Structure from the checkpoint file:  "190.n.pdb.xyz.mst.wat.chk"
 -------------
 190.n.pdb.xyz
 -------------
 Charge =  0 Multiplicity = 1

 SCF Done:  E(RB3LYP) =  -453.639963895     A.U. after    1 cycles

  Exact polarizability: 125.059   0.257 115.245   0.050  -5.212  80.506
 Approx polarizability: 137.550   1.688 133.926  -0.036  -8.569  91.008

                      1                      2                      3
                      A                      A                      A
 Frequencies --     77.7247               175.7239               204.9312
 Red. masses --      2.9031                 3.9530                 2.2046
 Frc consts  --      0.0103                 0.0719                 0.0546
 IR Inten    --      9.0395                 0.0383                 0.5405

                      4                      5                      6
                      A                      A                      A
 Frequencies --    274.4749               301.9262               334.4221
 Red. masses --      2.1578                 2.6186                 3.2895
 Frc consts  --      0.0958                 0.1406                 0.2168
 IR Inten    --      0.4003                 4.3143                 0.4080

                      7                      8                      9
                      A                      A                      A
 Frequencies --    346.9881               468.5220               525.8667
 Red. masses --      5.0557                 3.1667                 1.8531
 Frc consts  --      0.3586                 0.4096                 0.3019
 IR Inten    --      3.0946                 2.3189                 3.0466

                     10                     11                     12
                      A                      A                      A
 Frequencies --    657.9760               675.5682               712.8397
 Red. masses --      2.4110                 4.0539                 5.3838
 Frc consts  --      0.6150                 1.0901                 1.6118
 IR Inten    --      4.3437                 9.3825                 2.6913

                     13                     14                     15
                      A                      A                      A
 Frequencies --    739.6534               812.2599               819.3878
 Red. masses --      7.0710                 1.6319                 2.7868
 Frc consts  --      2.2792                 0.6344                 1.1024
 IR Inten    --      2.5776                16.4090                 3.7584

                     16                     17                     18
                      A                      A                      A
 Frequencies --    890.7615               932.8198               972.9199
 Red. masses --      2.0583                 2.0507                 1.7600
 Frc consts  --      0.9622                 1.0513                 0.9816
 IR Inten    --      4.1261                 8.2116                 3.3598

                     19                     20                     21
                      A                      A                      A
 Frequencies --    999.6480              1033.0600              1048.2339
 Red. masses --      1.8379                 5.1307                 2.7255
 Frc consts  --      1.0821                 3.2261                 1.7645
 IR Inten    --      1.2967                 3.9531                 1.6067

                     22                     23                     24
                      A                      A                      A
 Frequencies --   1111.7409              1125.3759              1139.2269
 Red. masses --      2.0945                 2.2306                 4.5739
 Frc consts  --      1.5253                 1.6645                 3.4975
 IR Inten    --      2.2505                 3.6072                 9.9455

                     25                     26                     27
                      A                      A                      A
 Frequencies --   1153.4322              1197.6159              1222.5681
 Red. masses --      3.3793                 1.3816                 1.7911
 Frc consts  --      2.6488                 1.1676                 1.5773
 IR Inten    --     33.3491                 3.2047                 1.2519

                     28                     29                     30
                      A                      A                      A
 Frequencies --   1261.9677              1275.5099              1304.9496
 Red. masses --      1.4184                 2.5719                 1.5344
 Frc consts  --      1.3309                 2.4653                 1.5395
 IR Inten    --      9.9599                12.1516                14.5797

                     31                     32                     33
                      A                      A                      A
 Frequencies --   1317.5548              1330.8168              1362.3063
 Red. masses --      1.2659                 2.5405                 1.4968
 Frc consts  --      1.2948                 2.6510                 1.6366
 IR Inten    --      2.5917                28.9655                 3.7259

                     34                     35                     36
                      A                      A                      A
 Frequencies --   1382.8782              1398.7525              1404.9273
 Red. masses --      1.5144                 1.5312                 1.4847
 Frc consts  --      1.7063                 1.7651                 1.7266
 IR Inten    --      2.5105                31.2292                15.2165

                     37                     38                     39
                      A                      A                      A
 Frequencies --   1419.0550              1474.5673              1500.4004
 Red. masses --      1.4864                 2.1761                 1.0896
 Frc consts  --      1.7635                 2.7877                 1.4452
 IR Inten    --      7.8012                47.7249                 2.2351

                     40                     41                     42
                      A                      A                      A
 Frequencies --   1503.4032              1510.2545              1518.0538
 Red. masses --      1.1443                 1.1885                 1.1535
 Frc consts  --      1.5238                 1.5972                 1.5662
 IR Inten    --      5.3391                14.9092                 6.1016

                     43                     44                     45
                      A                      A                      A
 Frequencies --   1526.3689              1566.5748              3057.1784
 Red. masses --      1.3004                 4.2349                 1.0609
 Frc consts  --      1.7850                 6.1234                 5.8419
 IR Inten    --      8.5474                40.0230                41.9485

                     46                     47                     48
                      A                      A                      A
 Frequencies --   3060.6537              3068.4099              3072.6147
 Red. masses --      1.0706                 1.0664                 1.0677
 Frc consts  --      5.9089                 5.9154                 5.9392
 IR Inten    --     17.9177                43.7059                 6.6527

                     49                     50                     51
                      A                      A                      A
 Frequencies --   3094.3909              3101.8531              3114.0749
 Red. masses --      1.0976                 1.0671                 1.1011
 Frc consts  --      6.1921                 6.0490                 6.2915
 IR Inten    --     56.0917                12.3101                62.4948

                     52                     53                     54
                      A                      A                      A
 Frequencies --   3121.5004              3127.9846              3167.5886
 Red. masses --      1.0989                 1.0941                 1.1015
 Frc consts  --      6.3084                 6.3073                 6.5119
 IR Inten    --     81.8048                19.0388                14.5339

 - Thermochemistry -
 -------------------
 Temperature   298.150 Kelvin.  Pressure   1.00000 Atm.
 Atom     1 has atomic number  6 and mass  12.00000

 Molecular mass:   138.09055 amu.
 Principal axes and moments of inertia in atomic units:
                           1         2         3
     Eigenvalues --   670.772941519.727432034.30147
           X            1.00000  -0.00154  -0.00005
           Y            0.00154   0.99998   0.00604
           Z            0.00004  -0.00604   0.99998
 This molecule is an asymmetric top.
 Rotational symmetry number  1.
 Warning -- assumption of classical behavior for rotation
           may cause significant error
 Rotational temperatures (Kelvin)      0.12913     0.05699     0.04258
 Rotational constants (GHZ):           2.69054     1.18754     0.88716
 Zero-point vibrational energy     448601.2 (Joules/Mol)
                                  107.21825 (Kcal/Mol)
 Warning -- explicit consideration of   9 degrees of freedom as
           vibrations may cause significant error
 Vibrational temperatures:    111.83   252.83   294.85   394.91   434.40
          (Kelvin)            481.16   499.24   674.10   756.60   946.68
                              971.99  1025.62  1064.20  1168.66  1178.92
                             1281.61  1342.12  1399.81  1438.27  1486.34
                             1508.17  1599.55  1619.16  1639.09  1659.53
                             1723.10  1759.00  1815.69  1835.17  1877.53
                             1895.67  1914.75  1960.05  1989.65  2012.49
                             2021.38  2041.70  2121.57  2158.74  2163.06
                             2172.92  2184.14  2196.10  2253.95  4398.60
                             4403.60  4414.76  4420.81  4452.14  4462.87
                             4480.46  4491.14  4500.47  4557.45

 Zero-point correction=                           0.170863 (Hartree/Particle)
 Thermal correction to Energy=                    0.178794
 Thermal correction to Enthalpy=                  0.179738
 Thermal correction to Gibbs Free Energy=         0.138017
 Sum of electronic and zero-point Energies=           -453.469101
 Sum of electronic and thermal Energies=              -453.461170
 Sum of electronic and thermal Enthalpies=            -453.460226
 Sum of electronic and thermal Free Energies=         -453.501947

                     E (Thermal)             CV                S
                      KCal/Mol        Cal/Mol-Kelvin    Cal/Mol-Kelvin
 Total                  112.195             30.948             87.809
 Electronic               0.000              0.000              0.000
 Translational            0.889              2.981             40.680
 Rotational               0.889              2.981             29.118
 Vibrational            110.417             24.987             18.011
 Vibration     1          0.599              1.964              3.948
 Vibration     2          0.628              1.872              2.373
 Vibration     3          0.640              1.833              2.088
 Vibration     4          0.677              1.720              1.568
 Vibration     5          0.694              1.670              1.406
 Vibration     6          0.716              1.607              1.239
 Vibration     7          0.725              1.581              1.180
 Vibration     8          0.826              1.320              0.742
 Vibration     9          0.881              1.193              0.597

 Optimization completed.
    -- Stationary point found.
 Normal termination of Gaussian 16 at Tue Mar  1 04:33:08 2022.

 ------------------------------------------
 #p b3lyp/6-31G(d) geom=allcheck guess=read
 ------------------------------------------

 Structure from the checkpoint file:  "190.n.pdb.xyz.mst.wat.chk"
 -------------
 190.n.pdb.xyz
 -------------
 Charge =  0 Multiplicity = 1

 SCF Done:  E(RB3LYP) =  -453.625380863     A.U. after   12 cycles

 1\1\GINC-PIRINEUS1\SP\RB3LYP\6-31G(d)\C6H10N4\UBATOR01\01-Mar-2022\0\\
 #p b3lyp/6-31G(d) geom=allcheck guess=read\\190.n.pdb.xyz\\0,1\C,0,-1.
 7348913648,0.4248022134,0.1301235333\C,0,-0.6123436257,1.3549635445,0.
 6237000683\C,0,0.5890270709,1.4738839718,-0.3128779788\N,0,1.474377149
 7,0.3027586651,-0.220789166\N,0,2.8045783096,0.4418236683,-0.401890664
 2\N,0,3.3203807884,-0.7387266752,-0.2666355601\N,0,2.3615736073,-1.657
 8728741,-0.0020816717\C,0,1.2093904281,-0.9975329864,0.0282925165\C,0,
 -0.1357891517,-1.6022719397,0.2800638846\C,0,-1.272016193,-0.906480729

 Normal termination of Gaussian 16 at Tue Mar  1 04:34:12 2022.
 Gaussian 16:  ES64L-G16RevA.03 25-Dec-2016

 ----------------------------------------------------------------------
 #p b3lyp/6-31G(d) scrf=(iefpcm,read,solvent=water) geom=allcheck guess
 =read
 ----------------------------------------------------------------------

 Structure from the checkpoint file:  "190.n.pdb.xyz.mst.wat.chk"
 -------------
 190.n.pdb.xyz
 -------------
 Charge =  0 Multiplicity = 1

                         Standard orientation:
 ---------------------------------------------------------------------
 Center     Atomic      Atomic             Coordinates (Angstroms)
 Number     Number       Type             X           Y           Z
 ---------------------------------------------------------------------
      1          6           0       -2.484726   -0.039995    0.001476
      2          6           0       -1.629953   -1.183161   -0.574253
      3          6           0       -0.415757   -1.571569    0.268053
      4          7           0        0.692201   -0.617646    0.105817
      5          7           0        1.970707   -1.042754    0.185060
      6          7           0        2.717706    0.000648    0.008003
      7          7           0        1.962999    1.108540   -0.184667
      8          6           0        0.696423    0.712603   -0.125346
      9          6           0       -0.501374    1.596622   -0.275003
     10          6           0       -1.700257    1.151310    0.577107
     11          1           0       -3.132722   -0.435590    0.791133
     12          1           0       -3.148282    0.314399   -0.794838
     13          1           0       -2.254231   -2.075050   -0.676164
     14          1           0       -1.284548   -0.938029   -1.585024
     15          1           0       -0.014012   -2.535704   -0.042414
     16          1           0       -0.664664   -1.635721    1.329984
     17          1           0       -0.182750    2.602802    0.007265
     18          1           0       -0.783631    1.648054   -1.333609
     19          1           0       -1.345701    0.918915    1.587033
     20          1           0       -2.380886    1.999546    0.684939
 ---------------------------------------------------------------------

 SCF Done:  E(RB3LYP) =  -453.639419756     A.U. after   11 cycles

 The electronic state is 1-A.
 Alpha  occ. eigenvalues --  -14.43763 -14.40528 -14.39533 -14.35955 -10.27162
 Alpha  occ. eigenvalues --  -10.24087 -10.20728 -10.19521 -10.19127 -10.18652
 Alpha  occ. eigenvalues --   -1.13767  -0.95382  -0.89604  -0.81182  -0.78613
 Alpha  occ. eigenvalues --   -0.70961  -0.67779  -0.65896  -0.59077  -0.58012
 Alpha  occ. eigenvalues --   -0.52004  -0.50800  -0.47659  -0.46561  -0.45275
 Alpha  occ. eigenvalues --   -0.42126  -0.41573  -0.39199  -0.38983  -0.36641
 Alpha  occ. eigenvalues --   -0.34241  -0.34084  -0.32990  -0.30827  -0.30408
 Alpha  occ. eigenvalues --   -0.29382  -0.28913
 Alpha virt. eigenvalues --   -0.01567   0.01850   0.07764   0.11050   0.12475
 Alpha virt. eigenvalues --    0.12763   0.14251   0.14721   0.16123   0.16740
 Alpha virt. eigenvalues --    0.17223   0.18469   0.19334   0.20281   0.22267

 Mulliken charges:
               1
     1  C   -0.265775
     2  C   -0.300098
     3  C   -0.143942
     4  N   -0.316642
     5  N   -0.099993
     6  N   -0.152096
     7  N   -0.439266
     8  C    0.584950
     9  C   -0.333757
    10  C   -0.287276
    11  H    0.153898
    12  H    0.154436
    13  H    0.174150
    14  H    0.168036
    15  H    0.199274
    16  H    0.199446
    17  H    0.188169
    18  H    0.194009
    19  H    0.158826
    20  H    0.163650
 Sum of Mulliken charges =  -0.00000

 Dipole moment (field-independent basis, Debye):
    X=             -8.6227    Y=             -1.0926    Z=              0.0590  Tot=              8.6918
 Quadrupole moment (field-independent basis, Debye-Ang):
   XX=            -75.2840   YY=            -57.2645   ZZ=            -57.2392
   XY=             -0.9812   XZ=              0.2572   YZ=              0.3280

 1\1\GINC-PIRINEUS1\SP\RB3LYP\6-31G(d)\C6H10N4\UBATOR01\01-Mar-2022\0\\
 #p b3lyp/6-31G(d) scrf=(iefpcm,read,solvent=water) geom=allcheck guess
 =read\\190.n.pdb.xyz\\0,1\C,0,-1.7348913648,0.4248022134,0.1301235333\
 C,0,-0.6123436257,1.3549635445,0.6237000683\C,0,0.5890270709,1.4738839
 718,-0.3128779788\N,0,1.4743771497,0.3027586651,-0.220789166\N,0,2.804
 5783096,0.4418236683,-0.4018906642\N,0,3.3203807884,-0.7387266752,-0.2
 666355601\N,0,2.3615736073,-1.6578728741,-0.0020816717\C,0,1.209390428
 1,-0.9975329864,0.0282925165\C,0,-0.1357891517,-1.6022719397,0.2800638

 Normal termination of Gaussian 16 at Tue Mar  1 04:35:18 2022.
