 Gaussian 16, Revision A.03,

 ----------------------------------------------------------------------
 #p b3lyp/6-31G(d) opt=(MaxStep=10,MaxCycles=1000) freq scf=(MaxCycle=2
 000,NoVarAcc,NoIncFock) scrf=(iefpcm,read,solvent=water)
 ----------------------------------------------------------------------

 -------------
 191.n.pdb.xyz
 -------------
 Symbolic Z-matrix:
 Charge =  0 Multiplicity = 1

 SCF Done:  E(RB3LYP) =  -838.826049708     A.U. after   13 cycles
 SCF Done:  E(RB3LYP) =  -838.830915422     A.U. after   11 cycles
 SCF Done:  E(RB3LYP) =  -838.829605242     A.U. after   11 cycles
 SCF Done:  E(RB3LYP) =  -838.832991778     A.U. after   11 cycles
 SCF Done:  E(RB3LYP) =  -838.833169043     A.U. after   10 cycles
 SCF Done:  E(RB3LYP) =  -838.833168233     A.U. after   10 cycles
 SCF Done:  E(RB3LYP) =  -838.833027424     A.U. after   10 cycles
 SCF Done:  E(RB3LYP) =  -838.833187336     A.U. after   10 cycles
 SCF Done:  E(RB3LYP) =  -838.833195677     A.U. after   10 cycles
 SCF Done:  E(RB3LYP) =  -838.833190929     A.U. after    9 cycles
 SCF Done:  E(RB3LYP) =  -838.833190472     A.U. after    9 cycles
 SCF Done:  E(RB3LYP) =  -838.833217297     A.U. after    9 cycles
 SCF Done:  E(RB3LYP) =  -838.833229498     A.U. after    9 cycles
 SCF Done:  E(RB3LYP) =  -838.833240940     A.U. after    8 cycles
 SCF Done:  E(RB3LYP) =  -838.833255493     A.U. after    8 cycles
 SCF Done:  E(RB3LYP) =  -838.833262350     A.U. after    8 cycles
 SCF Done:  E(RB3LYP) =  -838.833263514     A.U. after    7 cycles
 Optimization completed.
    -- Stationary point found.
 Normal termination of Gaussian 16 at Tue Mar  1 06:53:10 2022.

 --------------------------------------------------------------------
 #P Geom=AllCheck Guess=TCheck SCRF=Check GenChk RB3LYP/6-31G(d) Freq
 --------------------------------------------------------------------

 Structure from the checkpoint file:  "191.n.pdb.xyz.mst.wat.chk"
 -------------
 191.n.pdb.xyz
 -------------
 Charge =  0 Multiplicity = 1

 SCF Done:  E(RB3LYP) =  -838.833263514     A.U. after    1 cycles

  Exact polarizability: 239.789  -4.857 224.446  30.711 -11.386 201.018
 Approx polarizability: 263.352  -5.525 255.183  38.455 -19.283 246.264

                      1                      2                      3
                      A                      A                      A
 Frequencies --     30.1057                38.4134                48.4200
 Red. masses --      3.8685                 3.9609                 8.8307
 Frc consts  --      0.0021                 0.0034                 0.0122
 IR Inten    --      0.0481                 0.0533                 0.9565

                      4                      5                      6
                      A                      A                      A
 Frequencies --     64.7826               101.2539               139.5010
 Red. masses --      5.0460                 5.6829                 5.2569
 Frc consts  --      0.0125                 0.0343                 0.0603
 IR Inten    --      0.2214                 2.5731                 0.9571

                      7                      8                      9
                      A                      A                      A
 Frequencies --    159.7699               216.2149               241.9706
 Red. masses --     11.2435                 4.9979                 4.5913
 Frc consts  --      0.1691                 0.1377                 0.1584
 IR Inten    --      2.6694                 2.3875                 3.2286

                     10                     11                     12
                      A                      A                      A
 Frequencies --    277.4632               307.0593               331.4498
 Red. masses --      8.0530                 5.2799                 6.1303
 Frc consts  --      0.3653                 0.2933                 0.3968
 IR Inten    --      4.6829                 3.4921                11.0805

                     13                     14                     15
                      A                      A                      A
 Frequencies --    349.1499               385.5968               415.5955
 Red. masses --      5.4993                 1.3129                 2.8470
 Frc consts  --      0.3950                 0.1150                 0.2897
 IR Inten    --      0.9749               169.8532                 6.9541

                     16                     17                     18
                      A                      A                      A
 Frequencies --    418.9288               426.3142               500.3802
 Red. masses --      2.9629                 6.7192                 3.8109
 Frc consts  --      0.3064                 0.7195                 0.5622
 IR Inten    --      2.0049                51.9235                15.4510

                     19                     20                     21
                      A                      A                      A
 Frequencies --    533.8966               580.0435               616.9094
 Red. masses --      3.5740                 1.1848                 4.8846
 Frc consts  --      0.6002                 0.2349                 1.0953
 IR Inten    --     28.6465               214.9696                95.4090

                     22                     23                     24
                      A                      A                      A
 Frequencies --    631.2243               632.2505               637.1521
 Red. masses --      6.9420                 6.4858                 9.2053
 Frc consts  --      1.6297                 1.5275                 2.2018
 IR Inten    --      3.8225                 0.9786                22.1220

                     25                     26                     27
                      A                      A                      A
 Frequencies --    656.4386               692.7423               713.6065
 Red. masses --      4.8458                 5.7012                 2.1966
 Frc consts  --      1.2303                 1.6120                 0.6590
 IR Inten    --     38.6133                 8.7082                42.5087

                     28                     29                     30
                      A                      A                      A
 Frequencies --    717.3851               732.6755               750.4433
 Red. masses --      1.8265                 3.7275                 5.4029
 Frc consts  --      0.5538                 1.1789                 1.7927
 IR Inten    --     42.5866                10.6924                34.3962

                     31                     32                     33
                      A                      A                      A
 Frequencies --    757.1331               787.0659               796.5143
 Red. masses --      3.7274                 2.2195                 2.5729
 Frc consts  --      1.2589                 0.8101                 0.9617
 IR Inten    --     57.7566                31.7197                 9.4958

                     34                     35                     36
                      A                      A                      A
 Frequencies --    866.0953               866.8314               930.3210
 Red. masses --      1.2532                 1.2475                 1.7702
 Frc consts  --      0.5539                 0.5523                 0.9027
 IR Inten    --      0.1226                 0.1680                 8.4183

                     37                     38                     39
                      A                      A                      A
 Frequencies --    935.8737               956.3579               983.7281
 Red. masses --      1.6010                 2.8414                 1.3548
 Frc consts  --      0.8262                 1.5312                 0.7724
 IR Inten    --      4.4296                 4.8278                 0.1107

                     40                     41                     42
                      A                      A                      A
 Frequencies --    984.5436               994.9645              1010.2631
 Red. masses --      1.4264                 4.3441                 1.2763
 Frc consts  --      0.8147                 2.5337                 0.7675
 IR Inten    --      0.4222                 6.0736                 0.4690

                     43                     44                     45
                      A                      A                      A
 Frequencies --   1011.2435              1017.1942              1017.9566
 Red. masses --      1.3105                 5.7456                 6.0731
 Frc consts  --      0.7896                 3.5027                 3.7078
 IR Inten    --      0.1763                 4.2894                 1.7178

                     46                     47                     48
                      A                      A                      A
 Frequencies --   1024.6222              1057.6491              1064.1220
 Red. masses --      2.7302                 2.1855                 2.2346
 Frc consts  --      1.6888                 1.4404                 1.4909
 IR Inten    --     48.3898                11.8105                 8.3441

                     49                     50                     51
                      A                      A                      A
 Frequencies --   1099.5719              1115.5358              1137.4086
 Red. masses --      2.1230                 1.6453                 2.3324
 Frc consts  --      1.5123                 1.2063                 1.7778
 IR Inten    --     25.1541                 1.1381                14.6037

                     52                     53                     54
                      A                      A                      A
 Frequencies --   1187.3214              1192.2139              1202.5750
 Red. masses --      1.0910                 1.0931                 1.2400
 Frc consts  --      0.9062                 0.9154                 1.0566
 IR Inten    --      0.0075                 0.0907                10.5631

                     55                     56                     57
                      A                      A                      A
 Frequencies --   1214.5900              1225.0416              1227.4942
 Red. masses --      2.6966                 1.3022                 3.6824
 Frc consts  --      2.3438                 1.1514                 3.2690
 IR Inten    --     19.6027                34.5171                13.4033

                     58                     59                     60
                      A                      A                      A
 Frequencies --   1257.9364              1343.8413              1348.6649
 Red. masses --      3.0184                 4.6980                 2.2517
 Frc consts  --      2.8141                 4.9987                 2.4131
 IR Inten    --    152.7218                25.1008                 3.9245

                     61                     62                     63
                      A                      A                      A
 Frequencies --   1362.4318              1365.1770              1377.8968
 Red. masses --      2.5214                 2.1118                 1.4308
 Frc consts  --      2.7575                 2.3189                 1.6006
 IR Inten    --     24.7103               118.7213                 3.6826

                     64                     65                     66
                      A                      A                      A
 Frequencies --   1399.0844              1421.1786              1493.5657
 Red. masses --      5.2025                 1.9301                 2.2339
 Frc consts  --      6.0000                 2.2968                 2.9360
 IR Inten    --    406.5329                84.7861                30.0017

                     67                     68                     69
                      A                      A                      A
 Frequencies --   1494.7471              1539.0918              1546.3305
 Red. masses --      2.2251                 2.1837                 2.0975
 Frc consts  --      2.9291                 3.0476                 2.9551
 IR Inten    --      8.3953                18.5253                16.3757

                     70                     71                     72
                      A                      A                      A
 Frequencies --   1640.8824              1643.3851              1658.3432
 Red. masses --      5.5040                 5.7820                 5.5309
 Frc consts  --      8.7314                 9.2004                 8.9618
 IR Inten    --      1.2261                 1.0371                 6.0021

                     73                     74                     75
                      A                      A                      A
 Frequencies --   1661.6025              1782.8792              1837.2835
 Red. masses --      5.5460                 9.5738                11.6490
 Frc consts  --      9.0216                17.9300                23.1682
 IR Inten    --      2.1795              1637.4086               343.8772

                     76                     77                     78
                      A                      A                      A
 Frequencies --   3200.4958              3202.0539              3207.7461
 Red. masses --      1.0864                 1.0856                 1.0884
 Frc consts  --      6.5563                 6.5581                 6.5983
 IR Inten    --      3.8489                 0.3625                 5.7112

                     79                     80                     81
                      A                      A                      A
 Frequencies --   3209.7357              3216.9169              3222.0387
 Red. masses --      1.0894                 1.0924                 1.0933
 Frc consts  --      6.6127                 6.6605                 6.6876
 IR Inten    --     21.9514                42.9632                48.7324

                     82                     83                     84
                      A                      A                      A
 Frequencies --   3226.9192              3231.3823              3235.8102
 Red. masses --      1.0966                 1.0936                 1.0934
 Frc consts  --      6.7277                 6.7278                 6.7452
 IR Inten    --     39.8550                27.2506                11.4793

                     85                     86                     87
                      A                      A                      A
 Frequencies --   3243.5259              3615.1041              3624.0556
 Red. masses --      1.0925                 1.0808                 1.0809
 Frc consts  --      6.7721                 8.3224                 8.3640
 IR Inten    --     11.7341               262.1787               120.5280

 - Thermochemistry -
 -------------------
 Temperature   298.150 Kelvin.  Pressure   1.00000 Atm.
 Atom     1 has atomic number  8 and mass  15.99491

 Molecular mass:   252.08988 amu.
 Principal axes and moments of inertia in atomic units:
                           1         2         3
     Eigenvalues --  3906.809454876.820446785.05910
           X            0.99993  -0.00930   0.00687
           Y            0.00926   0.99994   0.00640
           Z           -0.00693  -0.00634   0.99996
 This molecule is an asymmetric top.
 Rotational symmetry number  1.
 Warning -- assumption of classical behavior for rotation
           may cause significant error
 Rotational temperatures (Kelvin)      0.02217     0.01776     0.01277
 Rotational constants (GHZ):           0.46195     0.37007     0.26599
 Zero-point vibrational energy     637738.0 (Joules/Mol)
                                  152.42305 (Kcal/Mol)
 Warning -- explicit consideration of  21 degrees of freedom as
           vibrations may cause significant error
 Vibrational temperatures:     43.32    55.27    69.67    93.21   145.68
          (Kelvin)            200.71   229.87   311.08   348.14   399.21
                              441.79   476.88   502.35   554.79   597.95
                              602.75   613.37   719.94   768.16   834.55
                              887.59   908.19   909.67   916.72   944.47
                              996.70  1026.72  1032.16  1054.16  1079.72
                             1089.35  1132.41  1146.01  1246.12  1247.18
                             1338.52  1346.51  1375.99  1415.37  1416.54
                             1431.53  1453.54  1454.95  1463.52  1464.61
                             1474.20  1521.72  1531.03  1582.04  1605.01
                             1636.48  1708.29  1715.33  1730.24  1747.52
                             1762.56  1766.09  1809.89  1933.49  1940.43
                             1960.24  1964.19  1982.49  2012.97  2044.76
                             2148.91  2150.61  2214.41  2224.82  2360.86
                             2364.46  2385.99  2390.68  2565.17  2643.44
                             4604.80  4607.04  4615.23  4618.09  4628.43
                             4635.79  4642.82  4649.24  4655.61  4666.71
                             5201.33  5214.21

 Zero-point correction=                           0.242902 (Hartree/Particle)
 Thermal correction to Energy=                    0.257926
 Thermal correction to Enthalpy=                  0.258871
 Thermal correction to Gibbs Free Energy=         0.199168
 Sum of electronic and zero-point Energies=           -838.590362
 Sum of electronic and thermal Energies=              -838.575337
 Sum of electronic and thermal Enthalpies=            -838.574393
 Sum of electronic and thermal Free Energies=         -838.634096

                     E (Thermal)             CV                S
                      KCal/Mol        Cal/Mol-Kelvin    Cal/Mol-Kelvin
 Total                  161.851             59.381            125.655
 Electronic               0.000              0.000              0.000
 Translational            0.889              2.981             42.474
 Rotational               0.889              2.981             33.224
 Vibrational            160.074             53.420             49.956
 Vibration     1          0.594              1.984              5.822
 Vibration     2          0.594              1.982              5.339
 Vibration     3          0.595              1.978              4.881
 Vibration     4          0.597              1.971              4.306
 Vibration     5          0.604              1.948              3.430
 Vibration     6          0.615              1.914              2.811
 Vibration     7          0.622              1.892              2.553
 Vibration     8          0.645              1.816              1.991
 Vibration     9          0.658              1.776              1.788
 Vibration    10          0.678              1.715              1.549
 Vibration    11          0.697              1.660              1.378
 Vibration    12          0.714              1.613              1.253
 Vibration    13          0.726              1.577              1.170
 Vibration    14          0.754              1.501              1.017
 Vibration    15          0.779              1.436              0.907
 Vibration    16          0.782              1.429              0.896
 Vibration    17          0.788              1.413              0.871
 Vibration    18          0.856              1.249              0.657
 Vibration    19          0.889              1.175              0.579
 Vibration    20          0.937              1.074              0.485
 Vibration    21          0.977              0.996              0.421

 Optimization completed.
    -- Stationary point found.
 Normal termination of Gaussian 16 at Tue Mar  1 07:31:57 2022.

 ------------------------------------------
 #p b3lyp/6-31G(d) geom=allcheck guess=read
 ------------------------------------------

 Structure from the checkpoint file:  "191.n.pdb.xyz.mst.wat.chk"
 -------------
 191.n.pdb.xyz
 -------------
 Charge =  0 Multiplicity = 1

 SCF Done:  E(RB3LYP) =  -838.808998070     A.U. after   12 cycles
 Normal termination of Gaussian 16 at Tue Mar  1 07:35:00 2022.
 Gaussian 16:  ES64L-G16RevA.03 25-Dec-2016

 ----------------------------------------------------------------------
 #p b3lyp/6-31G(d) scrf=(iefpcm,read,solvent=water) geom=allcheck guess
 =read
 ----------------------------------------------------------------------

 Structure from the checkpoint file:  "191.n.pdb.xyz.mst.wat.chk"
 -------------
 191.n.pdb.xyz
 -------------
 Charge =  0 Multiplicity = 1

                         Standard orientation:
 ---------------------------------------------------------------------
 Center     Atomic      Atomic             Coordinates (Angstroms)
 Number     Number       Type             X           Y           Z
 ---------------------------------------------------------------------
      1          8           0        0.274284    3.787957   -1.200607
      2          6           0        0.136304    2.745636   -0.579156
      3          7           0        0.052738    2.637419    0.820486
      4          6           0       -0.025093    1.344594    1.252041
      5          8           0       -0.100403    0.957741    2.405119
      6          6           0       -0.007277    0.452295   -0.022414
      7          7           0        0.020468    1.480215   -1.064117
      8          6           0        1.251411   -0.424630   -0.094120
      9          6           0        2.261493   -0.373779    0.871406
     10          6           0        3.415049   -1.150748    0.731701
     11          6           0        3.571482   -1.983857   -0.374761
     12          6           0        2.564138   -2.043626   -1.341317
     13          6           0        1.411332   -1.273563   -1.199844
     14          6           0       -1.294217   -0.381108   -0.052169
     15          6           0       -1.404139   -1.514923    0.762880
     16          6           0       -2.581474   -2.260164    0.780599
     17          6           0       -3.663105   -1.884169   -0.020003
     18          6           0       -3.558420   -0.755798   -0.833291
     19          6           0       -2.381335   -0.004554   -0.845215
     20          1           0        0.054735    3.446112    1.432480
     21          1           0        0.247356    1.276426   -2.029517
     22          1           0        2.145153    0.257317    1.743273
     23          1           0        4.187562   -1.101448    1.491943
     24          1           0        4.467372   -2.586195   -0.483248
     25          1           0        2.673879   -2.692925   -2.203574
     26          1           0        0.630350   -1.335452   -1.951223
     27          1           0       -0.565313   -1.816135    1.379618
     28          1           0       -2.652088   -3.136786    1.416171
     29          1           0       -4.577472   -2.468153   -0.010694
     30          1           0       -4.391599   -0.455790   -1.460471
     31          1           0       -2.300313    0.874372   -1.473463
 ---------------------------------------------------------------------

 SCF Done:  E(RB3LYP) =  -838.832018449     A.U. after   11 cycles

 The electronic state is 1-A.
 Alpha  occ. eigenvalues --  -19.14689 -19.13176 -14.38503 -14.36778 -10.33253
 Alpha  occ. eigenvalues --  -10.31650 -10.26453 -10.21150 -10.20757 -10.19750
 Alpha  occ. eigenvalues --  -10.19620 -10.19583 -10.19530 -10.19470 -10.19418
 Alpha  occ. eigenvalues --  -10.19397 -10.19366 -10.19342 -10.19305  -1.07844
 Alpha  occ. eigenvalues --   -1.05143  -0.98098  -0.91177  -0.86359  -0.85707
 Alpha  occ. eigenvalues --   -0.79261  -0.75235  -0.75029  -0.74712  -0.70653
 Alpha  occ. eigenvalues --   -0.65125  -0.63500  -0.61389  -0.60875  -0.60206
 Alpha  occ. eigenvalues --   -0.58063  -0.53162  -0.53000  -0.50857  -0.50035
 Alpha  occ. eigenvalues --   -0.48043  -0.47511  -0.45858  -0.45622  -0.44969
 Alpha  occ. eigenvalues --   -0.44338  -0.43415  -0.42706  -0.42594  -0.42209
 Alpha  occ. eigenvalues --   -0.41612  -0.39557  -0.37279  -0.36669  -0.36011
 Alpha  occ. eigenvalues --   -0.35189  -0.34666  -0.34493  -0.29893  -0.29270
 Alpha  occ. eigenvalues --   -0.28023  -0.26807  -0.26021  -0.25704  -0.25326
 Alpha  occ. eigenvalues --   -0.24621
 Alpha virt. eigenvalues --   -0.02701  -0.01460  -0.01270  -0.00095   0.00191
 Alpha virt. eigenvalues --    0.06371   0.09569   0.10289   0.10778   0.12385
 Alpha virt. eigenvalues --    0.13501   0.14646   0.15032   0.15147   0.15871

 Mulliken charges:
               1
     1  O   -0.575994
     2  C    0.776434
     3  N   -0.644989
     4  C    0.642294
     5  O   -0.548025
     6  C   -0.034270
     7  N   -0.646410
     8  C    0.162001
     9  C   -0.192688
    10  C   -0.154733
    11  C   -0.139304
    12  C   -0.152319
    13  C   -0.182454
    14  C    0.152745
    15  C   -0.180770
    16  C   -0.156265
    17  C   -0.141889
    18  C   -0.149569
    19  C   -0.187608
    20  H    0.406698
    21  H    0.397370
    22  H    0.159058
    23  H    0.155841
    24  H    0.154558
    25  H    0.156376
    26  H    0.155725
    27  H    0.152343
    28  H    0.154059
    29  H    0.152718
    30  H    0.153248
    31  H    0.155821
 Sum of Mulliken charges =  -0.00000

 Dipole moment (field-independent basis, Debye):
    X=              0.4192    Y=             -2.7105    Z=             -1.7598  Tot=              3.2588
 Quadrupole moment (field-independent basis, Debye-Ang):
   XX=            -95.5214   YY=           -113.0533   ZZ=           -109.2588
   XY=             -2.5518   XZ=              3.9502   YZ=              9.8831

 Normal termination of Gaussian 16 at Tue Mar  1 07:38:18 2022.
