 Gaussian 16, Revision A.03,

 ----------------------------------------------------------------------
 #p b3lyp/6-31G(d) opt=(MaxStep=10,MaxCycles=1000) freq scf=(MaxCycle=2
 000,NoVarAcc,NoIncFock) scrf=(iefpcm,read,solvent=water)
 ----------------------------------------------------------------------

 -------------
 192.n.pdb.xyz
 -------------
 Symbolic Z-matrix:
 Charge =  0 Multiplicity = 1

 SCF Done:  E(RB3LYP) =  -812.570413838     A.U. after   13 cycles
 SCF Done:  E(RB3LYP) =  -812.575263652     A.U. after   11 cycles
 SCF Done:  E(RB3LYP) =  -812.576701843     A.U. after   12 cycles
 SCF Done:  E(RB3LYP) =  -812.577845249     A.U. after   11 cycles
 SCF Done:  E(RB3LYP) =  -812.578303475     A.U. after   11 cycles
 SCF Done:  E(RB3LYP) =  -812.575768579     A.U. after   13 cycles
 SCF Done:  E(RB3LYP) =  -812.578447816     A.U. after   10 cycles
 SCF Done:  E(RB3LYP) =  -812.578083178     A.U. after   11 cycles
 SCF Done:  E(RB3LYP) =  -812.578543808     A.U. after    9 cycles
 SCF Done:  E(RB3LYP) =  -812.578586511     A.U. after    9 cycles
 SCF Done:  E(RB3LYP) =  -812.580787002     A.U. after    8 cycles
 SCF Done:  E(RB3LYP) =  -812.580792174     A.U. after    8 cycles
 SCF Done:  E(RB3LYP) =  -812.580797247     A.U. after    8 cycles
 SCF Done:  E(RB3LYP) =  -812.580799842     A.U. after    8 cycles
 SCF Done:  E(RB3LYP) =  -812.580800170     A.U. after    7 cycles
 SCF Done:  E(RB3LYP) =  -812.580800462     A.U. after    7 cycles
 SCF Done:  E(RB3LYP) =  -812.580800346     A.U. after    7 cycles
 Optimization completed.
    -- Stationary point found.
 Normal termination of Gaussian 16 at Tue Mar  1 15:51:20 2022.

 --------------------------------------------------------------------
 #P Geom=AllCheck Guess=TCheck SCRF=Check GenChk RB3LYP/6-31G(d) Freq
 --------------------------------------------------------------------

 Structure from the checkpoint file:  "192.n.pdb.xyz.mst.wat.chk"
 -------------
 192.n.pdb.xyz
 -------------
 Charge =  0 Multiplicity = 1

 SCF Done:  E(RB3LYP) =  -812.580800346     A.U. after    1 cycles

  Exact polarizability: 204.382  12.988 153.146  -0.426   0.265  58.505
 Approx polarizability: 216.349  15.481 183.035  -1.360   0.931  68.628

                      1                      2                      3
                      A                      A                      A
 Frequencies --     61.4091               100.1507               152.0731
 Red. masses --      5.0838                 4.3471                 4.0102
 Frc consts  --      0.0113                 0.0257                 0.0546
 IR Inten    --      1.4961                50.5687                 9.7524

                      4                      5                      6
                      A                      A                      A
 Frequencies --    164.5355               221.3212               279.2011
 Red. masses --      1.1345                 2.9720                 1.7428
 Frc consts  --      0.0181                 0.0858                 0.0800
 IR Inten    --      1.6344                17.2256               255.0853

                      7                      8                      9
                      A                      A                      A
 Frequencies --    307.7086               314.0731               337.7849
 Red. masses --      3.8325                 2.3862                 5.1207
 Frc consts  --      0.2138                 0.1387                 0.3442
 IR Inten    --     14.7576               135.9109                10.1410

                     10                     11                     12
                      A                      A                      A
 Frequencies --    386.9214               418.6826               456.0766
 Red. masses --      1.1062                 3.6506                 1.2625
 Frc consts  --      0.0976                 0.3770                 0.1547
 IR Inten    --    361.3355                36.1720               372.4585

                     13                     14                     15
                      A                      A                      A
 Frequencies --    544.6688               551.7119               587.7917
 Red. masses --      2.8801                 6.2507                 3.8685
 Frc consts  --      0.5034                 1.1210                 0.7875
 IR Inten    --      1.2153                 1.2987                 2.5839

                     16                     17                     18
                      A                      A                      A
 Frequencies --    634.6343               641.0674               662.2669
 Red. masses --      1.7132                 4.8691                 2.1993
 Frc consts  --      0.4065                 1.1790                 0.5683
 IR Inten    --      3.5107                43.9792                36.3524

                     19                     20                     21
                      A                      A                      A
 Frequencies --    714.1395               735.2121               816.2678
 Red. masses --      1.3067                 8.8443                 5.8290
 Frc consts  --      0.3927                 2.8167                 2.2883
 IR Inten    --     35.1969                44.0691                34.6538

                     22                     23                     24
                      A                      A                      A
 Frequencies --    852.7660               975.4720              1018.3146
 Red. masses --      4.6609                 5.5086                 4.3463
 Frc consts  --      1.9970                 3.0883                 2.6554
 IR Inten    --     73.5965                75.8025                66.3338

                     25                     26                     27
                      A                      A                      A
 Frequencies --   1030.8840              1076.1272              1105.8851
 Red. masses --      1.6155                 1.4978                 1.3392
 Frc consts  --      1.0115                 1.0220                 0.9650
 IR Inten    --     10.9323                 5.9180                 5.3939

                     28                     29                     30
                      A                      A                      A
 Frequencies --   1117.3792              1175.4366              1284.3209
 Red. masses --      1.8603                 1.5214                 4.8386
 Frc consts  --      1.3685                 1.2385                 4.7024
 IR Inten    --      7.4597                35.9694               235.9387

                     31                     32                     33
                      A                      A                      A
 Frequencies --   1349.9994              1434.8074              1495.4241
 Red. masses --      4.0413                 1.2943                 1.0443
 Frc consts  --      4.3394                 1.5699                 1.3759
 IR Inten    --    199.0704                 7.6175                 9.3261

                     34                     35                     36
                      A                      A                      A
 Frequencies --   1500.3878              1501.8422              1524.9741
 Red. masses --      1.2989                 2.4446                 5.5331
 Frc consts  --      1.7227                 3.2487                 7.5813
 IR Inten    --     50.3791               154.4665              1028.4882

                     37                     38                     39
                      A                      A                      A
 Frequencies --   1548.3063              1597.1908              1634.7004
 Red. masses --      2.5687                 4.4949                 1.7090
 Frc consts  --      3.6281                 6.7559                 2.6907
 IR Inten    --   1131.9488                10.9647               786.5748

                     40                     41                     42
                      A                      A                      A
 Frequencies --   1646.0615              3055.3395              3108.8342
 Red. masses --      1.3481                 1.0370                 1.1014
 Frc consts  --      2.1522                 5.7038                 6.2719
 IR Inten    --    679.6373                53.2553                32.4948

                     43                     44                     45
                      A                      A                      A
 Frequencies --   3142.1672              3288.1867              3475.3833
 Red. masses --      1.1018                 1.0948                 1.0560
 Frc consts  --      6.4096                 6.9740                 7.5148
 IR Inten    --     31.4455                 3.2466               223.4594

                     46                     47                     48
                      A                      A                      A
 Frequencies --   3571.2756              3651.9950              3681.0851
 Red. masses --      1.0484                 1.0978                 1.1023
 Frc consts  --      7.8780                 8.6262                 8.8003
 IR Inten    --    148.2839               248.3778               100.9038

 - Thermochemistry -
 -------------------
 Temperature   298.150 Kelvin.  Pressure   1.00000 Atm.
 Atom     1 has atomic number  6 and mass  12.00000

 Molecular mass:   156.04697 amu.
 Principal axes and moments of inertia in atomic units:
                           1         2         3
     Eigenvalues --   832.240212374.128293193.57352
           X            0.99972  -0.02362   0.00194
           Y            0.02363   0.99972  -0.00177
           Z           -0.00190   0.00182   1.00000
 This molecule is an asymmetric top.
 Rotational symmetry number  1.
 Warning -- assumption of classical behavior for rotation
           may cause significant error
 Rotational temperatures (Kelvin)      0.10407     0.03648     0.02712
 Rotational constants (GHZ):           2.16853     0.76017     0.56512
 Zero-point vibrational energy     364455.8 (Joules/Mol)
                                   87.10702 (Kcal/Mol)
 Warning -- explicit consideration of  15 degrees of freedom as
           vibrations may cause significant error
 Vibrational temperatures:     88.35   144.09   218.80   236.73   318.43
          (Kelvin)            401.71   442.72   451.88   486.00   556.69
                              602.39   656.19   783.66   793.79   845.70
                              913.10   922.35   952.85  1027.49  1057.81
                             1174.43  1226.94  1403.49  1465.13  1483.21
                             1548.31  1591.12  1607.66  1691.19  1847.85
                             1942.35  2064.37  2151.58  2158.72  2160.82
                             2194.10  2227.67  2298.00  2351.97  2368.32
                             4395.95  4472.92  4520.88  4730.97  5000.30
                             5138.27  5254.41  5296.26

 Zero-point correction=                           0.138814 (Hartree/Particle)
 Thermal correction to Energy=                    0.149049
 Thermal correction to Enthalpy=                  0.149993
 Thermal correction to Gibbs Free Energy=         0.103120
 Sum of electronic and zero-point Energies=           -812.441986
 Sum of electronic and thermal Energies=              -812.431751
 Sum of electronic and thermal Enthalpies=            -812.430807
 Sum of electronic and thermal Free Energies=         -812.477680

                     E (Thermal)             CV                S
                      KCal/Mol        Cal/Mol-Kelvin    Cal/Mol-Kelvin
 Total                   93.530             38.330             98.653
 Electronic               0.000              0.000              0.000
 Translational            0.889              2.981             41.044
 Rotational               0.889              2.981             30.224
 Vibrational             91.752             32.368             27.385
 Vibration     1          0.597              1.973              4.411
 Vibration     2          0.604              1.949              3.451
 Vibration     3          0.619              1.900              2.646
 Vibration     4          0.623              1.886              2.497
 Vibration     5          0.648              1.809              1.948
 Vibration     6          0.680              1.712              1.539
 Vibration     7          0.698              1.659              1.375
 Vibration     8          0.702              1.647              1.341
 Vibration     9          0.718              1.600              1.223
 Vibration    10          0.755              1.498              1.012
 Vibration    11          0.782              1.430              0.896
 Vibration    12          0.814              1.347              0.778
 Vibration    13          0.900              1.151              0.555
 Vibration    14          0.907              1.136              0.541
 Vibration    15          0.945              1.058              0.471

 Optimization completed.
    -- Stationary point found.
 Normal termination of Gaussian 16 at Tue Mar  1 15:57:03 2022.

 ------------------------------------------
 #p b3lyp/6-31G(d) geom=allcheck guess=read
 ------------------------------------------

 Structure from the checkpoint file:  "192.n.pdb.xyz.mst.wat.chk"
 -------------
 192.n.pdb.xyz
 -------------
 Charge =  0 Multiplicity = 1

 SCF Done:  E(RB3LYP) =  -812.556227113     A.U. after   12 cycles
 Normal termination of Gaussian 16 at Tue Mar  1 15:57:44 2022.
 Gaussian 16:  ES64L-G16RevA.03 25-Dec-2016

 ----------------------------------------------------------------------
 #p b3lyp/6-31G(d) scrf=(iefpcm,read,solvent=water) geom=allcheck guess
 =read
 ----------------------------------------------------------------------

 Structure from the checkpoint file:  "192.n.pdb.xyz.mst.wat.chk"
 -------------
 192.n.pdb.xyz
 -------------
 Charge =  0 Multiplicity = 1

                         Standard orientation:
 ---------------------------------------------------------------------
 Center     Atomic      Atomic             Coordinates (Angstroms)
 Number     Number       Type             X           Y           Z
 ---------------------------------------------------------------------
      1          6           0       -2.732757    1.909807   -0.009351
      2          6           0       -1.913734    0.653554   -0.004604
      3          6           0       -2.407315   -0.616192   -0.002302
      4         16           0       -1.101566   -1.774675    0.005104
      5          6           0        0.061393   -0.421581    0.004239
      6          7           0        1.373490   -0.750163    0.006007
      7          6           0        2.315350    0.190823   -0.000097
      8          7           0        3.609936   -0.229497   -0.089190
      9          7           0        2.098120    1.518483    0.052724
     10          7           0       -0.531846    0.759319    0.000347
     11          1           0       -3.802148    1.682723   -0.013583
     12          1           0       -2.506276    2.520717   -0.890099
     13          1           0       -2.513593    2.522650    0.872126
     14          1           0       -3.440574   -0.930401   -0.002487
     15          1           0        4.335888    0.408502    0.215069
     16          1           0        3.767455   -1.201745    0.142616
     17          1           0        1.136599    1.840488   -0.030902
     18          1           0        2.862177    2.166407   -0.090930
 ---------------------------------------------------------------------

 SCF Done:  E(RB3LYP) =  -812.579882566     A.U. after   12 cycles

 The electronic state is 1-A.
 Alpha  occ. eigenvalues --  -88.89639 -14.34715 -14.34602 -14.31974 -14.30944
 Alpha  occ. eigenvalues --  -10.30422 -10.27359 -10.21844 -10.19918 -10.18127
 Alpha  occ. eigenvalues --   -7.95837  -5.92226  -5.91900  -5.91508  -0.99434
 Alpha  occ. eigenvalues --   -0.94948  -0.87511  -0.87106  -0.78152  -0.75667
 Alpha  occ. eigenvalues --   -0.67693  -0.62243  -0.57784  -0.56951  -0.53672
 Alpha  occ. eigenvalues --   -0.50570  -0.47903  -0.46609  -0.43738  -0.42979
 Alpha  occ. eigenvalues --   -0.41603  -0.40108  -0.38911  -0.37587  -0.34492
 Alpha  occ. eigenvalues --   -0.28881  -0.27966  -0.27170  -0.26898  -0.26433
 Alpha  occ. eigenvalues --   -0.19587
 Alpha virt. eigenvalues --   -0.01467   0.02798   0.04558   0.09483   0.10068
 Alpha virt. eigenvalues --    0.10649   0.13380   0.14104   0.14427   0.15876
 Alpha virt. eigenvalues --    0.17834   0.18994   0.19798   0.21947   0.25337

 Mulliken charges:
               1
     1  C   -0.516767
     2  C    0.330811
     3  C   -0.424620
     4  S    0.153267
     5  C    0.288225
     6  N   -0.613665
     7  C    0.653768
     8  N   -0.771970
     9  N   -0.774830
    10  N   -0.558882
    11  H    0.165395
    12  H    0.167987
    13  H    0.168031
    14  H    0.184993
    15  H    0.386620
    16  H    0.381518
    17  H    0.389786
    18  H    0.390334
 Sum of Mulliken charges =  -0.00000

 Dipole moment (field-independent basis, Debye):
    X=              4.6389    Y=              3.9471    Z=              0.5999  Tot=              6.1204
 Quadrupole moment (field-independent basis, Debye-Ang):
   XX=            -33.8768   YY=            -61.5197   ZZ=            -69.2500
   XY=              5.5888   XZ=              3.3256   YZ=             -1.1585

 Normal termination of Gaussian 16 at Tue Mar  1 15:58:32 2022.
