 Gaussian 16, Revision A.03,

 ----------------------------------------------------------------------
 #p b3lyp/6-31G(d) opt=(MaxStep=10,MaxCycles=1000) freq scf=(MaxCycle=2
 000,NoVarAcc,NoIncFock) scrf=(iefpcm,read,solvent=water)
 ----------------------------------------------------------------------

 -------------
 193.n.pdb.xyz
 -------------
 Symbolic Z-matrix:
 Charge =  0 Multiplicity = 1

 SCF Done:  E(RB3LYP) =  -997.780247194     A.U. after   10 cycles
 SCF Done:  E(RB3LYP) =  -997.781403023     A.U. after   10 cycles
 SCF Done:  E(RB3LYP) =  -997.781438768     A.U. after    8 cycles
 SCF Done:  E(RB3LYP) =  -997.781438650     A.U. after    8 cycles
 Optimization completed.
    -- Stationary point found.
 Normal termination of Gaussian 16 at Tue Mar  1 17:23:42 2022.

 --------------------------------------------------------------------
 #P Geom=AllCheck Guess=TCheck SCRF=Check GenChk RB3LYP/6-31G(d) Freq
 --------------------------------------------------------------------

 Structure from the checkpoint file:  "193.n.pdb.xyz.mst.wat.chk"
 -------------
 193.n.pdb.xyz
 -------------
 Charge =  0 Multiplicity = 1

 SCF Done:  E(RB3LYP) =  -997.781438650     A.U. after    1 cycles

  Exact polarizability:  72.225   0.006  51.934  -0.000  -0.001  21.579
 Approx polarizability:  85.492   0.017  62.523  -0.000   0.000  26.043

                      1                      2                      3
                      A                      A                      A
 Frequencies --    171.5376               417.3028               568.3500
 Red. masses --     26.4535                 3.9782                 9.3629
 Frc consts  --      0.4586                 0.4082                 1.7819
 IR Inten    --      0.5244                 0.0002                14.1229

                      4                      5                      6
                      A                      A                      A
 Frequencies --    704.3652               722.0566               838.5252
 Red. masses --      9.1239                 1.2261                 4.7323
 Frc consts  --      2.6670                 0.3766                 1.9605
 IR Inten    --     42.7466                80.6405               134.0992

                      7                      8                      9
                      A                      A                      A
 Frequencies --    904.4047              1220.5779              1316.9528
 Red. masses --      1.2389                 1.0456                 1.2063
 Frc consts  --      0.5970                 0.9178                 1.2327
 IR Inten    --      0.0085                 0.2702                39.4196

                     10                     11                     12
                      A                      A                      A
 Frequencies --   1671.5009              3255.6704              3273.7208
 Red. masses --      7.4973                 1.0857                 1.1005
 Frc consts  --     12.3415                 6.7800                 6.9492
 IR Inten    --     55.0619                23.7156                 0.1348

 - Thermochemistry -
 -------------------
 Temperature   298.150 Kelvin.  Pressure   1.00000 Atm.
 Atom     1 has atomic number 17 and mass  34.96885

 Molecular mass:    95.95336 amu.
 Principal axes and moments of inertia in atomic units:
                           1         2         3
     Eigenvalues --   158.09412 732.56316 890.65728
           X            1.00000   0.00001  -0.00000
           Y           -0.00001   1.00000  -0.00002
           Z            0.00000   0.00002   1.00000
 This molecule is an asymmetric top.
 Rotational symmetry number  1.
 Rotational temperatures (Kelvin)      0.54786     0.11823     0.09725
 Rotational constants (GHZ):          11.41561     2.46360     2.02630
 Zero-point vibrational energy      90108.5 (Joules/Mol)
                                   21.53645 (Kcal/Mol)
 Warning -- explicit consideration of   3 degrees of freedom as
           vibrations may cause significant error
 Vibrational temperatures:    246.80   600.41   817.73  1013.42  1038.88
          (Kelvin)           1206.45  1301.24  1756.14  1894.80  2404.92
                             4684.18  4710.15

 Zero-point correction=                           0.034321 (Hartree/Particle)
 Thermal correction to Energy=                    0.038595
 Thermal correction to Enthalpy=                  0.039539
 Thermal correction to Gibbs Free Energy=         0.006031
 Sum of electronic and zero-point Energies=           -997.747118
 Sum of electronic and thermal Energies=              -997.742843
 Sum of electronic and thermal Enthalpies=            -997.741899
 Sum of electronic and thermal Free Energies=         -997.775408

                     E (Thermal)             CV                S
                      KCal/Mol        Cal/Mol-Kelvin    Cal/Mol-Kelvin
 Total                   24.219             13.436             70.525
 Electronic               0.000              0.000              0.000
 Translational            0.889              2.981             39.595
 Rotational               0.889              2.981             26.137
 Vibrational             22.441              7.474              4.794
 Vibration     1          0.626              1.878              2.419
 Vibration     2          0.780              1.433              0.901
 Vibration     3          0.924              1.100              0.507

 Optimization completed.
    -- Stationary point found.
 Normal termination of Gaussian 16 at Tue Mar  1 17:24:10 2022.

 ------------------------------------------
 #p b3lyp/6-31G(d) geom=allcheck guess=read
 ------------------------------------------

 Structure from the checkpoint file:  "193.n.pdb.xyz.mst.wat.chk"
 -------------
 193.n.pdb.xyz
 -------------
 Charge =  0 Multiplicity = 1

 SCF Done:  E(RB3LYP) =  -997.778494984     A.U. after   10 cycles

 1\1\GINC-PIRINEUS6\SP\RB3LYP\6-31G(d)\C2H2Cl2\UBATOR01\01-Mar-2022\0\\
 #p b3lyp/6-31G(d) geom=allcheck guess=read\\193.n.pdb.xyz\\0,1\Cl,0,1.
 7076975812,1.1607429096,-0.2545759633\C,0,0.6507033485,-0.206099654,-0
 .0638977124\C,0,-0.6686586629,-0.127380169,0.0827933459\Cl,0,-1.575946
 3024,1.3540653702,0.1106543703\H,0,1.1569553644,-1.1622245788,-0.07252
 57183\H,0,-1.2717513289,-1.0181038781,0.1975516779\\Version=ES64L-G16R
 evA.03\State=1-A\HF=-997.778495\RMSD=1.916e-09\Dipole=-0.0443139,-0.81
 70828,0.0470555\Quadrupole=-0.9842313,2.6996718,-1.7154406,0.1850718,-

 Normal termination of Gaussian 16 at Tue Mar  1 17:24:15 2022.
 Gaussian 16:  ES64L-G16RevA.03 25-Dec-2016

 ----------------------------------------------------------------------
 #p b3lyp/6-31G(d) scrf=(iefpcm,read,solvent=water) geom=allcheck guess
 =read
 ----------------------------------------------------------------------

 Structure from the checkpoint file:  "193.n.pdb.xyz.mst.wat.chk"
 -------------
 193.n.pdb.xyz
 -------------
 Charge =  0 Multiplicity = 1

                         Standard orientation:
 ---------------------------------------------------------------------
 Center     Atomic      Atomic             Coordinates (Angstroms)
 Number     Number       Type             X           Y           Z
 ---------------------------------------------------------------------
      1         17           0        1.654760   -0.455322   -0.000007
      2          6           0        0.664927    0.973693    0.000052
      3          6           0       -0.664896    0.972734    0.000056
      4         17           0       -1.654784   -0.455114   -0.000008
      5          1           0        1.224078    1.899917   -0.000197
      6          1           0       -1.223845    1.898938   -0.000195
 ---------------------------------------------------------------------

 SCF Done:  E(RB3LYP) =  -997.781313157     A.U. after   10 cycles

 The electronic state is 1-A.
 Alpha  occ. eigenvalues -- -101.56397-101.56385 -10.26064 -10.25974  -9.48042
 Alpha  occ. eigenvalues --   -9.48029  -7.24435  -7.24421  -7.23488  -7.23475
 Alpha  occ. eigenvalues --   -7.23414  -7.23401  -0.90240  -0.86037  -0.74195
 Alpha  occ. eigenvalues --   -0.57951  -0.51084  -0.46658  -0.40893  -0.39503
 Alpha  occ. eigenvalues --   -0.34845  -0.33038  -0.31889  -0.25921
 Alpha virt. eigenvalues --   -0.01027   0.00805   0.05964   0.10852   0.20530
 Alpha virt. eigenvalues --    0.30425   0.31421   0.39058   0.40152   0.41576
 Alpha virt. eigenvalues --    0.42934   0.43439   0.46580   0.46887   0.54251

 Mulliken charges:
               1
     1  Cl  -0.012490
     2  C   -0.224280
     3  C   -0.224322
     4  Cl  -0.011660
     5  H    0.236439
     6  H    0.236314
 Sum of Mulliken charges =  -0.00000

 Dipole moment (field-independent basis, Debye):
    X=             -0.0042    Y=              2.6711    Z=             -0.0003  Tot=              2.6711
 Quadrupole moment (field-independent basis, Debye-Ang):
   XX=            -37.4529   YY=            -31.5767   ZZ=            -38.2533
   XY=              0.0068   XZ=             -0.0000   YZ=             -0.0007

 1\1\GINC-PIRINEUS6\SP\RB3LYP\6-31G(d)\C2H2Cl2\UBATOR01\01-Mar-2022\0\\
 #p b3lyp/6-31G(d) scrf=(iefpcm,read,solvent=water) geom=allcheck guess
 =read\\193.n.pdb.xyz\\0,1\Cl,0,1.7076975812,1.1607429096,-0.2545759633
 \C,0,0.6507033485,-0.206099654,-0.0638977124\C,0,-0.6686586629,-0.1273
 80169,0.0827933459\Cl,0,-1.5759463024,1.3540653702,0.1106543703\H,0,1.
 1569553644,-1.1622245788,-0.0725257183\H,0,-1.2717513289,-1.0181038781
 ,0.1975516779\\Version=ES64L-G16RevA.03\State=1-A\HF=-997.7813132\RMSD
 =9.813e-10\Dipole=-0.0567173,-1.0476328,0.0602395\Quadrupole=-1.254066

 Normal termination of Gaussian 16 at Tue Mar  1 17:24:22 2022.
