 Gaussian 16, Revision A.03,

 ----------------------------------------------------------------------
 #p b3lyp/6-31G(d) opt=(MaxStep=10,MaxCycles=1000) freq scf=(MaxCycle=2
 000,NoVarAcc,NoIncFock) scrf=(iefpcm,read,solvent=water)
 ----------------------------------------------------------------------

 -------------
 194.n.pdb.xyz
 -------------
 Symbolic Z-matrix:
 Charge =  0 Multiplicity = 1

 SCF Done:  E(RB3LYP) =  -3183.43416351     A.U. after   13 cycles
 SCF Done:  E(RB3LYP) =  -3183.43907992     A.U. after   11 cycles
 SCF Done:  E(RB3LYP) =  -3183.44148920     A.U. after   12 cycles
 SCF Done:  E(RB3LYP) =  -3183.44278702     A.U. after   11 cycles
 SCF Done:  E(RB3LYP) =  -3183.44280858     A.U. after   10 cycles
 SCF Done:  E(RB3LYP) =  -3183.44283564     A.U. after   10 cycles
 SCF Done:  E(RB3LYP) =  -3183.44294328     A.U. after   10 cycles
 SCF Done:  E(RB3LYP) =  -3183.44294114     A.U. after    8 cycles
 SCF Done:  E(RB3LYP) =  -3183.44294275     A.U. after    7 cycles
 SCF Done:  E(RB3LYP) =  -3183.44294350     A.U. after    8 cycles
 SCF Done:  E(RB3LYP) =  -3183.44294233     A.U. after    8 cycles
 Optimization completed.
    -- Stationary point found.
 Normal termination of Gaussian 16 at Tue Mar  1 20:32:04 2022.

 --------------------------------------------------------------------
 #P Geom=AllCheck Guess=TCheck SCRF=Check GenChk RB3LYP/6-31G(d) Freq
 --------------------------------------------------------------------

 Structure from the checkpoint file:  "194.n.pdb.xyz.mst.wat.chk"
 -------------
 194.n.pdb.xyz
 -------------
 Charge =  0 Multiplicity = 1

 SCF Done:  E(RB3LYP) =  -3183.44294233     A.U. after    1 cycles

  Exact polarizability: 262.771  -8.905 207.673  11.811  -4.770 123.272
 Approx polarizability: 275.809 -18.810 248.541  14.577  -7.864 139.992

                      1                      2                      3
                      A                      A                      A
 Frequencies --     51.2680                72.4390               102.8200
 Red. masses --      5.9431                 3.7856                 4.5051
 Frc consts  --      0.0092                 0.0117                 0.0281
 IR Inten    --      0.6389                 2.5051                 5.3557

                      4                      5                      6
                      A                      A                      A
 Frequencies --    155.1093               186.4845               244.3476
 Red. masses --      6.8348                 3.7431                 7.1980
 Frc consts  --      0.0969                 0.0767                 0.2532
 IR Inten    --      1.1872                 2.3157                 1.8511

                      7                      8                      9
                      A                      A                      A
 Frequencies --    256.3970               280.5386               294.5887
 Red. masses --      5.3872                 2.1793                 4.2757
 Frc consts  --      0.2087                 0.1011                 0.2186
 IR Inten    --      0.8298                 5.2225                10.2860

                     10                     11                     12
                      A                      A                      A
 Frequencies --    349.9646               364.6754               395.1179
 Red. masses --      2.6654                 4.1903                 2.1978
 Frc consts  --      0.1923                 0.3283                 0.2022
 IR Inten    --      4.5038                 1.4422                 1.9415

                     13                     14                     15
                      A                      A                      A
 Frequencies --    446.3659               472.7358               486.1246
 Red. masses --      4.4742                 4.2308                 3.9248
 Frc consts  --      0.5252                 0.5571                 0.5465
 IR Inten    --      2.7370                 5.6027                 1.1334

                     16                     17                     18
                      A                      A                      A
 Frequencies --    538.6967               555.2056               598.5831
 Red. masses --      4.4200                 5.0693                 5.9960
 Frc consts  --      0.7557                 0.9207                 1.2658
 IR Inten    --      3.2367                 1.8783                24.9971

                     19                     20                     21
                      A                      A                      A
 Frequencies --    659.4595               694.5873               712.0745
 Red. masses --      4.3395                 4.3445                 3.4988
 Frc consts  --      1.1119                 1.2349                 1.0452
 IR Inten    --     10.3177                12.1875                 8.0677

                     22                     23                     24
                      A                      A                      A
 Frequencies --    770.8341               779.1847               793.4789
 Red. masses --      2.7521                 7.3032                 2.6483
 Frc consts  --      0.9635                 2.6124                 0.9824
 IR Inten    --     11.1914                25.1334                63.8995

                     25                     26                     27
                      A                      A                      A
 Frequencies --    813.4363               839.9178               856.6924
 Red. masses --      1.3893                 3.0141                 2.4866
 Frc consts  --      0.5416                 1.2528                 1.0752
 IR Inten    --     25.1231                24.6232               150.1029

                     28                     29                     30
                      A                      A                      A
 Frequencies --    860.4412               920.3401               931.7166
 Red. masses --      3.1248                 1.7697                 2.4543
 Frc consts  --      1.3631                 0.8832                 1.2553
 IR Inten    --    111.3295                33.8821                 1.7594

                     31                     32                     33
                      A                      A                      A
 Frequencies --    972.9791               978.5486               992.3256
 Red. masses --      1.7642                 1.3661                 2.3428
 Frc consts  --      0.9840                 0.7707                 1.3592
 IR Inten    --     16.8753                 1.7697                 7.9561

                     34                     35                     36
                      A                      A                      A
 Frequencies --   1022.4727              1042.3822              1084.4332
 Red. masses --      2.3321                 2.6710                 1.7150
 Frc consts  --      1.4365                 1.7099                 1.1883
 IR Inten    --     29.0679                 5.0192                11.8767

                     37                     38                     39
                      A                      A                      A
 Frequencies --   1114.9908              1117.7473              1135.6126
 Red. masses --      2.6455                 1.8240                 2.7292
 Frc consts  --      1.9377                 1.3426                 2.0737
 IR Inten    --    116.1010                59.4405                53.4393

                     40                     41                     42
                      A                      A                      A
 Frequencies --   1141.9576              1173.6986              1202.5921
 Red. masses --      1.6005                 2.8138                 1.6920
 Frc consts  --      1.2297                 2.2838                 1.4418
 IR Inten    --     26.4453                30.0022                 4.6386

                     43                     44                     45
                      A                      A                      A
 Frequencies --   1209.4795              1231.4149              1243.3350
 Red. masses --      3.1635                 1.1206                 1.8563
 Frc consts  --      2.7265                 1.0012                 1.6907
 IR Inten    --     22.3873                 3.1137                13.0310

                     46                     47                     48
                      A                      A                      A
 Frequencies --   1263.1576              1291.9507              1321.1491
 Red. masses --      1.4350                 1.2693                 1.4465
 Frc consts  --      1.3490                 1.2483                 1.4876
 IR Inten    --      3.1874                22.4169                11.7468

                     49                     50                     51
                      A                      A                      A
 Frequencies --   1343.0903              1357.7242              1365.1056
 Red. masses --      1.5013                 1.2985                 1.6497
 Frc consts  --      1.5956                 1.4103                 1.8113
 IR Inten    --     34.9595                 2.3684                47.2798

                     52                     53                     54
                      A                      A                      A
 Frequencies --   1368.5434              1379.4990              1393.8364
 Red. masses --      1.3941                 1.5129                 1.4744
 Frc consts  --      1.5383                 1.6962                 1.6876
 IR Inten    --     19.0990                 1.9747                26.8061

                     55                     56                     57
                      A                      A                      A
 Frequencies --   1408.0341              1417.4999              1467.9224
 Red. masses --      1.5152                 1.9066                 1.8967
 Frc consts  --      1.7699                 2.2571                 2.4080
 IR Inten    --      6.8528                12.4568                23.2688

                     58                     59                     60
                      A                      A                      A
 Frequencies --   1505.3421              1513.0111              1514.8215
 Red. masses --      1.0823                 1.1241                 1.1004
 Frc consts  --      1.4450                 1.5161                 1.4878
 IR Inten    --      1.5281                 7.9394                 4.3359

                     61                     62                     63
                      A                      A                      A
 Frequencies --   1522.2329              1525.1412              1579.3678
 Red. masses --      1.1850                 1.2085                 6.6191
 Frc consts  --      1.6178                 1.6562                 9.7279
 IR Inten    --     10.9082                17.9786               268.2981

                     64                     65                     66
                      A                      A                      A
 Frequencies --   1635.6976              1702.2249              3048.2778
 Red. masses --      6.2622                10.9438                 1.0676
 Frc consts  --      9.8715                18.6832                 5.8447
 IR Inten    --    147.1188               753.6671                76.1024

                     67                     68                     69
                      A                      A                      A
 Frequencies --   3061.3199              3078.9996              3084.4509
 Red. masses --      1.0654                 1.0631                 1.0692
 Frc consts  --      5.8826                 5.9383                 5.9932
 IR Inten    --     81.8216                33.4060                 9.6159

                     70                     71                     72
                      A                      A                      A
 Frequencies --   3098.8439              3109.0470              3120.5015
 Red. masses --      1.0853                 1.0883                 1.1020
 Frc consts  --      6.1406                 6.1982                 6.3224
 IR Inten    --     56.0600                22.9430                35.1337

                     73                     74                     75
                      A                      A                      A
 Frequencies --   3121.1434              3128.8181              3147.6440
 Red. masses --      1.0980                 1.0988                 1.0985
 Frc consts  --      6.3023                 6.3379                 6.4123
 IR Inten    --    111.7631                72.4137                15.9359

                     76                     77                     78
                      A                      A                      A
 Frequencies --   3231.5563              3249.4468              3508.8212
 Red. masses --      1.0901                 1.0939                 1.0751
 Frc consts  --      6.7074                 6.8055                 7.7985
 IR Inten    --      7.2144                 6.0028                 5.4562

 - Thermochemistry -
 -------------------
 Temperature   298.150 Kelvin.  Pressure   1.00000 Atm.
 Atom     1 has atomic number 35 and mass  78.91834

 Molecular mass:   268.02112 amu.
 Principal axes and moments of inertia in atomic units:
                           1         2         3
     Eigenvalues --  1466.579497532.097518252.46681
           X            0.99998   0.00392  -0.00396
           Y           -0.00393   0.99999  -0.00087
           Z            0.00396   0.00088   0.99999
 This molecule is an asymmetric top.
 Rotational symmetry number  1.
 Warning -- assumption of classical behavior for rotation
           may cause significant error
 Rotational temperatures (Kelvin)      0.05906     0.01150     0.01050
 Rotational constants (GHZ):           1.23058     0.23961     0.21869
 Zero-point vibrational energy     610166.2 (Joules/Mol)
                                  145.83322 (Kcal/Mol)
 Warning -- explicit consideration of  18 degrees of freedom as
           vibrations may cause significant error
 Vibrational temperatures:     73.76   104.22   147.94   223.17   268.31
          (Kelvin)            351.56   368.90   403.63   423.85   503.52
                              524.69   568.49   642.22   680.16   699.42
                              775.06   798.82   861.23   948.82   999.36
                             1024.52  1109.06  1121.07  1141.64  1170.35
                             1208.45  1232.59  1237.98  1324.16  1340.53
                             1399.90  1407.91  1427.74  1471.11  1499.76
                             1560.26  1604.22  1608.19  1633.89  1643.02
                             1688.69  1730.26  1740.17  1771.73  1788.88
                             1817.40  1858.83  1900.84  1932.41  1953.46
                             1964.08  1969.03  1984.79  2005.42  2025.85
                             2039.47  2112.01  2165.85  2176.89  2179.49
                             2190.15  2194.34  2272.36  2353.40  2449.12
                             4385.79  4404.56  4429.99  4437.84  4458.55
                             4473.23  4489.71  4490.63  4501.67  4528.76
                             4649.49  4675.23  5048.41

 Zero-point correction=                           0.232400 (Hartree/Particle)
 Thermal correction to Energy=                    0.244443
 Thermal correction to Enthalpy=                  0.245388
 Thermal correction to Gibbs Free Energy=         0.193123
 Sum of electronic and zero-point Energies=          -3183.210542
 Sum of electronic and thermal Energies=             -3183.198499
 Sum of electronic and thermal Enthalpies=           -3183.197555
 Sum of electronic and thermal Free Energies=        -3183.249819

                     E (Thermal)             CV                S
                      KCal/Mol        Cal/Mol-Kelvin    Cal/Mol-Kelvin
 Total                  153.391             48.421            110.000
 Electronic               0.000              0.000              0.000
 Translational            0.889              2.981             42.657
 Rotational               0.889              2.981             32.877
 Vibrational            151.613             42.459             34.466
 Vibration     1          0.596              1.977              4.768
 Vibration     2          0.599              1.967              4.086
 Vibration     3          0.605              1.947              3.400
 Vibration     4          0.620              1.897              2.609
 Vibration     5          0.632              1.858              2.262
 Vibration     6          0.660              1.772              1.771
 Vibration     7          0.666              1.752              1.686
 Vibration     8          0.680              1.710              1.530
 Vibration     9          0.689              1.684              1.447
 Vibration    10          0.727              1.575              1.166
 Vibration    11          0.738              1.545              1.102
 Vibration    12          0.762              1.481              0.981
 Vibration    13          0.806              1.369              0.807
 Vibration    14          0.830              1.311              0.730
 Vibration    15          0.842              1.281              0.694
 Vibration    16          0.894              1.164              0.568
 Vibration    17          0.911              1.128              0.533
 Vibration    18          0.957              1.035              0.452

 Optimization completed.
    -- Stationary point found.
 Normal termination of Gaussian 16 at Tue Mar  1 20:59:31 2022.

 ------------------------------------------
 #p b3lyp/6-31G(d) geom=allcheck guess=read
 ------------------------------------------

 Structure from the checkpoint file:  "194.n.pdb.xyz.mst.wat.chk"
 -------------
 194.n.pdb.xyz
 -------------
 Charge =  0 Multiplicity = 1

 SCF Done:  E(RB3LYP) =  -3183.42603696     A.U. after   12 cycles
 Normal termination of Gaussian 16 at Tue Mar  1 21:01:53 2022.
 Gaussian 16:  ES64L-G16RevA.03 25-Dec-2016

 ----------------------------------------------------------------------
 #p b3lyp/6-31G(d) scrf=(iefpcm,read,solvent=water) geom=allcheck guess
 =read
 ----------------------------------------------------------------------

 Structure from the checkpoint file:  "194.n.pdb.xyz.mst.wat.chk"
 -------------
 194.n.pdb.xyz
 -------------
 Charge =  0 Multiplicity = 1

                         Standard orientation:
 ---------------------------------------------------------------------
 Center     Atomic      Atomic             Coordinates (Angstroms)
 Number     Number       Type             X           Y           Z
 ---------------------------------------------------------------------
      1         35           0        3.641394   -0.014166    0.224742
      2          6           0        1.796928    0.361157   -0.054968
      3          6           0        1.353300    1.647095   -0.195061
      4          6           0       -0.016418    1.890550   -0.409327
      5          6           0       -0.908052    0.842436   -0.468477
      6          6           0       -2.387535    1.107114   -0.627146
      7          6           0       -3.069293    1.407919    0.768143
      8          7           0       -3.889022    0.315915    1.287474
      9          6           0       -3.248316   -0.986041    1.098399
     10          6           0       -2.813479   -1.288719   -0.376293
     11          6           0       -3.099131   -0.080784   -1.275335
     12          6           0       -1.331903   -1.628624   -0.470076
     13          7           0       -0.447834   -0.444510   -0.330006
     14          6           0        0.914247   -0.774635   -0.134855
     15          8           0        1.255817   -1.962716   -0.055601
     16          1           0        2.052991    2.473424   -0.146291
     17          1           0       -0.384036    2.901695   -0.526144
     18          1           0       -2.473301    2.004641   -1.243465
     19          1           0       -2.291068    1.650816    1.499937
     20          1           0       -3.706499    2.289159    0.666034
     21          1           0       -4.785206    0.313344    0.804675
     22          1           0       -3.937040   -1.758697    1.448517
     23          1           0       -2.368056   -1.026447    1.752024
     24          1           0       -3.354650   -2.165530   -0.739973
     25          1           0       -4.171211    0.117896   -1.351408
     26          1           0       -2.729924   -0.259407   -2.290232
     27          1           0       -1.098692   -2.093883   -1.432722
     28          1           0       -1.032725   -2.334117    0.305564
 ---------------------------------------------------------------------

 SCF Done:  E(RB3LYP) =  -3183.44194157     A.U. after   12 cycles

 The electronic state is 1-A.
 Alpha  occ. eigenvalues -- -482.91449 -61.87598 -56.39737 -56.39316 -56.39312
 Alpha  occ. eigenvalues --  -19.11564 -14.40474 -14.32075 -10.29596 -10.25192
 Alpha  occ. eigenvalues --  -10.24191 -10.22491 -10.21765 -10.21150 -10.20703
 Alpha  occ. eigenvalues --  -10.20315 -10.19421 -10.19371 -10.18756  -8.58713
 Alpha  occ. eigenvalues --   -6.54107  -6.52846  -6.52794  -2.65680  -2.65325
 Alpha  occ. eigenvalues --   -2.65284  -2.64278  -2.64277  -1.04102  -0.96811
 Alpha  occ. eigenvalues --   -0.91213  -0.85079  -0.81077  -0.80295  -0.76541
 Alpha  occ. eigenvalues --   -0.72161  -0.70450  -0.65429  -0.63448  -0.62448
 Alpha  occ. eigenvalues --   -0.61331  -0.54116  -0.52436  -0.50485  -0.49754
 Alpha  occ. eigenvalues --   -0.49015  -0.47158  -0.45601  -0.45070  -0.43854
 Alpha  occ. eigenvalues --   -0.42284  -0.41571  -0.40367  -0.39448  -0.39107
 Alpha  occ. eigenvalues --   -0.38044  -0.36396  -0.36303  -0.35475  -0.33611
 Alpha  occ. eigenvalues --   -0.32646  -0.32140  -0.31462  -0.28992  -0.27693
 Alpha  occ. eigenvalues --   -0.26265  -0.23187  -0.21044
 Alpha virt. eigenvalues --   -0.04222   0.00576   0.00877   0.07172   0.10268
 Alpha virt. eigenvalues --    0.11489   0.12226   0.12792   0.13412   0.14339
 Alpha virt. eigenvalues --    0.15099   0.15781   0.16432   0.16717   0.17664

 Mulliken charges:
               1
     1  Br  -0.140683
     2  C   -0.038426
     3  C   -0.106268
     4  C   -0.255178
     5  C    0.409373
     6  C   -0.192548
     7  C   -0.148470
     8  N   -0.579521
     9  C   -0.164191
    10  C   -0.133162
    11  C   -0.288201
    12  C   -0.141521
    13  N   -0.556857
    14  C    0.606976
    15  O   -0.608038
    16  H    0.182558
    17  H    0.167622
    18  H    0.171562
    19  H    0.154049
    20  H    0.163868
    21  H    0.342046
    22  H    0.160480
    23  H    0.152860
    24  H    0.158681
    25  H    0.157106
    26  H    0.159973
    27  H    0.180858
    28  H    0.185054
 Sum of Mulliken charges =  -0.00000

 Dipole moment (field-independent basis, Debye):
    X=             -7.6664    Y=              3.9869    Z=             -2.5371  Tot=              9.0058
 Quadrupole moment (field-independent basis, Debye-Ang):
   XX=            -93.5305   YY=            -97.5854   ZZ=           -103.1994
   XY=              8.4478   XZ=              7.7265   YZ=             -1.4106

 Normal termination of Gaussian 16 at Tue Mar  1 21:04:36 2022.
