 Gaussian 16, Revision A.03,

 ----------------------------------------------------------------------
 #p b3lyp/6-31G(d) opt=(MaxStep=10,MaxCycles=1000) freq scf=(MaxCycle=2
 000,NoVarAcc,NoIncFock) scrf=(iefpcm,read,solvent=water)
 ----------------------------------------------------------------------

 -------------
 195.n.pdb.xyz
 -------------
 Symbolic Z-matrix:
 Charge =  0 Multiplicity = 1

 SCF Done:  E(RB3LYP) =  -710.330013792     A.U. after   13 cycles
 SCF Done:  E(RB3LYP) =  -710.336073891     A.U. after   10 cycles
 SCF Done:  E(RB3LYP) =  -710.338799557     A.U. after   11 cycles
 SCF Done:  E(RB3LYP) =  -710.341303877     A.U. after   11 cycles
 SCF Done:  E(RB3LYP) =  -710.342579138     A.U. after   10 cycles
 SCF Done:  E(RB3LYP) =  -710.343036375     A.U. after   10 cycles
 SCF Done:  E(RB3LYP) =  -710.343272330     A.U. after   10 cycles
 SCF Done:  E(RB3LYP) =  -710.343307592     A.U. after   10 cycles
 SCF Done:  E(RB3LYP) =  -710.343237568     A.U. after   10 cycles
 SCF Done:  E(RB3LYP) =  -710.343225368     A.U. after    8 cycles
 SCF Done:  E(RB3LYP) =  -710.343306013     A.U. after   10 cycles
 SCF Done:  E(RB3LYP) =  -710.343308156     A.U. after    8 cycles
 SCF Done:  E(RB3LYP) =  -710.343230846     A.U. after   10 cycles
 SCF Done:  E(RB3LYP) =  -710.343231293     A.U. after    6 cycles
 SCF Done:  E(RB3LYP) =  -710.343305735     A.U. after   10 cycles
 SCF Done:  E(RB3LYP) =  -710.343308096     A.U. after    8 cycles
 SCF Done:  E(RB3LYP) =  -710.343231101     A.U. after   10 cycles
 Optimization completed.
    -- Stationary point found.
 Normal termination of Gaussian 16 at Tue Mar  1 22:02:00 2022.

 --------------------------------------------------------------------
 #P Geom=AllCheck Guess=TCheck SCRF=Check GenChk RB3LYP/6-31G(d) Freq
 --------------------------------------------------------------------

 Structure from the checkpoint file:  "195.n.pdb.xyz.mst.wat.chk"
 -------------
 195.n.pdb.xyz
 -------------
 Charge =  0 Multiplicity = 1

 SCF Done:  E(RB3LYP) =  -710.343231101     A.U. after    1 cycles

  Exact polarizability: 233.876   1.493 193.095   7.538  16.852  99.713
 Approx polarizability: 250.306   2.321 238.227   6.724  23.476 116.319

                      1                      2                      3
                      A                      A                      A
 Frequencies --     51.6516                61.5623                85.1276
 Red. masses --      4.3126                 4.3390                 5.6726
 Frc consts  --      0.0068                 0.0097                 0.0242
 IR Inten    --      6.2619                 0.2512                 3.4405

                      4                      5                      6
                      A                      A                      A
 Frequencies --    123.1587               137.2878               173.4255
 Red. masses --      1.1185                 2.8657                 1.1331
 Frc consts  --      0.0100                 0.0318                 0.0201
 IR Inten    --      1.1384                 8.1304                 0.4370

                      7                      8                      9
                      A                      A                      A
 Frequencies --    185.5269               199.3868               256.4729
 Red. masses --      6.3389                 3.4275                 5.1807
 Frc consts  --      0.1286                 0.0803                 0.2008
 IR Inten    --      4.8799                 3.2704                 1.2615

                     10                     11                     12
                      A                      A                      A
 Frequencies --    270.2592               301.1281               367.1837
 Red. masses --      2.8921                 5.0504                 6.5818
 Frc consts  --      0.1245                 0.2698                 0.5228
 IR Inten    --     11.7470                23.8195                 1.8653

                     13                     14                     15
                      A                      A                      A
 Frequencies --    375.0098               412.4105               428.6938
 Red. masses --      5.1780                 5.6914                 3.1943
 Frc consts  --      0.4290                 0.5703                 0.3459
 IR Inten    --      2.4078                 9.5373                 1.1152

                     16                     17                     18
                      A                      A                      A
 Frequencies --    457.4250               521.1475               575.7885
 Red. masses --      5.3416                 2.6892                 5.2435
 Frc consts  --      0.6585                 0.4303                 1.0242
 IR Inten    --     22.2656                15.6439                34.5683

                     19                     20                     21
                      A                      A                      A
 Frequencies --    597.4387               616.9628               629.9214
 Red. masses --      4.8361                 4.0182                 5.9253
 Frc consts  --      1.0170                 0.9012                 1.3853
 IR Inten    --     18.7759                38.9514                21.8886

                     22                     23                     24
                      A                      A                      A
 Frequencies --    648.1825               691.2699               705.4440
 Red. masses --      6.3969                 4.8036                 4.4700
 Frc consts  --      1.5835                 1.3524                 1.3106
 IR Inten    --      1.3764                 9.5264                 3.1950

                     25                     26                     27
                      A                      A                      A
 Frequencies --    738.5040               794.1813               818.7885
 Red. masses --      3.3894                 1.5416                 1.2837
 Frc consts  --      1.0891                 0.5729                 0.5071
 IR Inten    --      4.8576                60.5364                 4.8146

                     28                     29                     30
                      A                      A                      A
 Frequencies --    830.5581               844.6062               875.4873
 Red. masses --      3.2116                 2.1581                 3.7622
 Frc consts  --      1.3053                 0.9070                 1.6990
 IR Inten    --     79.6364                64.5410                14.7055

                     31                     32                     33
                      A                      A                      A
 Frequencies --    939.8161               957.0339              1012.5528
 Red. masses --      1.2702                 1.3044                 3.0920
 Frc consts  --      0.6610                 0.7039                 1.8678
 IR Inten    --      0.6978                 0.6374                17.5764

                     34                     35                     36
                      A                      A                      A
 Frequencies --   1018.6811              1032.1536              1071.5018
 Red. masses --      1.7735                 2.2513                 1.6098
 Frc consts  --      1.0843                 1.4131                 1.0889
 IR Inten    --      2.3461                 8.4991                 8.7881

                     37                     38                     39
                      A                      A                      A
 Frequencies --   1080.3579              1121.7046              1130.7609
 Red. masses --      2.8762                 1.3152                 1.8898
 Frc consts  --      1.9779                 0.9750                 1.4236
 IR Inten    --     50.5479                45.4377                18.7653

                     40                     41                     42
                      A                      A                      A
 Frequencies --   1168.5742              1176.4076              1200.9177
 Red. masses --      1.6903                 1.1199                 1.8364
 Frc consts  --      1.3599                 0.9131                 1.5605
 IR Inten    --     90.1113                12.6892                35.9524

                     43                     44                     45
                      A                      A                      A
 Frequencies --   1254.5060              1259.2238              1264.9855
 Red. masses --      3.0759                 4.2590                 4.2286
 Frc consts  --      2.8521                 3.9789                 3.9868
 IR Inten    --    132.0825                 8.4573               147.1111

                     46                     47                     48
                      A                      A                      A
 Frequencies --   1320.1596              1350.6435              1368.0654
 Red. masses --      1.3683                 8.9507                 6.9254
 Frc consts  --      1.4050                 9.6203                 7.6368
 IR Inten    --     10.3133               120.4382               169.2815

                     49                     50                     51
                      A                      A                      A
 Frequencies --   1421.6587              1440.6654              1459.0121
 Red. masses --      1.9238                 1.4907                 2.8489
 Frc consts  --      2.2908                 1.8229                 3.5731
 IR Inten    --     93.7543                64.7357                 6.8305

                     52                     53                     54
                      A                      A                      A
 Frequencies --   1467.2059              1493.6908              1498.1829
 Red. masses --      1.3946                 1.0567                 1.0474
 Frc consts  --      1.7688                 1.3891                 1.3852
 IR Inten    --     54.7441                30.1483                18.3185

                     55                     56                     57
                      A                      A                      A
 Frequencies --   1505.0627              1530.8382              1549.1818
 Red. masses --      1.1420                 1.1747                 2.7237
 Frc consts  --      1.5241                 1.6220                 3.8514
 IR Inten    --     10.0431                39.2934               370.1468

                     58                     59                     60
                      A                      A                      A
 Frequencies --   1634.8685              1650.8447              1664.8474
 Red. masses --      6.3707                 7.6376                 6.3435
 Frc consts  --     10.0324                12.2637                10.3592
 IR Inten    --    160.8413                34.7480                11.1546

                     61                     62                     63
                      A                      A                      A
 Frequencies --   1727.4981              3070.7035              3071.7218
 Red. masses --     11.7126                 1.0438                 1.0404
 Frc consts  --     20.5939                 5.7989                 5.7837
 IR Inten    --    891.9007                60.3365                28.9540

                     64                     65                     66
                      A                      A                      A
 Frequencies --   3130.9188              3166.7359              3173.2134
 Red. masses --      1.0993                 1.0927                 1.1010
 Frc consts  --      6.3493                 6.4563                 6.5319
 IR Inten    --     14.2621                20.1823                18.0884

                     67                     68                     69
                      A                      A                      A
 Frequencies --   3202.5036              3233.2494              3242.6421
 Red. masses --      1.1049                 1.0891                 1.0910
 Frc consts  --      6.6763                 6.7081                 6.7586
 IR Inten    --     11.6331                10.5969                 8.7442

                     70                     71                     72
                      A                      A                      A
 Frequencies --   3246.3180              3267.4438              3295.7067
 Red. masses --      1.0947                 1.0936                 1.0976
 Frc consts  --      6.7969                 6.8791                 7.0238
 IR Inten    --      3.3260                 1.3258                 1.2873

 - Thermochemistry -
 -------------------
 Temperature   298.150 Kelvin.  Pressure   1.00000 Atm.
 Atom     1 has atomic number  6 and mass  12.00000

 Molecular mass:   206.08554 amu.
 Principal axes and moments of inertia in atomic units:
                           1         2         3
     Eigenvalues --  1295.821675126.675616048.68641
           X            0.99976   0.02178   0.00198
           Y           -0.02178   0.99976   0.00188
           Z           -0.00194  -0.00192   1.00000
 This molecule is an asymmetric top.
 Rotational symmetry number  1.
 Warning -- assumption of classical behavior for rotation
           may cause significant error
 Rotational temperatures (Kelvin)      0.06684     0.01689     0.01432
 Rotational constants (GHZ):           1.39274     0.35203     0.29837
 Zero-point vibrational energy     536206.6 (Joules/Mol)
                                  128.15646 (Kcal/Mol)
 Warning -- explicit consideration of  20 degrees of freedom as
           vibrations may cause significant error
 Vibrational temperatures:     74.32    88.57   122.48   177.20   197.53
          (Kelvin)            249.52   266.93   286.87   369.01   388.84
                              433.26   528.30   539.56   593.37   616.79
                              658.13   749.82   828.43   859.58   887.67
                              906.32   932.59   994.58  1014.98  1062.54
                             1142.65  1178.05  1194.99  1215.20  1259.63
                             1352.19  1376.96  1456.84  1465.65  1485.04
                             1541.65  1554.39  1613.88  1626.91  1681.32
                             1692.59  1727.85  1804.95  1811.74  1820.03
                             1899.42  1943.27  1968.34  2045.45  2072.80
                             2099.19  2110.98  2149.09  2155.55  2165.45
                             2202.53  2228.93  2352.21  2375.20  2395.34
                             2485.48  4418.06  4419.52  4504.69  4556.23
                             4565.55  4607.69  4651.92  4665.44  4670.73
                             4701.12  4741.79

 Zero-point correction=                           0.204230 (Hartree/Particle)
 Thermal correction to Energy=                    0.217563
 Thermal correction to Enthalpy=                  0.218507
 Thermal correction to Gibbs Free Energy=         0.164018
 Sum of electronic and zero-point Energies=           -710.139001
 Sum of electronic and thermal Energies=              -710.125668
 Sum of electronic and thermal Enthalpies=            -710.124724
 Sum of electronic and thermal Free Energies=         -710.179213

                     E (Thermal)             CV                S
                      KCal/Mol        Cal/Mol-Kelvin    Cal/Mol-Kelvin
 Total                  136.523             50.822            114.683
 Electronic               0.000              0.000              0.000
 Translational            0.889              2.981             41.873
 Rotational               0.889              2.981             32.063
 Vibrational            134.745             44.860             40.746
 Vibration     1          0.596              1.977              4.753
 Vibration     2          0.597              1.973              4.406
 Vibration     3          0.601              1.959              3.769
 Vibration     4          0.610              1.930              3.050
 Vibration     5          0.614              1.916              2.841
 Vibration     6          0.627              1.875              2.398
 Vibration     7          0.632              1.860              2.272
 Vibration     8          0.638              1.841              2.139
 Vibration     9          0.666              1.752              1.686
 Vibration    10          0.674              1.728              1.595
 Vibration    11          0.693              1.672              1.411
 Vibration    12          0.740              1.540              1.092
 Vibration    13          0.746              1.523              1.059
 Vibration    14          0.776              1.443              0.918
 Vibration    15          0.790              1.408              0.863
 Vibration    16          0.816              1.344              0.774
 Vibration    17          0.876              1.203              0.607
 Vibration    18          0.932              1.084              0.493
 Vibration    19          0.955              1.037              0.454
 Vibration    20          0.977              0.996              0.421

 Optimization completed.
    -- Stationary point found.
 Normal termination of Gaussian 16 at Tue Mar  1 22:20:27 2022.

 ------------------------------------------
 #p b3lyp/6-31G(d) geom=allcheck guess=read
 ------------------------------------------

 Structure from the checkpoint file:  "195.n.pdb.xyz.mst.wat.chk"
 -------------
 195.n.pdb.xyz
 -------------
 Charge =  0 Multiplicity = 1

 SCF Done:  E(RB3LYP) =  -710.331616818     A.U. after   12 cycles
 Normal termination of Gaussian 16 at Tue Mar  1 22:22:10 2022.
 Gaussian 16:  ES64L-G16RevA.03 25-Dec-2016

 ----------------------------------------------------------------------
 #p b3lyp/6-31G(d) scrf=(iefpcm,read,solvent=water) geom=allcheck guess
 =read
 ----------------------------------------------------------------------

 Structure from the checkpoint file:  "195.n.pdb.xyz.mst.wat.chk"
 -------------
 195.n.pdb.xyz
 -------------
 Charge =  0 Multiplicity = 1

                         Standard orientation:
 ---------------------------------------------------------------------
 Center     Atomic      Atomic             Coordinates (Angstroms)
 Number     Number       Type             X           Y           Z
 ---------------------------------------------------------------------
      1          6           0       -1.532856   -1.824878    1.061314
      2          7           0       -1.657673   -0.752608    0.068215
      3          7           0       -0.775688    0.333154    0.227986
      4          6           0       -1.433921    1.534368   -0.131477
      5          8           0       -0.868735    2.631400   -0.203919
      6          6           0       -2.796144    1.137808   -0.393113
      7          6           0       -2.896113   -0.212183   -0.229270
      8          6           0       -4.104013   -1.085021   -0.308439
      9          6           0        0.618190    0.118589    0.100895
     10          6           0        1.115773   -0.997179   -0.584287
     11          6           0        2.490911   -1.197841   -0.690378
     12          6           0        3.348792   -0.263676   -0.125546
     13          9           0        4.685507   -0.450574   -0.232361
     14          6           0        2.878090    0.855909    0.547451
     15          6           0        1.503741    1.042306    0.672823
     16          1           0       -2.244808   -2.606143    0.800487
     17          1           0       -1.736283   -1.459824    2.073349
     18          1           0       -0.526637   -2.238585    1.014847
     19          1           0       -3.581406    1.811381   -0.699023
     20          1           0       -4.935305   -0.522612   -0.734753
     21          1           0       -3.920357   -1.964028   -0.932485
     22          1           0       -4.406989   -1.437669    0.683432
     23          1           0        0.426424   -1.697078   -1.038675
     24          1           0        2.893055   -2.057539   -1.213384
     25          1           0        3.578847    1.560871    0.977532
     26          1           0        1.112604    1.902155    1.198033
 ---------------------------------------------------------------------

 SCF Done:  E(RB3LYP) =  -710.342437823     A.U. after   12 cycles

 The electronic state is 1-A.
 Alpha  occ. eigenvalues --  -24.70892 -19.11208 -14.41025 -14.40541 -10.28678
 Alpha  occ. eigenvalues --  -10.27434 -10.24842 -10.24213 -10.22483 -10.20467
 Alpha  occ. eigenvalues --  -10.20236 -10.20201 -10.20091 -10.19647 -10.18216
 Alpha  occ. eigenvalues --   -1.21943  -1.06623  -1.00682  -0.89422  -0.84963
 Alpha  occ. eigenvalues --   -0.81229  -0.76369  -0.76065  -0.71311  -0.69187
 Alpha  occ. eigenvalues --   -0.63989  -0.62656  -0.59685  -0.56515  -0.54386
 Alpha  occ. eigenvalues --   -0.52856  -0.50507  -0.48046  -0.47724  -0.46272
 Alpha  occ. eigenvalues --   -0.45110  -0.44600  -0.43796  -0.43463  -0.42352
 Alpha  occ. eigenvalues --   -0.42314  -0.41135  -0.40798  -0.40265  -0.39570
 Alpha  occ. eigenvalues --   -0.38996  -0.36661  -0.35264  -0.33588  -0.29066
 Alpha  occ. eigenvalues --   -0.26871  -0.25614  -0.23590  -0.21385
 Alpha virt. eigenvalues --   -0.02511  -0.01527   0.00673   0.08319   0.09162
 Alpha virt. eigenvalues --    0.09785   0.12084   0.13052   0.14071   0.15062
 Alpha virt. eigenvalues --    0.15728   0.15995   0.16407   0.17009   0.17487

 Mulliken charges:
               1
     1  C   -0.326436
     2  N   -0.323381
     3  N   -0.414903
     4  C    0.584307
     5  O   -0.622556
     6  C   -0.338052
     7  C    0.394032
     8  C   -0.537697
     9  C    0.286012
    10  C   -0.168648
    11  C   -0.221217
    12  C    0.378252
    13  F   -0.311369
    14  C   -0.222389
    15  C   -0.156479
    16  H    0.198468
    17  H    0.183876
    18  H    0.189709
    19  H    0.160967
    20  H    0.191396
    21  H    0.192324
    22  H    0.196220
    23  H    0.177146
    24  H    0.170854
    25  H    0.169760
    26  H    0.169804
 Sum of Mulliken charges =  -0.00000

 Dipole moment (field-independent basis, Debye):
    X=             -4.2297    Y=             -6.9632    Z=              1.2691  Tot=              8.2455
 Quadrupole moment (field-independent basis, Debye-Ang):
   XX=            -75.3949   YY=            -90.5519   ZZ=            -84.1509
   XY=              9.9732   XZ=              0.4766   YZ=              2.5580

 Normal termination of Gaussian 16 at Tue Mar  1 22:24:12 2022.
