 Gaussian 16, Revision A.03,

 ----------------------------------------------------------------------
 #p b3lyp/6-31G(d) opt=(MaxStep=10,MaxCycles=1000) freq scf=(MaxCycle=2
 000,NoVarAcc,NoIncFock) scrf=(iefpcm,read,solvent=water)
 ----------------------------------------------------------------------

 -------------
 196.n.pdb.xyz
 -------------
 Symbolic Z-matrix:
 Charge =  0 Multiplicity = 1

 SCF Done:  E(RB3LYP) =  -680.384862898     A.U. after   13 cycles
 SCF Done:  E(RB3LYP) =  -680.388696346     A.U. after   10 cycles
 SCF Done:  E(RB3LYP) =  -680.388129664     A.U. after   11 cycles
 SCF Done:  E(RB3LYP) =  -680.390068019     A.U. after   10 cycles
 SCF Done:  E(RB3LYP) =  -680.390081456     A.U. after    9 cycles
 SCF Done:  E(RB3LYP) =  -680.390112231     A.U. after    8 cycles
 SCF Done:  E(RB3LYP) =  -680.390116232     A.U. after    8 cycles
 Optimization completed.
    -- Stationary point found.
 Normal termination of Gaussian 16 at Wed Mar  2 00:16:16 2022.

 --------------------------------------------------------------------
 #P Geom=AllCheck Guess=TCheck SCRF=Check GenChk RB3LYP/6-31G(d) Freq
 --------------------------------------------------------------------

 Structure from the checkpoint file:  "196.n.pdb.xyz.mst.wat.chk"
 -------------
 196.n.pdb.xyz
 -------------
 Charge =  0 Multiplicity = 1

 SCF Done:  E(RB3LYP) =  -680.390116232     A.U. after    1 cycles

  Exact polarizability: 192.461   3.522 185.773   0.004   0.026  77.305
 Approx polarizability: 211.483  -2.227 221.964   0.014   0.023  88.348

 ******    2 imaginary frequencies (negative Signs) ******

                      1                      2                      3
                      A                      A                      A
 Frequencies --    -43.1352               -39.7590                88.5046
 Red. masses --      1.0313                 1.0307                 4.8772
 Frc consts  --      0.0011                 0.0010                 0.0225
 IR Inten    --      0.5128                 0.0660                 2.1358

                      4                      5                      6
                      A                      A                      A
 Frequencies --     97.3446               123.3091               126.6890
 Red. masses --      2.3847                 2.6128                 1.8540
 Frc consts  --      0.0133                 0.0234                 0.0175
 IR Inten    --      0.5074                13.0129                 4.1430

                      7                      8                      9
                      A                      A                      A
 Frequencies --    167.5167               205.6732               228.7537
 Red. masses --      3.3062                 3.3351                 4.8255
 Frc consts  --      0.0547                 0.0831                 0.1488
 IR Inten    --      7.9008                14.1313                 1.2100

                     10                     11                     12
                      A                      A                      A
 Frequencies --    277.2460               303.2311               355.8710
 Red. masses --      5.3029                 2.7813                 3.3036
 Frc consts  --      0.2402                 0.1507                 0.2465
 IR Inten    --      0.0265                 2.0302                14.0178

                     13                     14                     15
                      A                      A                      A
 Frequencies --    374.7612               396.5826               422.9645
 Red. masses --      7.2815                 6.2726                 6.5380
 Frc consts  --      0.6025                 0.5813                 0.6891
 IR Inten    --      0.0004                28.3424                44.6991

                     16                     17                     18
                      A                      A                      A
 Frequencies --    447.5473               483.3893               556.6557
 Red. masses --      8.5538                 6.5754                 5.0237
 Frc consts  --      1.0095                 0.9052                 0.9172
 IR Inten    --     13.0728                34.7567                 1.7377

                     19                     20                     21
                      A                      A                      A
 Frequencies --    620.6939               647.9292               702.4702
 Red. masses --      3.7060                 7.4111                 9.2398
 Frc consts  --      0.8412                 1.8331                 2.6864
 IR Inten    --     24.3256                 3.0342                 1.5871

                     22                     23                     24
                      A                      A                      A
 Frequencies --    741.9576               750.9650               751.3644
 Red. masses --     11.1591                 5.8270                11.9246
 Frc consts  --      3.6194                 1.9361                 3.9664
 IR Inten    --     57.2188                17.7416                 1.7412

                     25                     26                     27
                      A                      A                      A
 Frequencies --    816.1078               860.1660               945.4582
 Red. masses --      5.1307                 1.4373                 3.8890
 Frc consts  --      2.0134                 0.6266                 2.0482
 IR Inten    --      0.3309                11.5900                12.9076

                     28                     29                     30
                      A                      A                      A
 Frequencies --    994.7693              1042.6684              1086.6073
 Red. masses --      4.6198                 2.6768                 2.6505
 Frc consts  --      2.6935                 1.7146                 1.8438
 IR Inten    --     63.5273               133.4116                16.8168

                     31                     32                     33
                      A                      A                      A
 Frequencies --   1101.1493              1160.4532              1162.6399
 Red. masses --      1.5689                 1.2859                 1.2880
 Frc consts  --      1.1208                 1.0203                 1.0258
 IR Inten    --      4.0774                 0.9148                 0.0114

                     34                     35                     36
                      A                      A                      A
 Frequencies --   1166.9990              1214.8405              1240.0532
 Red. masses --      1.3048                 1.8020                 5.9662
 Frc consts  --      1.0470                 1.5669                 5.4054
 IR Inten    --      0.0282               104.9915                29.9806

                     37                     38                     39
                      A                      A                      A
 Frequencies --   1271.3654              1279.2485              1327.0479
 Red. masses --      2.6817                 3.1291                 7.1921
 Frc consts  --      2.5539                 3.0170                 7.4624
 IR Inten    --    122.4995                20.1553                69.4207

                     40                     41                     42
                      A                      A                      A
 Frequencies --   1370.0785              1396.7775              1423.1826
 Red. masses --      6.6978                 3.7480                 2.8123
 Frc consts  --      7.4075                 4.3082                 3.3561
 IR Inten    --     61.3518               145.9994                34.4732

                     43                     44                     45
                      A                      A                      A
 Frequencies --   1442.0659              1463.5056              1471.1708
 Red. masses --      1.2651                 1.5144                 1.6283
 Frc consts  --      1.5501                 1.9111                 2.0763
 IR Inten    --     24.0699                78.1943                56.8820

                     46                     47                     48
                      A                      A                      A
 Frequencies --   1501.7748              1502.2640              1502.3334
 Red. masses --      1.2051                 1.1400                 1.1254
 Frc consts  --      1.6014                 1.5159                 1.4966
 IR Inten    --     89.6362                57.6411                68.7963

                     49                     50                     51
                      A                      A                      A
 Frequencies --   1508.0202              1515.2938              1519.7777
 Red. masses --      1.0420                 1.0826                 1.1197
 Frc consts  --      1.3962                 1.4646                 1.5238
 IR Inten    --     13.3256                21.4705                90.2257

                     52                     53                     54
                      A                      A                      A
 Frequencies --   1545.6405              1588.3943              1637.1636
 Red. masses --      1.6351                 5.3459                 9.9976
 Frc consts  --      2.3014                 7.9467                15.7881
 IR Inten    --    102.5628               297.1921               160.2102

                     55                     56                     57
                      A                      A                      A
 Frequencies --   1703.5503              1754.2922              3092.3923
 Red. masses --     12.1578                11.0073                 1.0359
 Frc consts  --     20.7882                19.9588                 5.8367
 IR Inten    --   1434.2090               813.4625                61.3898

                     58                     59                     60
                      A                      A                      A
 Frequencies --   3100.4960              3104.8092              3159.3274
 Red. masses --      1.0344                 1.0312                 1.1060
 Frc consts  --      5.8586                 5.8570                 6.5040
 IR Inten    --     45.6393                36.6884                23.4461

                     61                     62                     63
                      A                      A                      A
 Frequencies --   3166.6735              3182.5741              3199.6565
 Red. masses --      1.1066                 1.1070                 1.1066
 Frc consts  --      6.5382                 6.6065                 6.6752
 IR Inten    --     25.1757                13.6608                10.0095

                     64                     65                     66
                      A                      A                      A
 Frequencies --   3224.5049              3225.5648              3295.1457
 Red. masses --      1.1019                 1.1011                 1.0977
 Frc consts  --      6.7502                 6.7497                 7.0225
 IR Inten    --      1.6769                 1.1542                 1.4670

 - Thermochemistry -
 -------------------
 Temperature   298.150 Kelvin.  Pressure   1.00000 Atm.
 Atom     1 has atomic number  6 and mass  12.00000

 Molecular mass:   194.08038 amu.
 Principal axes and moments of inertia in atomic units:
                           1         2         3
     Eigenvalues --  1698.621812569.608104234.10973
           X            0.99989  -0.01496   0.00000
           Y            0.01496   0.99989   0.00000
           Z           -0.00000  -0.00000   1.00000
 This molecule is an asymmetric top.
 Rotational symmetry number  1.
 Warning -- assumption of classical behavior for rotation
           may cause significant error
 Rotational temperatures (Kelvin)      0.05099     0.03371     0.02046
 Rotational constants (GHZ):           1.06247     0.70234     0.42624
    2 imaginary frequencies ignored.
 Zero-point vibrational energy     497272.2 (Joules/Mol)
                                  118.85091 (Kcal/Mol)
 Warning -- explicit consideration of  17 degrees of freedom as
           vibrations may cause significant error
 Vibrational temperatures:    127.34   140.06   177.41   182.28   241.02
          (Kelvin)            295.92   329.13   398.90   436.28   512.02
                              539.20   570.59   608.55   643.92   695.49
                              800.90   893.04   932.23  1010.70  1067.51
                             1080.47  1081.05  1174.20  1237.59  1360.30
                             1431.25  1500.17  1563.39  1584.31  1669.63
                             1672.78  1679.05  1747.88  1784.16  1829.21
                             1840.55  1909.33  1971.24  2009.65  2047.64
                             2074.81  2105.66  2116.69  2160.72  2161.42
                             2161.52  2169.70  2180.17  2186.62  2223.83
                             2285.35  2355.51  2451.03  2524.04  4449.26
                             4460.92  4467.13  4545.57  4556.14  4579.01
                             4603.59  4639.34  4640.87  4740.98

 Zero-point correction=                           0.189401 (Hartree/Particle)
 Thermal correction to Energy=                    0.200820
 Thermal correction to Enthalpy=                  0.201764
 Thermal correction to Gibbs Free Energy=         0.151952
 Sum of electronic and zero-point Energies=           -680.200715
 Sum of electronic and thermal Energies=              -680.189296
 Sum of electronic and thermal Enthalpies=            -680.188352
 Sum of electronic and thermal Free Energies=         -680.238164

                     E (Thermal)             CV                S
                      KCal/Mol        Cal/Mol-Kelvin    Cal/Mol-Kelvin
 Total                  126.016             43.029            104.838
 Electronic               0.000              0.000              0.000
 Translational            0.889              2.981             41.695
 Rotational               0.889              2.981             31.292
 Vibrational            124.239             37.068             31.852
 Vibration     1          0.601              1.957              3.693
 Vibration     2          0.603              1.951              3.507
 Vibration     3          0.610              1.930              3.048
 Vibration     4          0.611              1.926              2.996
 Vibration     5          0.624              1.882              2.463
 Vibration     6          0.640              1.832              2.082
 Vibration     7          0.651              1.797              1.889
 Vibration     8          0.678              1.716              1.551
 Vibration     9          0.695              1.668              1.399
 Vibration    10          0.731              1.563              1.140
 Vibration    11          0.746              1.524              1.060
 Vibration    12          0.763              1.477              0.975
 Vibration    13          0.785              1.420              0.882
 Vibration    14          0.807              1.366              0.803
 Vibration    15          0.840              1.287              0.701
 Vibration    16          0.912              1.125              0.531
 Vibration    17          0.981              0.988              0.415

                           ! Non-Optimized Parameters !
 Normal termination of Gaussian 16 at Wed Mar  2 00:32:23 2022.

 ------------------------------------------
 #p b3lyp/6-31G(d) geom=allcheck guess=read
 ------------------------------------------

 Structure from the checkpoint file:  "196.n.pdb.xyz.mst.wat.chk"
 -------------
 196.n.pdb.xyz
 -------------
 Charge =  0 Multiplicity = 1

 SCF Done:  E(RB3LYP) =  -680.376305339     A.U. after   12 cycles
 Normal termination of Gaussian 16 at Wed Mar  2 00:33:58 2022.
 Gaussian 16:  ES64L-G16RevA.03 25-Dec-2016

 ----------------------------------------------------------------------
 #p b3lyp/6-31G(d) scrf=(iefpcm,read,solvent=water) geom=allcheck guess
 =read
 ----------------------------------------------------------------------

 Structure from the checkpoint file:  "196.n.pdb.xyz.mst.wat.chk"
 -------------
 196.n.pdb.xyz
 -------------
 Charge =  0 Multiplicity = 1

                         Standard orientation:
 ---------------------------------------------------------------------
 Center     Atomic      Atomic             Coordinates (Angstroms)
 Number     Number       Type             X           Y           Z
 ---------------------------------------------------------------------
      1          6           0        3.320380   -1.012924    0.000014
      2          7           0        2.277122    0.005039    0.000072
      3          6           0        2.456530    1.343215    0.000273
      4          7           0        1.316242    2.038319   -0.000267
      5          6           0        0.358335    1.075195    0.000028
      6          6           0        0.904939   -0.193996   -0.000134
      7          6           0        0.115054   -1.382901   -0.000448
      8          8           0        0.530978   -2.544040   -0.000060
      9          7           0       -1.268343   -1.083547    0.000110
     10          6           0       -2.213327   -2.203384    0.000015
     11          6           0       -1.854221    0.189304    0.000889
     12          8           0       -3.077774    0.313453   -0.000166
     13          7           0       -0.999593    1.280183    0.000142
     14          6           0       -1.543835    2.636654   -0.000306
     15          1           0        3.234508   -1.638110    0.889113
     16          1           0        3.234690   -1.637892   -0.889283
     17          1           0        4.284912   -0.507286    0.000190
     18          1           0        3.444611    1.779198    0.000350
     19          1           0       -1.628391   -3.118573   -0.001418
     20          1           0       -2.846792   -2.159008   -0.886813
     21          1           0       -2.845072   -2.160724    0.888207
     22          1           0       -1.207021    3.172801   -0.888506
     23          1           0       -1.211353    3.173535    0.891095
     24          1           0       -2.626843    2.553807   -0.003507
 ---------------------------------------------------------------------

 SCF Done:  E(RB3LYP) =  -680.389251058     A.U. after   11 cycles

 The electronic state is 1-A.
 Alpha  occ. eigenvalues --  -19.13051 -19.12743 -14.41419 -14.39856 -14.39288
 Alpha  occ. eigenvalues --  -14.33793 -10.33311 -10.31080 -10.26594 -10.26392
 Alpha  occ. eigenvalues --  -10.23059 -10.22663 -10.22040 -10.21366  -1.07469
 Alpha  occ. eigenvalues --   -1.04629  -1.03740  -0.97343  -0.93740  -0.90113
 Alpha  occ. eigenvalues --   -0.79361  -0.73434  -0.73083  -0.71139  -0.65605
 Alpha  occ. eigenvalues --   -0.64197  -0.60078  -0.57793  -0.52958  -0.50477
 Alpha  occ. eigenvalues --   -0.50429  -0.47789  -0.47476  -0.45673  -0.45421
 Alpha  occ. eigenvalues --   -0.44902  -0.43942  -0.42486  -0.41653  -0.41407
 Alpha  occ. eigenvalues --   -0.39935  -0.39286  -0.39273  -0.39064  -0.32075
 Alpha  occ. eigenvalues --   -0.30873  -0.29378  -0.28192  -0.27060  -0.26665
 Alpha  occ. eigenvalues --   -0.22168
 Alpha virt. eigenvalues --   -0.03213   0.01812   0.03763   0.10653   0.11505
 Alpha virt. eigenvalues --    0.12556   0.12579   0.13075   0.13584   0.14624
 Alpha virt. eigenvalues --    0.15374   0.17098   0.17414   0.17685   0.17950

 Mulliken charges:
               1
     1  C   -0.317072
     2  N   -0.480563
     3  C    0.229393
     4  N   -0.569178
     5  C    0.488330
     6  C    0.232030
     7  C    0.649485
     8  O   -0.589427
     9  N   -0.564391
    10  C   -0.313364
    11  C    0.808663
    12  O   -0.583900
    13  N   -0.586320
    14  C   -0.325675
    15  H    0.198415
    16  H    0.198403
    17  H    0.194800
    18  H    0.205284
    19  H    0.190218
    20  H    0.181582
    21  H    0.181547
    22  H    0.187333
    23  H    0.186984
    24  H    0.197423
 Sum of Mulliken charges =  -0.00000

 Dipole moment (field-independent basis, Debye):
    X=              5.1073    Y=              1.0811    Z=              0.0005  Tot=              5.2204
 Quadrupole moment (field-independent basis, Debye-Ang):
   XX=            -71.2806   YY=            -86.4756   ZZ=            -78.9009
   XY=              0.9629   XZ=              0.0021   YZ=             -0.0006

 Normal termination of Gaussian 16 at Wed Mar  2 00:35:39 2022.
