 Gaussian 16, Revision A.03,

 ----------------------------------------------------------------------
 #p b3lyp/6-31G(d) opt=(MaxStep=10,MaxCycles=1000) freq scf=(MaxCycle=2
 000,NoVarAcc,NoIncFock) scrf=(iefpcm,read,solvent=water)
 ----------------------------------------------------------------------

 -------------
 197.n.pdb.xyz
 -------------
 Symbolic Z-matrix:
 Charge =  0 Multiplicity = 1

 SCF Done:  E(RB3LYP) =  -554.807789902     A.U. after   13 cycles
 SCF Done:  E(RB3LYP) =  -554.809452404     A.U. after   10 cycles
 SCF Done:  E(RB3LYP) =  -554.810084462     A.U. after   10 cycles
 SCF Done:  E(RB3LYP) =  -554.810268148     A.U. after    9 cycles
 SCF Done:  E(RB3LYP) =  -554.810252043     A.U. after    9 cycles
 SCF Done:  E(RB3LYP) =  -554.810264054     A.U. after    9 cycles
 SCF Done:  E(RB3LYP) =  -554.810269852     A.U. after    8 cycles
 SCF Done:  E(RB3LYP) =  -554.810258564     A.U. after    9 cycles
 SCF Done:  E(RB3LYP) =  -554.810258935     A.U. after    8 cycles
 SCF Done:  E(RB3LYP) =  -554.810269087     A.U. after    9 cycles
 SCF Done:  E(RB3LYP) =  -554.810269811     A.U. after    7 cycles
 SCF Done:  E(RB3LYP) =  -554.810260983     A.U. after    9 cycles
 SCF Done:  E(RB3LYP) =  -554.810260954     A.U. after    6 cycles
 SCF Done:  E(RB3LYP) =  -554.810269129     A.U. after    9 cycles
 SCF Done:  E(RB3LYP) =  -554.810269789     A.U. after    7 cycles
 SCF Done:  E(RB3LYP) =  -554.810261058     A.U. after    9 cycles
 SCF Done:  E(RB3LYP) =  -554.810261063     A.U. after    6 cycles
 Optimization completed on the basis of negligible forces.
    -- Stationary point found.
 Normal termination of Gaussian 16 at Wed Mar  2 03:21:50 2022.

 --------------------------------------------------------------------
 #P Geom=AllCheck Guess=TCheck SCRF=Check GenChk RB3LYP/6-31G(d) Freq
 --------------------------------------------------------------------

 Structure from the checkpoint file:  "197.n.pdb.xyz.mst.wat.chk"
 -------------
 197.n.pdb.xyz
 -------------
 Charge =  0 Multiplicity = 1

 SCF Done:  E(RB3LYP) =  -554.810261063     A.U. after    1 cycles

  Exact polarizability: 183.494  -6.762 178.489   0.001   0.003  64.140
 Approx polarizability: 207.704  -2.784 198.502   0.005   0.003  73.701

                      1                      2                      3
                      A                      A                      A
 Frequencies --     38.7551                64.9020               107.2536
 Red. masses --      5.4902                 4.2183                 1.9932
 Frc consts  --      0.0049                 0.0105                 0.0135
 IR Inten    --      9.8874                 4.5913                 4.4554

                      4                      5                      6
                      A                      A                      A
 Frequencies --    139.2849               148.2473               246.5214
 Red. masses --      3.7395                 3.2482                 1.3768
 Frc consts  --      0.0427                 0.0421                 0.0493
 IR Inten    --      0.5446                 0.0183               204.0507

                      7                      8                      9
                      A                      A                      A
 Frequencies --    262.1221               272.7439               275.2326
 Red. masses --      1.6289                 1.7825                 4.8499
 Frc consts  --      0.0659                 0.0781                 0.2165
 IR Inten    --    155.1292                 1.8645                18.6215

                     10                     11                     12
                      A                      A                      A
 Frequencies --    333.7741               371.1984               415.4153
 Red. masses --      3.7005                 5.2536                 4.8562
 Frc consts  --      0.2429                 0.4265                 0.4938
 IR Inten    --     12.9083                11.3513                 1.4388

                     13                     14                     15
                      A                      A                      A
 Frequencies --    442.8571               540.8339               543.3681
 Red. masses --      3.4087                 3.1031                 4.3932
 Frc consts  --      0.3939                 0.5348                 0.7642
 IR Inten    --      0.1809                 2.7869                 5.1139

                     16                     17                     18
                      A                      A                      A
 Frequencies --    618.6192               623.6399               625.2024
 Red. masses --      4.5009                 1.2904                 5.9824
 Frc consts  --      1.0148                 0.2957                 1.3777
 IR Inten    --     36.6755                 0.0922                 3.1653

                     19                     20                     21
                      A                      A                      A
 Frequencies --    711.7836               752.3948               768.9572
 Red. masses --      2.9473                 4.1591                 1.8256
 Frc consts  --      0.8798                 1.3872                 0.6360
 IR Inten    --     10.1897                 2.5382                88.3942

                     22                     23                     24
                      A                      A                      A
 Frequencies --    795.1444               827.7597               842.4257
 Red. masses --      2.3719                 4.1835                 1.1314
 Frc consts  --      0.8836                 1.6889                 0.4731
 IR Inten    --      7.2186                20.5798                 0.2715

                     25                     26                     27
                      A                      A                      A
 Frequencies --    878.8359               945.4938               978.8693
 Red. masses --      1.3952                 2.6175                 1.3349
 Frc consts  --      0.6349                 1.3786                 0.7536
 IR Inten    --      1.4845                36.8857                 2.6666

                     28                     29                     30
                      A                      A                      A
 Frequencies --   1001.2823              1061.2564              1083.3925
 Red. masses --      1.2721                 3.5305                 2.5180
 Frc consts  --      0.7514                 2.3428                 1.7413
 IR Inten    --      0.3642               117.2427                20.8613

                     31                     32                     33
                      A                      A                      A
 Frequencies --   1104.3720              1132.4245              1144.8916
 Red. masses --      2.1317                 2.3932                 2.1713
 Frc consts  --      1.5318                 1.8082                 1.6768
 IR Inten    --     10.4445                22.6214                38.3513

                     34                     35                     36
                      A                      A                      A
 Frequencies --   1176.0478              1187.9945              1199.0127
 Red. masses --      1.5289                 1.4874                 1.1963
 Frc consts  --      1.2459                 1.2368                 1.0133
 IR Inten    --     27.4661                 8.2510                67.3121

                     37                     38                     39
                      A                      A                      A
 Frequencies --   1267.1631              1312.5470              1313.3148
 Red. masses --      3.2704                 1.7689                 1.1110
 Frc consts  --      3.0940                 1.7954                 1.1290
 IR Inten    --    360.9803                81.8055                 1.0602

                     40                     41                     42
                      A                      A                      A
 Frequencies --   1351.0684              1397.2115              1416.9751
 Red. masses --      6.1373                 3.1355                 1.2646
 Frc consts  --      6.6005                 3.6065                 1.4959
 IR Inten    --     48.9912               357.4550                10.1774

                     43                     44                     45
                      A                      A                      A
 Frequencies --   1444.7947              1496.1133              1505.6248
 Red. masses --      1.3471                 2.4455                 1.0397
 Frc consts  --      1.6568                 3.2252                 1.3886
 IR Inten    --     29.7897               129.1143                 8.8025

                     46                     47                     48
                      A                      A                      A
 Frequencies --   1515.4153              1526.0054              1550.3072
 Red. masses --      1.1357                 1.7155                 1.2445
 Frc consts  --      1.5367                 2.3537                 1.7623
 IR Inten    --     29.3237                95.6600                18.2040

                     49                     50                     51
                      A                      A                      A
 Frequencies --   1605.6475              1629.3689              1656.3518
 Red. masses --      1.3617                 5.6887                 5.1406
 Frc consts  --      2.0685                 8.8982                 8.3094
 IR Inten    --    389.6207                25.5402                57.8474

                     52                     53                     54
                      A                      A                      A
 Frequencies --   1707.5152              3058.8145              3076.2488
 Red. masses --      8.9362                 1.0560                 1.0353
 Frc consts  --     15.3509                 5.8212                 5.7725
 IR Inten    --    731.4132                51.6905                23.1067

                     55                     56                     57
                      A                      A                      A
 Frequencies --   3102.7311              3150.7860              3151.8987
 Red. masses --      1.1093                 1.1038                 1.1038
 Frc consts  --      6.2918                 6.4561                 6.4608
 IR Inten    --     36.9299                44.6141                44.2377

                     58                     59                     60
                      A                      A                      A
 Frequencies --   3209.7698              3224.3283              3241.7519
 Red. masses --      1.0870                 1.0929                 1.0920
 Frc consts  --      6.5982                 6.6945                 6.7614
 IR Inten    --      8.0405                32.1136                15.6667

                     61                     62                     63
                      A                      A                      A
 Frequencies --   3257.5510              3563.9981              3689.1420
 Red. masses --      1.0913                 1.0457                 1.1076
 Frc consts  --      6.8232                 7.8256                 8.8812
 IR Inten    --     11.3227               141.0711               227.0446

 - Thermochemistry -
 -------------------
 Temperature   298.150 Kelvin.  Pressure   1.00000 Atm.
 Atom     1 has atomic number  6 and mass  12.00000

 Molecular mass:   165.07898 amu.
 Principal axes and moments of inertia in atomic units:
                           1         2         3
     Eigenvalues --  1545.180572195.206943717.67635
           X            0.99889  -0.04719  -0.00000
           Y            0.04719   0.99889   0.00000
           Z            0.00000  -0.00000   1.00000
 This molecule is an asymmetric top.
 Rotational symmetry number  1.
 Warning -- assumption of classical behavior for rotation
           may cause significant error
 Rotational temperatures (Kelvin)      0.05605     0.03946     0.02330
 Rotational constants (GHZ):           1.16798     0.82213     0.48545
 Zero-point vibrational energy     496957.2 (Joules/Mol)
                                  118.77562 (Kcal/Mol)
 Warning -- explicit consideration of  16 degrees of freedom as
           vibrations may cause significant error
 Vibrational temperatures:     55.76    93.38   154.31   200.40   213.29
          (Kelvin)            354.69   377.14   392.42   396.00   480.23
                              534.07   597.69   637.17   778.14   781.79
                              890.06   897.28   899.53  1024.10  1082.53
                             1106.36  1144.04  1190.96  1212.06  1264.45
                             1360.35  1408.37  1440.62  1526.91  1558.76
                             1588.95  1629.31  1647.24  1692.07  1709.26
                             1725.11  1823.17  1888.46  1889.57  1943.89
                             2010.28  2038.71  2078.74  2152.57  2166.26
                             2180.34  2195.58  2230.55  2310.17  2344.30
                             2383.12  2456.73  4400.95  4426.04  4464.14
                             4533.28  4534.88  4618.14  4639.09  4664.16
                             4686.89  5127.80  5307.85

 Zero-point correction=                           0.189281 (Hartree/Particle)
 Thermal correction to Energy=                    0.200751
 Thermal correction to Enthalpy=                  0.201695
 Thermal correction to Gibbs Free Energy=         0.151328
 Sum of electronic and zero-point Energies=           -554.620980
 Sum of electronic and thermal Energies=              -554.609511
 Sum of electronic and thermal Enthalpies=            -554.608566
 Sum of electronic and thermal Free Energies=         -554.658933

                     E (Thermal)             CV                S
                      KCal/Mol        Cal/Mol-Kelvin    Cal/Mol-Kelvin
 Total                  125.973             43.110            106.005
 Electronic               0.000              0.000              0.000
 Translational            0.889              2.981             41.212
 Rotational               0.889              2.981             30.912
 Vibrational            124.195             37.149             33.881
 Vibration     1          0.594              1.981              5.322
 Vibration     2          0.597              1.971              4.302
 Vibration     3          0.606              1.943              3.318
 Vibration     4          0.615              1.914              2.814
 Vibration     5          0.618              1.905              2.695
 Vibration     6          0.661              1.769              1.755
 Vibration     7          0.669              1.742              1.648
 Vibration     8          0.676              1.724              1.579
 Vibration     9          0.677              1.719              1.563
 Vibration    10          0.715              1.608              1.242
 Vibration    11          0.743              1.531              1.075
 Vibration    12          0.779              1.437              0.908
 Vibration    13          0.802              1.377              0.818
 Vibration    14          0.896              1.160              0.563
 Vibration    15          0.898              1.154              0.558
 Vibration    16          0.978              0.993              0.419

 Optimization completed.
    -- Stationary point found.
 Normal termination of Gaussian 16 at Wed Mar  2 03:33:33 2022.

 ------------------------------------------
 #p b3lyp/6-31G(d) geom=allcheck guess=read
 ------------------------------------------

 Structure from the checkpoint file:  "197.n.pdb.xyz.mst.wat.chk"
 -------------
 197.n.pdb.xyz
 -------------
 Charge =  0 Multiplicity = 1

 SCF Done:  E(RB3LYP) =  -554.794282348     A.U. after   12 cycles
 Normal termination of Gaussian 16 at Wed Mar  2 03:34:49 2022.
 Gaussian 16:  ES64L-G16RevA.03 25-Dec-2016

 ----------------------------------------------------------------------
 #p b3lyp/6-31G(d) scrf=(iefpcm,read,solvent=water) geom=allcheck guess
 =read
 ----------------------------------------------------------------------

 Structure from the checkpoint file:  "197.n.pdb.xyz.mst.wat.chk"
 -------------
 197.n.pdb.xyz
 -------------
 Charge =  0 Multiplicity = 1

                         Standard orientation:
 ---------------------------------------------------------------------
 Center     Atomic      Atomic             Coordinates (Angstroms)
 Number     Number       Type             X           Y           Z
 ---------------------------------------------------------------------
      1          6           0       -3.776899    0.229065   -0.000096
      2          6           0       -2.593041   -0.716202    0.000133
      3          8           0       -1.396826    0.084214    0.000133
      4          6           0       -0.180386   -0.531191    0.000035
      5          6           0        0.981135    0.280946   -0.000015
      6          6           0        2.229250   -0.355709   -0.000049
      7          6           0        2.357072   -1.740473   -0.000080
      8          6           0        1.203402   -2.524688   -0.000044
      9          6           0       -0.055871   -1.927501    0.000025
     10          6           0        1.022476    1.787637    0.000017
     11          7           0       -0.147559    2.459213   -0.000394
     12          8           0        2.111835    2.382078    0.000223
     13          1           0       -3.767079    0.865238   -0.888988
     14          1           0       -3.767245    0.865851    0.888629
     15          1           0       -4.704629   -0.349326   -0.000069
     16          1           0       -2.594755   -1.357555   -0.887284
     17          1           0       -2.594913   -1.357397    0.887671
     18          1           0        3.102279    0.285459   -0.000054
     19          1           0        3.339113   -2.200260   -0.000134
     20          1           0        1.274348   -3.607480   -0.000062
     21          1           0       -0.941586   -2.548072    0.000069
     22          1           0       -0.119896    3.470854    0.000309
     23          1           0       -1.035626    1.976559    0.000254
 ---------------------------------------------------------------------

 SCF Done:  E(RB3LYP) =  -554.809331570     A.U. after   11 cycles

 The electronic state is 1-A.
 Alpha  occ. eigenvalues --  -19.19150 -19.10845 -14.34294 -10.29112 -10.26419
 Alpha  occ. eigenvalues --  -10.24521 -10.20229 -10.19972 -10.19438 -10.19361
 Alpha  occ. eigenvalues --  -10.18843 -10.18167  -1.07626  -1.02448  -0.89417
 Alpha  occ. eigenvalues --   -0.85824  -0.78279  -0.75963  -0.73247  -0.64905
 Alpha  occ. eigenvalues --   -0.63958  -0.59379  -0.57827  -0.54701  -0.52763
 Alpha  occ. eigenvalues --   -0.49709  -0.48873  -0.47206  -0.45355  -0.43451
 Alpha  occ. eigenvalues --   -0.42105  -0.41305  -0.40179  -0.39387  -0.39357
 Alpha  occ. eigenvalues --   -0.37226  -0.36022  -0.35882  -0.33056  -0.32583
 Alpha  occ. eigenvalues --   -0.26212  -0.25720  -0.25650  -0.23138
 Alpha virt. eigenvalues --   -0.03547   0.00379   0.06740   0.09514   0.09958
 Alpha virt. eigenvalues --    0.11904   0.12657   0.14636   0.15268   0.16486
 Alpha virt. eigenvalues --    0.16986   0.17797   0.18084   0.19546   0.19644

 Mulliken charges:
               1
     1  C   -0.470728
     2  C   -0.039219
     3  O   -0.555445
     4  C    0.344365
     5  C    0.024804
     6  C   -0.195063
     7  C   -0.152411
     8  C   -0.146944
     9  C   -0.212967
    10  C    0.555587
    11  N   -0.782520
    12  O   -0.605671
    13  H    0.167480
    14  H    0.167434
    15  H    0.169037
    16  H    0.167583
    17  H    0.167547
    18  H    0.156560
    19  H    0.150784
    20  H    0.158985
    21  H    0.169507
    22  H    0.376690
    23  H    0.384605
 Sum of Mulliken charges =  -0.00000

 Dipole moment (field-independent basis, Debye):
    X=             -6.6862    Y=             -3.2718    Z=              0.0016  Tot=              7.4438
 Quadrupole moment (field-independent basis, Debye-Ang):
   XX=            -66.0077   YY=            -64.3095   ZZ=            -72.4559
   XY=            -10.5682   XZ=             -0.0022   YZ=              0.0058

 Normal termination of Gaussian 16 at Wed Mar  2 03:36:10 2022.
