 Gaussian 16, Revision A.03,

 ----------------------------------------------------------------------
 #p b3lyp/6-31G(d) opt=(MaxStep=10,MaxCycles=1000) freq scf=(MaxCycle=2
 000,NoVarAcc,NoIncFock) scrf=(iefpcm,read,solvent=water)
 ----------------------------------------------------------------------

 -------------
 198.n.pdb.xyz
 -------------
 Symbolic Z-matrix:
 Charge =  0 Multiplicity = 1

 SCF Done:  E(RB3LYP) =  -942.075489966     A.U. after   12 cycles
 SCF Done:  E(RB3LYP) =  -942.079692824     A.U. after   10 cycles
 SCF Done:  E(RB3LYP) =  -942.079979536     A.U. after   11 cycles
 SCF Done:  E(RB3LYP) =  -942.079648502     A.U. after   11 cycles
 SCF Done:  E(RB3LYP) =  -942.082523752     A.U. after   10 cycles
 SCF Done:  E(RB3LYP) =  -942.082999218     A.U. after   10 cycles
 SCF Done:  E(RB3LYP) =  -942.083068238     A.U. after   10 cycles
 SCF Done:  E(RB3LYP) =  -942.083118504     A.U. after    9 cycles
 SCF Done:  E(RB3LYP) =  -942.083091988     A.U. after    9 cycles
 SCF Done:  E(RB3LYP) =  -942.083101073     A.U. after    9 cycles
 SCF Done:  E(RB3LYP) =  -942.083114419     A.U. after    3 cycles
 SCF Done:  E(RB3LYP) =  -942.083114418     A.U. after    2 cycles
 SCF Done:  E(RB3LYP) =  -942.083089673     A.U. after   10 cycles
 SCF Done:  E(RB3LYP) =  -942.083088685     A.U. after    8 cycles
 SCF Done:  E(RB3LYP) =  -942.083086752     A.U. after    7 cycles
 SCF Done:  E(RB3LYP) =  -942.083086945     A.U. after    6 cycles
 SCF Done:  E(RB3LYP) =  -942.083086811     A.U. after    6 cycles
 Optimization completed.
    -- Stationary point found.
 Normal termination of Gaussian 16 at Wed Mar  2 05:36:22 2022.

 --------------------------------------------------------------------
 #P Geom=AllCheck Guess=TCheck SCRF=Check GenChk RB3LYP/6-31G(d) Freq
 --------------------------------------------------------------------

 Structure from the checkpoint file:  "198.n.pdb.xyz.mst.wat.chk"
 -------------
 198.n.pdb.xyz
 -------------
 Charge =  0 Multiplicity = 1

 SCF Done:  E(RB3LYP) =  -942.083086811     A.U. after    1 cycles

  Exact polarizability: 284.378  32.887 199.757   0.508   6.126 248.559
 Approx polarizability: 286.942  38.243 217.643   1.459  10.260 287.551

 ******    1 imaginary frequencies (negative Signs) ******

                      1                      2                      3
                      A                      A                      A
 Frequencies --    -27.5250                20.4710                33.5859
 Red. masses --      2.0989                 4.2687                 4.3726
 Frc consts  --      0.0009                 0.0011                 0.0029
 IR Inten    --      0.0125                 0.5048                 0.3648

                      4                      5                      6
                      A                      A                      A
 Frequencies --     39.1297                49.6129                65.3174
 Red. masses --      4.4355                 4.7809                 4.7407
 Frc consts  --      0.0040                 0.0069                 0.0119
 IR Inten    --      0.9644                 0.4825                 3.7618

                      7                      8                      9
                      A                      A                      A
 Frequencies --     87.5154               101.1616               134.0113
 Red. masses --      5.0427                 4.6961                 4.6541
 Frc consts  --      0.0228                 0.0283                 0.0492
 IR Inten    --      0.5592                 2.0585                 0.5468

                     10                     11                     12
                      A                      A                      A
 Frequencies --    141.7355               190.9436               204.4446
 Red. masses --      3.0399                 3.8074                 1.1301
 Frc consts  --      0.0360                 0.0818                 0.0278
 IR Inten    --      0.8664                 9.6427                 0.5149

                     13                     14                     15
                      A                      A                      A
 Frequencies --    207.0816               231.1805               279.8536
 Red. masses --      4.2591                 3.5144                 2.3219
 Frc consts  --      0.1076                 0.1107                 0.1071
 IR Inten    --      6.2064                 4.6490                 0.9546

                     16                     17                     18
                      A                      A                      A
 Frequencies --    286.3791               316.4808               329.2411
 Red. masses --      2.6651                 4.7537                 3.2395
 Frc consts  --      0.1288                 0.2805                 0.2069
 IR Inten    --      6.3608                 7.4398                 2.2636

                     19                     20                     21
                      A                      A                      A
 Frequencies --    382.4573               391.3887               392.8946
 Red. masses --      1.2384                 2.4098                 2.6281
 Frc consts  --      0.1067                 0.2175                 0.2390
 IR Inten    --    239.7313                 4.2640                 5.9315

                     22                     23                     24
                      A                      A                      A
 Frequencies --    426.8845               439.0005               458.6411
 Red. masses --      2.6574                 3.6796                 4.0816
 Frc consts  --      0.2853                 0.4178                 0.5059
 IR Inten    --     21.1784                 3.1817                25.7392

                     25                     26                     27
                      A                      A                      A
 Frequencies --    479.8862               519.8083               564.4738
 Red. masses --      4.4735                 3.6385                 4.0121
 Frc consts  --      0.6070                 0.5792                 0.7532
 IR Inten    --     25.2908                 0.6175                36.2508

                     28                     29                     30
                      A                      A                      A
 Frequencies --    600.1747               631.0961               646.6595
 Red. masses --      3.3248                 6.1318                 4.0030
 Frc consts  --      0.7056                 1.4389                 0.9862
 IR Inten    --      7.6990                 0.7056                 6.1248

                     31                     32                     33
                      A                      A                      A
 Frequencies --    674.2318               720.0322               723.6225
 Red. masses --      5.6715                 1.7191                 3.8889
 Frc consts  --      1.5190                 0.5251                 1.1998
 IR Inten    --     18.8265                45.0389                20.0896

                     34                     35                     36
                      A                      A                      A
 Frequencies --    729.5350               770.4563               777.4929
 Red. masses --      3.1118                 2.1956                 2.5700
 Frc consts  --      0.9758                 0.7679                 0.9153
 IR Inten    --      1.9351                 0.3049                 6.6690

                     37                     38                     39
                      A                      A                      A
 Frequencies --    781.7705               812.3727               824.7794
 Red. masses --      2.3086                 2.2925                 2.4806
 Frc consts  --      0.8313                 0.8914                 0.9942
 IR Inten    --     13.3041                11.6967                 0.5642

                     40                     41                     42
                      A                      A                      A
 Frequencies --    857.3171               864.3257               875.4359
 Red. masses --      4.7887                 1.2439                 2.8620
 Frc consts  --      2.0737                 0.5475                 1.2923
 IR Inten    --      1.6125                 0.4757                21.3136

                     43                     44                     45
                      A                      A                      A
 Frequencies --    895.4032               912.5544               929.8131
 Red. masses --      2.9578                 1.7172                 1.4829
 Frc consts  --      1.3972                 0.8426                 0.7554
 IR Inten    --      9.0002                 2.8687                 0.1168

                     46                     47                     48
                      A                      A                      A
 Frequencies --    944.5688               963.4685               977.6195
 Red. masses --      3.3106                 2.5773                 1.3504
 Frc consts  --      1.7403                 1.4096                 0.7604
 IR Inten    --     15.5073                22.5003                 0.2651

                     49                     50                     51
                      A                      A                      A
 Frequencies --    988.5755               989.3112               998.0075
 Red. masses --      1.9403                 2.3780                 2.3097
 Frc consts  --      1.1172                 1.3713                 1.3554
 IR Inten    --      3.2295                 4.4173                 9.1179

                     52                     53                     54
                      A                      A                      A
 Frequencies --   1001.5965              1004.4199              1017.2145
 Red. masses --      2.9211                 1.2768                 6.1371
 Frc consts  --      1.7265                 0.7589                 3.7414
 IR Inten    --     43.5417                 2.9310                 0.8888

                     55                     56                     57
                      A                      A                      A
 Frequencies --   1033.7421              1046.3723              1061.9964
 Red. masses --      2.4755                 2.3384                 2.1707
 Frc consts  --      1.5586                 1.5085                 1.4425
 IR Inten    --    105.1969                92.3048                42.0659

                     58                     59                     60
                      A                      A                      A
 Frequencies --   1083.0922              1084.1422              1094.2001
 Red. masses --      5.0554                 1.7652                 1.6847
 Frc consts  --      3.4941                 1.2224                 1.1884
 IR Inten    --    156.4819                23.8169                12.2935

                     61                     62                     63
                      A                      A                      A
 Frequencies --   1110.4233              1141.6089              1150.8744
 Red. masses --      1.6050                 2.8733                 2.3132
 Frc consts  --      1.1660                 2.2063                 1.8052
 IR Inten    --     17.3795                23.8202                 9.8095

                     64                     65                     66
                      A                      A                      A
 Frequencies --   1158.2508              1186.8441              1189.2340
 Red. masses --      1.3679                 1.0911                 1.3102
 Frc consts  --      1.0812                 0.9055                 1.0917
 IR Inten    --     14.4590                 3.0110                20.4152

                     67                     68                     69
                      A                      A                      A
 Frequencies --   1191.9809              1201.6690              1210.6401
 Red. masses --      1.3726                 2.2126                 1.1344
 Frc consts  --      1.1490                 1.8825                 0.9796
 IR Inten    --      5.8702               518.3010                 2.0450

                     70                     71                     72
                      A                      A                      A
 Frequencies --   1214.4386              1217.6184              1234.1551
 Red. masses --      1.6814                 1.7063                 1.4702
 Frc consts  --      1.4611                 1.4905                 1.3193
 IR Inten    --      9.1213               149.4682               114.0292

                     73                     74                     75
                      A                      A                      A
 Frequencies --   1247.5780              1260.6576              1268.2730
 Red. masses --      1.5874                 1.2587                 1.6021
 Frc consts  --      1.4557                 1.1786                 1.5183
 IR Inten    --     14.8878                 7.6478                89.6549

                     76                     77                     78
                      A                      A                      A
 Frequencies --   1289.5970              1290.2660              1317.7566
 Red. masses --      1.3074                 1.3454                 1.6099
 Frc consts  --      1.2810                 1.3197                 1.6471
 IR Inten    --      5.0067                 3.7595                 0.1821

                     79                     80                     81
                      A                      A                      A
 Frequencies --   1332.8427              1336.5503              1340.8509
 Red. masses --      1.3115                 1.3365                 2.5892
 Frc consts  --      1.3727                 1.4067                 2.7427
 IR Inten    --      4.3432                 2.2469                80.9413

                     82                     83                     84
                      A                      A                      A
 Frequencies --   1347.8499              1357.3819              1363.4016
 Red. masses --      1.3944                 1.4092                 2.1399
 Frc consts  --      1.4925                 1.5298                 2.3437
 IR Inten    --      2.5787                 7.8514                 4.5769

                     85                     86                     87
                      A                      A                      A
 Frequencies --   1374.9144              1396.4702              1403.6511
 Red. masses --      1.6823                 1.5980                 1.4853
 Frc consts  --      1.8737                 1.8360                 1.7242
 IR Inten    --     27.3649                36.3041                11.8092

                     88                     89                     90
                      A                      A                      A
 Frequencies --   1411.3760              1422.2380              1426.3972
 Red. masses --      1.3515                 1.3865                 1.2296
 Frc consts  --      1.5862                 1.6524                 1.4739
 IR Inten    --     10.0081                12.0870                84.8914

                     91                     92                     93
                      A                      A                      A
 Frequencies --   1466.6344              1500.0325              1501.2131
 Red. masses --      1.1821                 2.1713                 1.0801
 Frc consts  --      1.4981                 2.8786                 1.4342
 IR Inten    --      0.6459                10.3050                 0.0183

                     94                     95                     96
                      A                      A                      A
 Frequencies --   1505.5993              1514.9036              1520.5335
 Red. masses --      1.0527                 1.1016                 1.0923
 Frc consts  --      1.4060                 1.4895                 1.4880
 IR Inten    --     12.8742                 3.1370                 5.9218

                     97                     98                     99
                      A                      A                      A
 Frequencies --   1522.1296              1531.5031              1534.4906
 Red. masses --      1.0857                 1.0455                 1.0885
 Frc consts  --      1.4820                 1.4448                 1.5102
 IR Inten    --      3.6290                 5.6441                 6.2066

                    100                    101                    102
                      A                      A                      A
 Frequencies --   1544.3001              1640.2854              1663.2600
 Red. masses --      2.2235                 5.5407                 5.6579
 Frc consts  --      3.1243                 8.7833                 9.2220
 IR Inten    --     16.0742                 0.8536                 2.3618

                    103                    104                    105
                      A                      A                      A
 Frequencies --   1779.6682              3006.4710              3060.6808
 Red. masses --     12.2898                 1.0532                 1.0676
 Frc consts  --     22.9336                 5.6090                 5.8925
 IR Inten    --    417.5112               106.2483                56.9062

                    106                    107                    108
                      A                      A                      A
 Frequencies --   3070.4286              3072.4971              3072.9525
 Red. masses --      1.0610                 1.0806                 1.0620
 Frc consts  --      5.8933                 6.0101                 5.9085
 IR Inten    --     39.2976                37.6373                40.9031

                    109                    110                    111
                      A                      A                      A
 Frequencies --   3079.8574              3088.9446              3099.2599
 Red. masses --      1.0618                 1.0645                 1.0791
 Frc consts  --      5.9339                 5.9845                 6.1070
 IR Inten    --     38.8573                43.2967                79.3428

                    112                    113                    114
                      A                      A                      A
 Frequencies --   3106.0004              3108.5979              3113.9487
 Red. masses --      1.0897                 1.0969                 1.1016
 Frc consts  --      6.1941                 6.2454                 6.2935
 IR Inten    --     66.8070                46.3618                49.0374

                    115                    116                    117
                      A                      A                      A
 Frequencies --   3119.2040              3122.3590              3135.5369
 Red. masses --      1.0944                 1.1021                 1.1052
 Frc consts  --      6.2734                 6.3306                 6.4022
 IR Inten    --     22.1603                24.3949               107.2628

                    118                    119                    120
                      A                      A                      A
 Frequencies --   3139.7840              3143.8228              3162.9737
 Red. masses --      1.1043                 1.1002                 1.0871
 Frc consts  --      6.4140                 6.4068                 6.4081
 IR Inten    --     56.9695                55.3651                36.1887

                    121                    122                    123
                      A                      A                      A
 Frequencies --   3194.7340              3203.6096              3214.6212
 Red. masses --      1.0870                 1.0876                 1.0919
 Frc consts  --      6.5367                 6.5766                 6.6482
 IR Inten    --     12.9198                 6.6924                52.5475

                    124                    125                    126
                      A                      A                      A
 Frequencies --   3224.7314              3251.2801              3736.2402
 Red. masses --      1.0968                 1.0921                 1.0661
 Frc consts  --      6.7198                 6.8020                 8.7685
 IR Inten    --     43.8589                11.0107                79.2854

 - Thermochemistry -
 -------------------
 Temperature   298.150 Kelvin.  Pressure   1.00000 Atm.
 Atom     1 has atomic number  6 and mass  12.00000

 Molecular mass:   289.16779 amu.
 Principal axes and moments of inertia in atomic units:
                           1         2         3
     Eigenvalues --  2170.12518********************
           X            1.00000  -0.00192  -0.00056
           Y            0.00193   0.99976   0.02160
           Z            0.00052  -0.02160   0.99977
 This molecule is an asymmetric top.
 Rotational symmetry number  1.
 Warning -- assumption of classical behavior for rotation
           may cause significant error
 Rotational temperatures (Kelvin)      0.03991     0.00604     0.00587
 Rotational constants (GHZ):           0.83163     0.12590     0.12225
    1 imaginary frequencies ignored.
 Zero-point vibrational energy    1000304.5 (Joules/Mol)
                                  239.07852 (Kcal/Mol)
 Warning -- explicit consideration of  27 degrees of freedom as
           vibrations may cause significant error
 Vibrational temperatures:     29.45    48.32    56.30    71.38    93.98
          (Kelvin)            125.92   145.55   192.81   203.93   274.73
                              294.15   297.94   332.62   402.65   412.04
                              455.35   473.70   550.27   563.12   565.29
                              614.19   631.62   659.88   690.45   747.89
                              812.15   863.52   908.01   930.40   970.07
                             1035.97  1041.13  1049.64  1108.51  1118.64
                             1124.79  1168.82  1186.67  1233.49  1243.57
                             1259.56  1288.29  1312.96  1337.79  1359.02
                             1386.22  1406.58  1422.34  1423.40  1435.91
                             1441.07  1445.14  1463.54  1487.32  1505.50
                             1527.98  1558.33  1559.84  1574.31  1597.65
                             1642.52  1655.85  1666.46  1707.60  1711.04
                             1714.99  1728.93  1741.84  1747.31  1751.88
                             1775.67  1794.99  1813.81  1824.76  1855.44
                             1856.40  1895.96  1917.66  1923.00  1929.19
                             1939.26  1952.97  1961.63  1978.20  2009.21
                             2019.54  2030.66  2046.28  2052.27  2110.16
                             2158.21  2159.91  2166.22  2179.61  2187.71
                             2190.00  2203.49  2207.79  2221.90  2360.00
                             2393.06  2560.55  4325.64  4403.64  4417.66
                             4420.64  4421.29  4431.23  4444.30  4459.14
                             4468.84  4472.58  4480.28  4487.84  4492.38
                             4511.34  4517.45  4523.26  4550.81  4596.51
                             4609.28  4625.12  4639.67  4677.87  5375.62

 Zero-point correction=                           0.380996 (Hartree/Particle)
 Thermal correction to Energy=                    0.399756
 Thermal correction to Enthalpy=                  0.400700
 Thermal correction to Gibbs Free Energy=         0.331931
 Sum of electronic and zero-point Energies=           -941.702091
 Sum of electronic and thermal Energies=              -941.683331
 Sum of electronic and thermal Enthalpies=            -941.682387
 Sum of electronic and thermal Free Energies=         -941.751156

                     E (Thermal)             CV                S
                      KCal/Mol        Cal/Mol-Kelvin    Cal/Mol-Kelvin
 Total                  250.851             73.533            144.737
 Electronic               0.000              0.000              0.000
 Translational            0.889              2.981             42.883
 Rotational               0.889              2.981             34.484
 Vibrational            249.073             67.571             67.370
 Vibration     1          0.593              1.986              6.588
 Vibration     2          0.594              1.983              5.605
 Vibration     3          0.594              1.981              5.303
 Vibration     4          0.595              1.978              4.833
 Vibration     5          0.597              1.971              4.290
 Vibration     6          0.601              1.958              3.715
 Vibration     7          0.604              1.948              3.432
 Vibration     8          0.613              1.919              2.888
 Vibration     9          0.615              1.912              2.780
 Vibration    10          0.634              1.852              2.219
 Vibration    11          0.640              1.834              2.093
 Vibration    12          0.641              1.830              2.069
 Vibration    13          0.653              1.793              1.870
 Vibration    14          0.680              1.711              1.535
 Vibration    15          0.684              1.699              1.495
 Vibration    16          0.703              1.642              1.328
 Vibration    17          0.712              1.617              1.264
 Vibration    18          0.752              1.508              1.029
 Vibration    19          0.759              1.489              0.995
 Vibration    20          0.760              1.485              0.989
 Vibration    21          0.789              1.412              0.869
 Vibration    22          0.799              1.385              0.830
 Vibration    23          0.817              1.342              0.770
 Vibration    24          0.836              1.295              0.710
 Vibration    25          0.875              1.206              0.610
 Vibration    26          0.920              1.108              0.515
 Vibration    27          0.958              1.031              0.449

                           ! Non-Optimized Parameters !
 Normal termination of Gaussian 16 at Wed Mar  2 06:33:40 2022.

 ------------------------------------------
 #p b3lyp/6-31G(d) geom=allcheck guess=read
 ------------------------------------------

 Structure from the checkpoint file:  "198.n.pdb.xyz.mst.wat.chk"
 -------------
 198.n.pdb.xyz
 -------------
 Charge =  0 Multiplicity = 1

 SCF Done:  E(RB3LYP) =  -942.067345155     A.U. after   11 cycles
 Normal termination of Gaussian 16 at Wed Mar  2 06:37:07 2022.
 Gaussian 16:  ES64L-G16RevA.03 25-Dec-2016

 ----------------------------------------------------------------------
 #p b3lyp/6-31G(d) scrf=(iefpcm,read,solvent=water) geom=allcheck guess
 =read
 ----------------------------------------------------------------------

 Structure from the checkpoint file:  "198.n.pdb.xyz.mst.wat.chk"
 -------------
 198.n.pdb.xyz
 -------------
 Charge =  0 Multiplicity = 1

                         Standard orientation:
 ---------------------------------------------------------------------
 Center     Atomic      Atomic             Coordinates (Angstroms)
 Number     Number       Type             X           Y           Z
 ---------------------------------------------------------------------
      1          6           0        5.255448   -0.837090   -1.511014
      2          7           0        3.966011   -0.477330   -0.922612
      3          6           0        3.989307    0.860164   -0.280331
      4          6           0        4.761846    0.651416    1.055229
      5          6           0        4.507104   -0.838966    1.399585
      6          6           0        3.610769   -1.340648    0.230404
      7          6           0        2.097870   -1.146524    0.526986
      8          6           0        1.567905    0.114308   -0.164820
      9          6           0        2.519547    1.304943   -0.042472
     10          8           0        0.303648    0.518155    0.441631
     11          6           0       -0.830422    0.011880   -0.073224
     12          8           0       -0.861066   -0.780478   -0.995640
     13          6           0       -2.038783    0.586000    0.660595
     14          6           0       -2.083047    2.124777    0.449679
     15          8           0       -2.191480    2.505894   -0.911961
     16          6           0       -3.349720   -0.087924    0.316712
     17          6           0       -4.207756   -0.479463    1.352956
     18          6           0       -5.452528   -1.048039    1.080113
     19          6           0       -5.859938   -1.234844   -0.242004
     20          6           0       -5.013314   -0.850495   -1.283713
     21          6           0       -3.768395   -0.282084   -1.008566
     22          1           0        5.485156   -0.144953   -2.326144
     23          1           0        6.095201   -0.814943   -0.799050
     24          1           0        5.191427   -1.846590   -1.926486
     25          1           0        4.493739    1.569646   -0.939489
     26          1           0        4.411424    1.335579    1.831978
     27          1           0        5.829154    0.840417    0.913162
     28          1           0        4.018193   -0.976488    2.366873
     29          1           0        5.446582   -1.397447    1.428198
     30          1           0        3.812877   -2.383301   -0.023150
     31          1           0        1.517984   -2.007739    0.184546
     32          1           0        1.936007   -1.055375    1.605960
     33          1           0        1.365982   -0.102309   -1.211385
     34          1           0        2.419503    1.741234    0.956137
     35          1           0        2.221867    2.075900   -0.760854
     36          1           0       -1.843193    0.444546    1.730181
     37          1           0       -2.905431    2.533675    1.047703
     38          1           0       -1.146130    2.548972    0.814737
     39          1           0       -3.110045    2.354842   -1.191735
     40          1           0       -3.894072   -0.336538    2.383144
     41          1           0       -6.099579   -1.346611    1.898397
     42          1           0       -6.826029   -1.678917   -0.458711
     43          1           0       -5.319458   -0.996039   -2.314225
     44          1           0       -3.107405   -0.009273   -1.820445
 ---------------------------------------------------------------------

 SCF Done:  E(RB3LYP) =  -942.081280086     A.U. after   11 cycles

 The electronic state is 1-A.
 Alpha  occ. eigenvalues --  -19.19172 -19.14962 -19.14196 -14.32028 -10.32099
 Alpha  occ. eigenvalues --  -10.24059 -10.23795 -10.20942 -10.20918 -10.20781
 Alpha  occ. eigenvalues --  -10.20089 -10.19671 -10.19138 -10.19092 -10.19074
 Alpha  occ. eigenvalues --  -10.19023 -10.18868 -10.18040 -10.17959 -10.17445
 Alpha  occ. eigenvalues --  -10.17422  -1.10295  -1.02119  -1.01704  -0.93381
 Alpha  occ. eigenvalues --   -0.85938  -0.80927  -0.78835  -0.75838  -0.75526
 Alpha  occ. eigenvalues --   -0.74519  -0.72701  -0.68195  -0.65257  -0.64677
 Alpha  occ. eigenvalues --   -0.62663  -0.60696  -0.58665  -0.56995  -0.56003
 Alpha  occ. eigenvalues --   -0.53343  -0.52067  -0.51014  -0.50312  -0.48554
 Alpha  occ. eigenvalues --   -0.48076  -0.46967  -0.46135  -0.45762  -0.45111
 Alpha  occ. eigenvalues --   -0.43704  -0.43263  -0.42574  -0.42258  -0.41713
 Alpha  occ. eigenvalues --   -0.40919  -0.40594  -0.39591  -0.38992  -0.38395
 Alpha  occ. eigenvalues --   -0.37583  -0.36469  -0.36134  -0.35022  -0.34339
 Alpha  occ. eigenvalues --   -0.34082  -0.33701  -0.33074  -0.32946  -0.32706
 Alpha  occ. eigenvalues --   -0.31687  -0.30893  -0.29121  -0.28227  -0.27316
 Alpha  occ. eigenvalues --   -0.25192  -0.24634  -0.21765
 Alpha virt. eigenvalues --   -0.00615  -0.00448   0.00657   0.06705   0.08788
 Alpha virt. eigenvalues --    0.09147   0.10586   0.11796   0.11947   0.12837
 Alpha virt. eigenvalues --    0.13084   0.14574   0.14735   0.14969   0.15257

 Mulliken charges:
               1
     1  C   -0.314920
     2  N   -0.419979
     3  C    0.015946
     4  C   -0.295240
     5  C   -0.294834
     6  C    0.016393
     7  C   -0.301926
     8  C    0.140230
     9  C   -0.300510
    10  O   -0.489073
    11  C    0.659375
    12  O   -0.523998
    13  C   -0.304743
    14  C   -0.041532
    15  O   -0.656490
    16  C    0.162603
    17  C   -0.205513
    18  C   -0.148597
    19  C   -0.148329
    20  C   -0.154350
    21  C   -0.193406
    22  H    0.156768
    23  H    0.136139
    24  H    0.157012
    25  H    0.142800
    26  H    0.147351
    27  H    0.149282
    28  H    0.147839
    29  H    0.148967
    30  H    0.142507
    31  H    0.154373
    32  H    0.150901
    33  H    0.165006
    34  H    0.151340
    35  H    0.153758
    36  H    0.185096
    37  H    0.153944
    38  H    0.168066
    39  H    0.437275
    40  H    0.148602
    41  H    0.150528
    42  H    0.149606
    43  H    0.149952
    44  H    0.151781
 Sum of Mulliken charges =  -0.00000

 Dipole moment (field-independent basis, Debye):
    X=              0.8829    Y=              0.9074    Z=              3.2709  Tot=              3.5074
 Quadrupole moment (field-independent basis, Debye-Ang):
   XX=            -95.9671   YY=           -126.5973   ZZ=           -121.0426
   XY=             -2.3515   XZ=             -1.4660   YZ=             -0.3385

 Normal termination of Gaussian 16 at Wed Mar  2 06:41:26 2022.
