 Gaussian 16, Revision A.03,

 ----------------------------------------------------------------------
 #p b3lyp/6-31G(d) opt=(MaxStep=10,MaxCycles=1000) freq scf=(MaxCycle=2
 000,NoVarAcc,NoIncFock) scrf=(iefpcm,read,solvent=water)
 ----------------------------------------------------------------------

 -----------
 2.n.pdb.xyz
 -----------
 Symbolic Z-matrix:
 Charge =  0 Multiplicity = 1

 SCF Done:  E(RB3LYP) =  -1633.18938810     A.U. after   13 cycles
 SCF Done:  E(RB3LYP) =  -1633.19223872     A.U. after   10 cycles
 SCF Done:  E(RB3LYP) =  -1633.19178425     A.U. after   11 cycles
 SCF Done:  E(RB3LYP) =  -1633.19308659     A.U. after    9 cycles
 SCF Done:  E(RB3LYP) =  -1633.19313058     A.U. after    9 cycles
 SCF Done:  E(RB3LYP) =  -1633.19311042     A.U. after    9 cycles
 SCF Done:  E(RB3LYP) =  -1633.19309981     A.U. after    9 cycles
 SCF Done:  E(RB3LYP) =  -1633.19312964     A.U. after    9 cycles
 SCF Done:  E(RB3LYP) =  -1633.19313121     A.U. after    8 cycles
 SCF Done:  E(RB3LYP) =  -1633.19310773     A.U. after    9 cycles
 SCF Done:  E(RB3LYP) =  -1633.19312430     A.U. after    6 cycles
 SCF Done:  E(RB3LYP) =  -1633.19313581     A.U. after    8 cycles
 SCF Done:  E(RB3LYP) =  -1633.19313690     A.U. after    7 cycles
 SCF Done:  E(RB3LYP) =  -1633.19312119     A.U. after    9 cycles
 SCF Done:  E(RB3LYP) =  -1633.19312401     A.U. after    7 cycles
 SCF Done:  E(RB3LYP) =  -1633.19313578     A.U. after    8 cycles
 SCF Done:  E(RB3LYP) =  -1633.19312299     A.U. after    8 cycles
 Optimization completed on the basis of negligible forces.
    -- Stationary point found.
 Normal termination of Gaussian 16 at Tue Mar  1 17:04:49 2022.

 --------------------------------------------------------------------
 #P Geom=AllCheck Guess=TCheck SCRF=Check GenChk RB3LYP/6-31G(d) Freq
 --------------------------------------------------------------------

 Structure from the checkpoint file:  "2.n.pdb.xyz.mst.wat.chk"
 -----------
 2.n.pdb.xyz
 -----------
 Charge =  0 Multiplicity = 1

 SCF Done:  E(RB3LYP) =  -1633.19312299     A.U. after    1 cycles

  Exact polarizability: 356.578   5.851 246.679   0.331 -16.540 208.828
 Approx polarizability: 379.374   6.355 273.103   2.832 -25.034 243.420

                      1                      2                      3
                      A                      A                      A
 Frequencies --     25.4235                43.0930                48.9600
 Red. masses --      6.9175                 7.6117                 4.8458
 Frc consts  --      0.0026                 0.0083                 0.0068
 IR Inten    --      0.7128                 0.1593                 0.6891

                      4                      5                      6
                      A                      A                      A
 Frequencies --     89.6777                99.7210               125.5735
 Red. masses --      2.7706                 1.9880                 2.8401
 Frc consts  --      0.0131                 0.0116                 0.0264
 IR Inten    --      3.2344                 1.0113                 1.2386

                      7                      8                      9
                      A                      A                      A
 Frequencies --    134.9345               154.5148               171.4569
 Red. masses --      5.5486                 3.3373                 3.8214
 Frc consts  --      0.0595                 0.0469                 0.0662
 IR Inten    --      0.3678                 0.9268                 0.9778

                     10                     11                     12
                      A                      A                      A
 Frequencies --    189.0708               197.7697               213.0188
 Red. masses --      4.7512                 6.7528                 3.4375
 Frc consts  --      0.1001                 0.1556                 0.0919
 IR Inten    --      0.7691                 0.1417                 0.3384

                     13                     14                     15
                      A                      A                      A
 Frequencies --    235.0155               254.8959               310.5728
 Red. masses --      4.2716                 1.8799                 4.6028
 Frc consts  --      0.1390                 0.0720                 0.2616
 IR Inten    --      0.3950                 1.4350                 0.1753

                     16                     17                     18
                      A                      A                      A
 Frequencies --    348.5267               361.1770               392.1178
 Red. masses --      5.7353                 4.3870                 3.2352
 Frc consts  --      0.4105                 0.3372                 0.2931
 IR Inten    --      0.7926                 0.7754                 1.1379

                     19                     20                     21
                      A                      A                      A
 Frequencies --    420.0707               442.6783               455.4433
 Red. masses --      4.7273                 4.8151                 3.9024
 Frc consts  --      0.4915                 0.5559                 0.4769
 IR Inten    --     13.3269                 0.6585                 7.1096

                     22                     23                     24
                      A                      A                      A
 Frequencies --    463.3235               485.6313               504.5984
 Red. masses --      5.2119                 4.6096                 5.5557
 Frc consts  --      0.6592                 0.6405                 0.8335
 IR Inten    --     13.7784                14.0608                15.1445

                     25                     26                     27
                      A                      A                      A
 Frequencies --    529.9243               570.5385               593.9200
 Red. masses --      3.6003                 5.6070                 3.8621
 Frc consts  --      0.5957                 1.0754                 0.8027
 IR Inten    --      8.4145                 7.1573                 9.2399

                     28                     29                     30
                      A                      A                      A
 Frequencies --    625.0619               633.5626               682.9300
 Red. masses --      3.6285                 4.4550                 6.8488
 Frc consts  --      0.8353                 1.0536                 1.8820
 IR Inten    --      2.6268                 3.0281                20.3722

                     31                     32                     33
                      A                      A                      A
 Frequencies --    711.7161               735.5815               760.1750
 Red. masses --      3.9257                 2.8461                 4.4169
 Frc consts  --      1.1716                 0.9073                 1.5038
 IR Inten    --      6.2242                 4.4669                33.7841

                     34                     35                     36
                      A                      A                      A
 Frequencies --    767.6619               771.9180               804.2949
 Red. masses --      4.0302                 1.2501                 3.5174
 Frc consts  --      1.3993                 0.4389                 1.3406
 IR Inten    --      1.5681                51.4701                 6.2265

                     37                     38                     39
                      A                      A                      A
 Frequencies --    841.7891               850.6904               886.2400
 Red. masses --      1.4030                 1.3553                 1.5871
 Frc consts  --      0.5858                 0.5779                 0.7344
 IR Inten    --     66.6338               107.7581                 8.6221

                     40                     41                     42
                      A                      A                      A
 Frequencies --    891.8075               901.9282               920.9935
 Red. masses --      1.3298                 1.6925                 3.4616
 Frc consts  --      0.6231                 0.8112                 1.7300
 IR Inten    --      0.1155                16.1583                37.9345

                     43                     44                     45
                      A                      A                      A
 Frequencies --    953.7353               961.3897               977.9334
 Red. masses --      1.7505                 2.0165                 1.4258
 Frc consts  --      0.9382                 1.0981                 0.8034
 IR Inten    --      2.0851                 9.0775                 1.5008

                     46                     47                     48
                      A                      A                      A
 Frequencies --    992.6246              1008.8301              1019.1729
 Red. masses --      1.2556                 2.8228                 2.1992
 Frc consts  --      0.7289                 1.6927                 1.3459
 IR Inten    --      0.0349                13.3419                 0.7181

                     49                     50                     51
                      A                      A                      A
 Frequencies --   1035.8758              1069.4121              1073.9095
 Red. masses --      5.3922                 2.4848                 2.2137
 Frc consts  --      3.4091                 1.6743                 1.5042
 IR Inten    --     58.5182                13.1957                 3.1575

                     52                     53                     54
                      A                      A                      A
 Frequencies --   1080.3440              1114.6467              1144.7261
 Red. masses --      2.5736                 2.5680                 1.6574
 Frc consts  --      1.7697                 1.8799                 1.2796
 IR Inten    --      6.4568                13.5618                12.5246

                     55                     56                     57
                      A                      A                      A
 Frequencies --   1152.5735              1160.0406              1180.3004
 Red. masses --      2.1724                 1.6951                 1.4783
 Frc consts  --      1.7003                 1.3440                 1.2134
 IR Inten    --     85.0296                29.6776                20.6648

                     58                     59                     60
                      A                      A                      A
 Frequencies --   1191.0756              1194.1045              1202.4411
 Red. masses --      1.1051                 1.6391                 2.0801
 Frc consts  --      0.9237                 1.3770                 1.7720
 IR Inten    --      1.5321                13.8775                 2.4464

                     61                     62                     63
                      A                      A                      A
 Frequencies --   1218.6725              1228.8300              1246.2866
 Red. masses --      1.6508                 2.3042                 1.9273
 Frc consts  --      1.4445                 2.0500                 1.7638
 IR Inten    --      5.4329                16.1866                 4.2550

                     64                     65                     66
                      A                      A                      A
 Frequencies --   1285.0285              1290.4274              1300.4813
 Red. masses --      1.2262                 1.7887                 1.8881
 Frc consts  --      1.1930                 1.7549                 1.8814
 IR Inten    --      1.6453                 1.3290                 4.0933

                     67                     68                     69
                      A                      A                      A
 Frequencies --   1317.8277              1337.7716              1342.3397
 Red. masses --      1.4872                 1.6417                 1.7713
 Frc consts  --      1.5217                 1.7311                 1.8805
 IR Inten    --      0.7166                 5.0020                 2.8717

                     70                     71                     72
                      A                      A                      A
 Frequencies --   1354.9801              1365.4729              1374.4287
 Red. masses --      2.6895                 1.6576                 1.3944
 Frc consts  --      2.9093                 1.8209                 1.5520
 IR Inten    --      1.5221                 4.2706                 1.3255

                     73                     74                     75
                      A                      A                      A
 Frequencies --   1382.3355              1416.3947              1451.0733
 Red. masses --      1.8894                 1.4946                 1.9582
 Frc consts  --      2.1271                 1.7666                 2.4294
 IR Inten    --      9.5480                59.1256                45.6543

                     76                     77                     78
                      A                      A                      A
 Frequencies --   1465.9323              1494.9291              1500.6824
 Red. masses --      1.2048                 1.6599                 1.2707
 Frc consts  --      1.5255                 2.1856                 1.6860
 IR Inten    --      1.4298                37.3058                 6.0903

                     79                     80                     81
                      A                      A                      A
 Frequencies --   1508.9723              1513.1806              1515.8483
 Red. masses --      1.2011                 1.2994                 1.9604
 Frc consts  --      1.6113                 1.7529                 2.6541
 IR Inten    --     13.4230                19.5570                78.6548

                     82                     83                     84
                      A                      A                      A
 Frequencies --   1525.2955              1534.6407              1537.6238
 Red. masses --      1.6129                 1.1425                 1.2931
 Frc consts  --      2.2109                 1.5853                 1.8012
 IR Inten    --     12.8008                11.5852                28.6572

                     85                     86                     87
                      A                      A                      A
 Frequencies --   1615.0253              1635.9716              1644.1964
 Red. masses --      6.6439                 5.8578                 6.0308
 Frc consts  --     10.2101                 9.2372                 9.6058
 IR Inten    --     15.1755                 0.2093                 7.2233

                     88                     89                     90
                      A                      A                      A
 Frequencies --   1661.7135              2906.6279              2977.9674
 Red. masses --      6.0541                 1.0789                 1.0593
 Frc consts  --      9.8494                 5.3704                 5.5348
 IR Inten    --      5.6820               128.3542               136.0231

                     91                     92                     93
                      A                      A                      A
 Frequencies --   3042.6413              3070.9053              3081.3610
 Red. masses --      1.0825                 1.0602                 1.0655
 Frc consts  --      5.9047                 5.8907                 5.9607
 IR Inten    --     32.0732                49.5018                72.3610

                     94                     95                     96
                      A                      A                      A
 Frequencies --   3097.3714              3113.6571              3129.8983
 Red. masses --      1.0753                 1.0993                 1.1041
 Frc consts  --      6.0782                 6.2793                 6.3724
 IR Inten    --     66.3543                18.0471               104.7019

                     97                     98                     99
                      A                      A                      A
 Frequencies --   3139.9312              3198.6587              3212.6527
 Red. masses --      1.1037                 1.0859                 1.0903
 Frc consts  --      6.4114                 6.5459                 6.6300
 IR Inten    --     55.0224                 3.5308                33.3091

                    100                    101                    102
                      A                      A                      A
 Frequencies --   3221.6103              3223.8122              3227.5647
 Red. masses --      1.0944                 1.0884                 1.0912
 Frc consts  --      6.6921                 6.6646                 6.6972
 IR Inten    --     46.8260                 8.7825                 4.1900

                    103                    104                    105
                      A                      A                      A
 Frequencies --   3240.6342              3241.5330              3493.5427
 Red. masses --      1.0918                 1.0943                 1.0741
 Frc consts  --      6.7556                 6.7747                 7.7236
 IR Inten    --     30.0065                 6.2081                 2.3597

 - Thermochemistry -
 -------------------
 Temperature   298.150 Kelvin.  Pressure   1.00000 Atm.
 Atom     1 has atomic number  6 and mass  12.00000

 Molecular mass:   305.07381 amu.
 Principal axes and moments of inertia in atomic units:
                           1         2         3
     Eigenvalues --  3134.06798********************
           X            0.99989   0.01401  -0.00408
           Y           -0.01390   0.99957   0.02597
           Z            0.00444  -0.02591   0.99965
 This molecule is an asymmetric top.
 Rotational symmetry number  1.
 Warning -- assumption of classical behavior for rotation
           may cause significant error
 Rotational temperatures (Kelvin)      0.02764     0.00622     0.00580
 Rotational constants (GHZ):           0.57585     0.12963     0.12091
 Zero-point vibrational energy     794606.7 (Joules/Mol)
                                  189.91556 (Kcal/Mol)
 Warning -- explicit consideration of  27 degrees of freedom as
           vibrations may cause significant error
 Vibrational temperatures:     36.58    62.00    70.44   129.03   143.48
          (Kelvin)            180.67   194.14   222.31   246.69   272.03
                              284.55   306.49   338.13   366.74   446.84
                              501.45   519.65   564.17   604.39   636.92
                              655.28   666.62   698.72   726.00   762.44
                              820.88   854.52   899.32   911.56   982.58
                             1024.00  1058.34  1093.72  1104.49  1110.62
                             1157.20  1211.15  1223.95  1275.10  1283.11
                             1297.67  1325.10  1372.21  1383.23  1407.03
                             1428.17  1451.48  1466.36  1490.39  1538.65
                             1545.12  1554.37  1603.73  1647.01  1658.30
                             1669.04  1698.19  1713.69  1718.05  1730.04
                             1753.40  1768.01  1793.13  1848.87  1856.64
                             1871.10  1896.06  1924.75  1931.33  1949.51
                             1964.61  1977.50  1988.87  2037.88  2087.77
                             2109.15  2150.87  2159.15  2171.07  2177.13
                             2180.97  2194.56  2208.01  2212.30  2323.66
                             2353.80  2365.63  2390.84  4181.99  4284.63
                             4377.68  4418.35  4433.39  4456.43  4479.86
                             4503.23  4517.66  4602.16  4622.29  4635.18
                             4638.35  4643.75  4662.55  4663.84  5026.43

 Zero-point correction=                           0.302650 (Hartree/Particle)
 Thermal correction to Energy=                    0.320342
 Thermal correction to Enthalpy=                  0.321286
 Thermal correction to Gibbs Free Energy=         0.255691
 Sum of electronic and zero-point Energies=          -1632.890473
 Sum of electronic and thermal Energies=             -1632.872781
 Sum of electronic and thermal Enthalpies=           -1632.871837
 Sum of electronic and thermal Free Energies=        -1632.937432

                     E (Thermal)             CV                S
                      KCal/Mol        Cal/Mol-Kelvin    Cal/Mol-Kelvin
 Total                  201.017             68.725            138.056
 Electronic               0.000              0.000              0.000
 Translational            0.889              2.981             43.043
 Rotational               0.889              2.981             34.831
 Vibrational            199.240             62.764             60.183
 Vibration     1          0.593              1.985              6.158
 Vibration     2          0.595              1.980              5.112
 Vibration     3          0.595              1.978              4.859
 Vibration     4          0.602              1.956              3.667
 Vibration     5          0.604              1.949              3.460
 Vibration     6          0.611              1.927              3.013
 Vibration     7          0.613              1.918              2.874
 Vibration     8          0.620              1.898              2.616
 Vibration     9          0.626              1.878              2.419
 Vibration    10          0.633              1.855              2.237
 Vibration    11          0.637              1.843              2.154
 Vibration    12          0.644              1.821              2.018
 Vibration    13          0.655              1.787              1.840
 Vibration    14          0.665              1.755              1.696
 Vibration    15          0.699              1.654              1.359
 Vibration    16          0.726              1.578              1.173
 Vibration    17          0.735              1.552              1.117
 Vibration    18          0.760              1.487              0.992
 Vibration    19          0.783              1.427              0.892
 Vibration    20          0.802              1.377              0.818
 Vibration    21          0.814              1.349              0.779
 Vibration    22          0.821              1.331              0.756
 Vibration    23          0.842              1.282              0.695
 Vibration    24          0.860              1.240              0.647
 Vibration    25          0.885              1.184              0.587
 Vibration    26          0.927              1.095              0.503
 Vibration    27          0.952              1.045              0.460

 Optimization completed.
    -- Stationary point found.
 Normal termination of Gaussian 16 at Tue Mar  1 17:53:04 2022.

 ------------------------------------------
 #p b3lyp/6-31G(d) geom=allcheck guess=read
 ------------------------------------------

 Structure from the checkpoint file:  "2.n.pdb.xyz.mst.wat.chk"
 -----------
 2.n.pdb.xyz
 -----------
 Charge =  0 Multiplicity = 1

 SCF Done:  E(RB3LYP) =  -1633.18460786     A.U. after   11 cycles
 Normal termination of Gaussian 16 at Tue Mar  1 17:56:03 2022.
 Gaussian 16:  ES64L-G16RevA.03 25-Dec-2016

 ----------------------------------------------------------------------
 #p b3lyp/6-31G(d) scrf=(iefpcm,read,solvent=water) geom=allcheck guess
 =read
 ----------------------------------------------------------------------

 Structure from the checkpoint file:  "2.n.pdb.xyz.mst.wat.chk"
 -----------
 2.n.pdb.xyz
 -----------
 Charge =  0 Multiplicity = 1

                         Standard orientation:
 ---------------------------------------------------------------------
 Center     Atomic      Atomic             Coordinates (Angstroms)
 Number     Number       Type             X           Y           Z
 ---------------------------------------------------------------------
      1          6           0       -5.380489   -2.304188    0.253130
      2          7           0       -4.874671   -0.932079    0.160490
      3          6           0       -3.412975   -0.863113    0.132032
      4          6           0       -2.837456   -1.478361   -1.162732
      5          6           0       -1.294070   -1.353925   -1.240456
      6          6           0       -0.682945   -0.523309   -0.072928
      7          6           0        0.803730   -0.297208   -0.264776
      8          6           0        1.692328   -0.663024    0.748702
      9          6           0        3.067204   -0.481058    0.601811
     10         17           0        4.123494   -0.965920    1.911938
     11          6           0        3.576158    0.075321   -0.574424
     12         17           0        5.294308    0.320774   -0.802613
     13          6           0        2.698542    0.443328   -1.595328
     14          6           0        1.328616    0.256778   -1.440564
     15          6           0       -1.507253    0.738888    0.142781
     16          6           0       -2.902027    0.557416    0.246205
     17          6           0       -3.731007    1.667309    0.417117
     18          6           0       -3.188571    2.951438    0.515863
     19          6           0       -1.808571    3.129327    0.436263
     20          6           0       -0.972731    2.024885    0.246494
     21          1           0       -5.226470   -2.833657   -0.690781
     22          1           0       -4.899349   -2.894830    1.051134
     23          1           0       -6.455186   -2.274076    0.448993
     24          1           0       -5.187707   -0.443814    0.998189
     25          1           0       -2.983620   -1.440102    0.975715
     26          1           0       -3.307563   -0.962686   -2.006274
     27          1           0       -3.130708   -2.529105   -1.227704
     28          1           0       -1.010521   -0.882170   -2.184551
     29          1           0       -0.826585   -2.343391   -1.232468
     30          1           0       -0.793920   -1.129390    0.834750
     31          1           0        1.314440   -1.099139    1.666473
     32          1           0        3.098559    0.872511   -2.506005
     33          1           0        0.664409    0.545688   -2.247363
     34          1           0       -4.803696    1.528252    0.461104
     35          1           0       -3.843494    3.805810    0.651487
     36          1           0       -1.379575    4.123544    0.515735
     37          1           0        0.100158    2.165579    0.174471
 ---------------------------------------------------------------------

 SCF Done:  E(RB3LYP) =  -1633.19231641     A.U. after   11 cycles

 The electronic state is 1-A.
 Alpha  occ. eigenvalues -- -101.56156-101.56155 -14.31789 -10.26766 -10.26654
 Alpha  occ. eigenvalues --  -10.21528 -10.21254 -10.21251 -10.21012 -10.20459
 Alpha  occ. eigenvalues --  -10.20403 -10.19722 -10.19608 -10.19235 -10.18786
 Alpha  occ. eigenvalues --  -10.18739 -10.18692 -10.18681 -10.18640 -10.18090
 Alpha  occ. eigenvalues --   -9.47771  -9.47769  -7.24177  -7.24173  -7.23204
 Alpha  occ. eigenvalues --   -7.23201  -7.23155  -7.23151  -0.91910  -0.90786
 Alpha  occ. eigenvalues --   -0.86592  -0.86341  -0.84535  -0.80835  -0.76981
 Alpha  occ. eigenvalues --   -0.75254  -0.73808  -0.73693  -0.70424  -0.66571
 Alpha  occ. eigenvalues --   -0.63666  -0.62718  -0.61073  -0.59921  -0.57259
 Alpha  occ. eigenvalues --   -0.54288  -0.52080  -0.51253  -0.49881  -0.48195
 Alpha  occ. eigenvalues --   -0.47231  -0.46330  -0.45805  -0.44818  -0.44046
 Alpha  occ. eigenvalues --   -0.43242  -0.42876  -0.42207  -0.41702  -0.40668
 Alpha  occ. eigenvalues --   -0.39807  -0.38897  -0.38437  -0.37427  -0.37012
 Alpha  occ. eigenvalues --   -0.35786  -0.35536  -0.35315  -0.34940  -0.33556
 Alpha  occ. eigenvalues --   -0.33429  -0.32728  -0.32213  -0.31266  -0.30576
 Alpha  occ. eigenvalues --   -0.26207  -0.24984  -0.24569  -0.24148  -0.22748
 Alpha virt. eigenvalues --   -0.02460  -0.02166  -0.00303  -0.00001   0.00151
 Alpha virt. eigenvalues --    0.05773   0.09121   0.10069   0.10767   0.11300
 Alpha virt. eigenvalues --    0.12231   0.12920   0.13920   0.14407   0.15372

 Mulliken charges:
               1
     1  C   -0.310901
     2  N   -0.612789
     3  C   -0.008568
     4  C   -0.278074
     5  C   -0.276987
     6  C   -0.275064
     7  C    0.166327
     8  C   -0.192713
     9  C   -0.074658
    10  Cl  -0.008796
    11  C   -0.079096
    12  Cl  -0.009104
    13  C   -0.138141
    14  C   -0.176010
    15  C    0.126740
    16  C    0.089178
    17  C   -0.216528
    18  C   -0.154557
    19  C   -0.154093
    20  C   -0.216613
    21  H    0.160392
    22  H    0.131190
    23  H    0.156820
    24  H    0.339999
    25  H    0.130624
    26  H    0.144280
    27  H    0.152455
    28  H    0.154662
    29  H    0.152715
    30  H    0.170597
    31  H    0.178195
    32  H    0.181793
    33  H    0.169100
    34  H    0.143581
    35  H    0.145599
    36  H    0.145387
    37  H    0.143058
 Sum of Mulliken charges =  -0.00000

 Dipole moment (field-independent basis, Debye):
    X=             -3.5821    Y=             -1.0221    Z=             -0.1924  Tot=              3.7300
 Quadrupole moment (field-independent basis, Debye-Ang):
   XX=           -143.3517   YY=           -125.3120   ZZ=           -128.2464
   XY=              6.4822   XZ=            -11.0641   YZ=             -1.6538

 Normal termination of Gaussian 16 at Tue Mar  1 17:59:42 2022.
