 Gaussian 16, Revision A.03,

 ----------------------------------------------------------------------
 #p b3lyp/6-31G(d) opt=(MaxStep=10,MaxCycles=1000) freq scf=(MaxCycle=2
 000,NoVarAcc,NoIncFock) scrf=(iefpcm,read,solvent=water)
 ----------------------------------------------------------------------

 ------------
 20.n.pdb.xyz
 ------------
 Symbolic Z-matrix:
 Charge =  0 Multiplicity = 1

 SCF Done:  E(RB3LYP) =  -769.341968460     A.U. after   12 cycles
 SCF Done:  E(RB3LYP) =  -769.347271576     A.U. after   10 cycles
 SCF Done:  E(RB3LYP) =  -769.348567671     A.U. after   10 cycles
 SCF Done:  E(RB3LYP) =  -769.350260564     A.U. after   10 cycles
 SCF Done:  E(RB3LYP) =  -769.350213421     A.U. after   10 cycles
 SCF Done:  E(RB3LYP) =  -769.349198879     A.U. after   11 cycles
 SCF Done:  E(RB3LYP) =  -769.348518375     A.U. after   10 cycles
 SCF Done:  E(RB3LYP) =  -769.350617054     A.U. after    8 cycles
 SCF Done:  E(RB3LYP) =  -769.351269991     A.U. after   10 cycles
 SCF Done:  E(RB3LYP) =  -769.351337111     A.U. after   10 cycles
 SCF Done:  E(RB3LYP) =  -769.351457177     A.U. after    9 cycles
 SCF Done:  E(RB3LYP) =  -769.351468703     A.U. after    9 cycles
 SCF Done:  E(RB3LYP) =  -769.351484470     A.U. after    8 cycles
 SCF Done:  E(RB3LYP) =  -769.351488314     A.U. after    7 cycles
 SCF Done:  E(RB3LYP) =  -769.351497948     A.U. after    8 cycles
 SCF Done:  E(RB3LYP) =  -769.351500590     A.U. after    7 cycles
 SCF Done:  E(RB3LYP) =  -769.351500909     A.U. after    6 cycles
 Optimization completed.
    -- Stationary point found.
 Normal termination of Gaussian 16 at Tue Mar  1 05:35:20 2022.

 --------------------------------------------------------------------
 #P Geom=AllCheck Guess=TCheck SCRF=Check GenChk RB3LYP/6-31G(d) Freq
 --------------------------------------------------------------------

 Structure from the checkpoint file:  "20.n.pdb.xyz.mst.wat.chk"
 ------------
 20.n.pdb.xyz
 ------------
 Charge =  0 Multiplicity = 1

 SCF Done:  E(RB3LYP) =  -769.351500909     A.U. after    1 cycles

  Exact polarizability: 307.978  29.018 350.320   2.917   9.890 142.283
 Approx polarizability: 335.788  26.240 370.230   3.599  11.775 163.129

                      1                      2                      3
                      A                      A                      A
 Frequencies --     22.4535                34.5477                61.1718
 Red. masses --      3.7889                 3.5425                 3.7818
 Frc consts  --      0.0011                 0.0025                 0.0083
 IR Inten    --      0.8544                 1.0497                 1.2819

                      4                      5                      6
                      A                      A                      A
 Frequencies --     68.5576                97.3815               146.7060
 Red. masses --      2.3067                 3.4634                 4.1033
 Frc consts  --      0.0064                 0.0194                 0.0520
 IR Inten    --      7.3433                 1.4094                 0.3653

                      7                      8                      9
                      A                      A                      A
 Frequencies --    156.7134               190.8680               225.3949
 Red. masses --      3.1882                 3.3184                 3.0267
 Frc consts  --      0.0461                 0.0712                 0.0906
 IR Inten    --      1.5418                 2.9733                10.9310

                     10                     11                     12
                      A                      A                      A
 Frequencies --    230.6787               280.8300               287.5555
 Red. masses --      2.8327                 2.5454                 1.4409
 Frc consts  --      0.0888                 0.1183                 0.0702
 IR Inten    --      4.3682                14.9819                61.5248

                     13                     14                     15
                      A                      A                      A
 Frequencies --    315.8719               337.3866               344.4734
 Red. masses --      3.9601                 4.9754                 4.0680
 Frc consts  --      0.2328                 0.3337                 0.2844
 IR Inten    --      0.7563                 4.2887                 2.0208

                     16                     17                     18
                      A                      A                      A
 Frequencies --    364.8151               416.2120               450.6046
 Red. masses --      3.3752                 2.6298                 3.2810
 Frc consts  --      0.2647                 0.2684                 0.3925
 IR Inten    --      1.0470                 2.6724                27.7082

                     19                     20                     21
                      A                      A                      A
 Frequencies --    474.0516               484.0058               511.9462
 Red. masses --      3.0253                 3.2365                 3.8532
 Frc consts  --      0.4006                 0.4467                 0.5950
 IR Inten    --      6.7977                 0.3348                 0.8497

                     22                     23                     24
                      A                      A                      A
 Frequencies --    544.5248               562.6454               569.3232
 Red. masses --      3.7907                 3.7674                 3.9274
 Frc consts  --      0.6622                 0.7027                 0.7500
 IR Inten    --      1.9450                 1.1120                 0.7321

                     25                     26                     27
                      A                      A                      A
 Frequencies --    598.2338               625.8972               631.0759
 Red. masses --      3.1123                 5.6357                 5.1322
 Frc consts  --      0.6563                 1.3008                 1.2042
 IR Inten    --      4.2878                 7.0544                19.9342

                     28                     29                     30
                      A                      A                      A
 Frequencies --    693.2039               733.8433               754.1539
 Red. masses --      5.2519                 3.3771                 3.1204
 Frc consts  --      1.4869                 1.0715                 1.0456
 IR Inten    --      0.2457                 1.3522                 4.3986

                     31                     32                     33
                      A                      A                      A
 Frequencies --    761.9350               768.4420               774.1200
 Red. masses --      1.3637                 1.2654                 1.2833
 Frc consts  --      0.4664                 0.4403                 0.4531
 IR Inten    --     79.5757                13.6151                67.9687

                     34                     35                     36
                      A                      A                      A
 Frequencies --    788.2917               818.6074               849.1344
 Red. masses --      2.6696                 4.2128                 1.5904
 Frc consts  --      0.9774                 1.6633                 0.6756
 IR Inten    --      6.7457                 0.4664                10.1676

                     37                     38                     39
                      A                      A                      A
 Frequencies --    858.7477               877.0412               903.0379
 Red. masses --      1.3497                 1.4057                 1.8842
 Frc consts  --      0.5864                 0.6371                 0.9053
 IR Inten    --      9.3601                 2.2541                65.9676

                     40                     41                     42
                      A                      A                      A
 Frequencies --    941.2506               943.8052               947.1971
 Red. masses --      1.3678                 1.4559                 1.3506
 Frc consts  --      0.7140                 0.7641                 0.7139
 IR Inten    --      0.2258               168.7461                 9.7955

                     43                     44                     45
                      A                      A                      A
 Frequencies --    957.2647               972.2480               976.0223
 Red. masses --      2.3727                 2.2169                 1.2459
 Frc consts  --      1.2810                 1.2347                 0.6993
 IR Inten    --     28.0380                 1.3125                 0.2504

                     46                     47                     48
                      A                      A                      A
 Frequencies --    983.5033               993.6445              1019.7240
 Red. masses --      1.2500                 3.2348                 2.5434
 Frc consts  --      0.7124                 1.8818                 1.5582
 IR Inten    --      0.4663                 4.5869                25.7515

                     49                     50                     51
                      A                      A                      A
 Frequencies --   1061.6521              1067.2088              1088.7654
 Red. masses --      2.9226                 3.4758                 2.7693
 Frc consts  --      1.9408                 2.3324                 1.9342
 IR Inten    --      4.4803                10.3440                18.5589

                     52                     53                     54
                      A                      A                      A
 Frequencies --   1095.1687              1107.4374              1137.7384
 Red. masses --      2.3589                 2.2926                 2.1117
 Frc consts  --      1.6669                 1.6566                 1.6105
 IR Inten    --     25.1890                27.4585                67.3599

                     55                     56                     57
                      A                      A                      A
 Frequencies --   1151.6327              1161.3597              1188.8807
 Red. masses --      1.7074                 1.8859                 1.2882
 Frc consts  --      1.3342                 1.4987                 1.0728
 IR Inten    --     23.5706                39.2851                16.7525

                     58                     59                     60
                      A                      A                      A
 Frequencies --   1191.2540              1197.7521              1200.2536
 Red. masses --      1.2687                 1.2463                 1.2728
 Frc consts  --      1.0608                 1.0534                 1.0804
 IR Inten    --     58.8921                29.2225                13.2742

                     61                     62                     63
                      A                      A                      A
 Frequencies --   1220.0664              1229.4420              1240.6585
 Red. masses --      2.3065                 1.7703                 1.8860
 Frc consts  --      2.0229                 1.5765                 1.7104
 IR Inten    --     84.9581                12.2281                31.4994

                     64                     65                     66
                      A                      A                      A
 Frequencies --   1252.2634              1271.3562              1296.6352
 Red. masses --      1.4748                 1.5637                 1.4729
 Frc consts  --      1.3626                 1.4891                 1.4590
 IR Inten    --     15.6143               150.1841               127.0800

                     67                     68                     69
                      A                      A                      A
 Frequencies --   1312.1877              1339.3222              1343.0797
 Red. masses --      1.3808                 1.9019                 1.8220
 Frc consts  --      1.4008                 2.0101                 1.9364
 IR Inten    --      5.0042                 3.2268                 7.1546

                     70                     71                     72
                      A                      A                      A
 Frequencies --   1346.8477              1356.4268              1364.6925
 Red. masses --      1.7863                 1.5368                 2.2737
 Frc consts  --      1.9091                 1.6660                 2.4949
 IR Inten    --     82.2570                18.5703                 7.5953

                     73                     74                     75
                      A                      A                      A
 Frequencies --   1371.8566              1391.2687              1405.6992
 Red. masses --      1.6449                 1.6808                 1.3761
 Frc consts  --      1.8239                 1.9168                 1.6021
 IR Inten    --      8.1147               217.9561                21.8651

                     76                     77                     78
                      A                      A                      A
 Frequencies --   1414.9405              1444.0183              1489.0668
 Red. masses --      1.3728                 1.4828                 2.0732
 Frc consts  --      1.6194                 1.8217                 2.7085
 IR Inten    --     64.6266                53.6664                97.8108

                     79                     80                     81
                      A                      A                      A
 Frequencies --   1492.2435              1506.5428              1511.7010
 Red. masses --      1.9329                 1.2309                 1.2399
 Frc consts  --      2.5359                 1.6460                 1.6695
 IR Inten    --    102.2871                 2.7745                 8.6193

                     82                     83                     84
                      A                      A                      A
 Frequencies --   1526.0736              1528.9181              1538.1258
 Red. masses --      1.1856                 1.1333                 1.8071
 Frc consts  --      1.6268                 1.5609                 2.5189
 IR Inten    --     78.3353                38.2893               237.9455

                     85                     86                     87
                      A                      A                      A
 Frequencies --   1545.0103              1554.4075              1623.6361
 Red. masses --      1.3999                 1.4842                 5.4937
 Frc consts  --      1.9688                 2.1129                 8.5329
 IR Inten    --     30.5109                 9.5678                14.7312

                     88                     89                     90
                      A                      A                      A
 Frequencies --   1635.0535              1651.8088              1661.0389
 Red. masses --      6.3406                 5.4327                 4.9228
 Frc consts  --      9.9873                 8.7334                 8.0024
 IR Inten    --     20.7849               113.7312                10.6340

                     91                     92                     93
                      A                      A                      A
 Frequencies --   1663.7947              2975.0733              3043.2007
 Red. masses --      1.1127                 1.0724                 1.0676
 Frc consts  --      1.8148                 5.5923                 5.8253
 IR Inten    --     55.1432               133.6699                46.5752

                     94                     95                     96
                      A                      A                      A
 Frequencies --   3057.8107              3064.9258              3066.9742
 Red. masses --      1.0633                 1.0872                 1.0669
 Frc consts  --      5.8577                 6.0171                 5.9130
 IR Inten    --     52.1290                34.6817                28.7539

                     97                     98                     99
                      A                      A                      A
 Frequencies --   3082.1077              3094.8947              3111.4743
 Red. masses --      1.0644                 1.0977                 1.0992
 Frc consts  --      5.9571                 6.1948                 6.2697
 IR Inten    --    114.5439                63.3129                59.4694

                    100                    101                    102
                      A                      A                      A
 Frequencies --   3117.5677              3135.4003              3188.2449
 Red. masses --      1.0973                 1.1005                 1.0874
 Frc consts  --      6.2838                 6.3745                 6.5126
 IR Inten    --     14.5814               100.5236                24.7024

                    103                    104                    105
                      A                      A                      A
 Frequencies --   3192.0945              3201.7813              3204.5489
 Red. masses --      1.0875                 1.0889                 1.0889
 Frc consts  --      6.5286                 6.5767                 6.5885
 IR Inten    --     19.9219                29.3918                26.5963

                    106                    107                    108
                      A                      A                      A
 Frequencies --   3222.6514              3223.1652              3267.8134
 Red. masses --      1.0962                 1.0964                 1.0895
 Frc consts  --      6.7077                 6.7111                 6.8547
 IR Inten    --     62.9603                41.6004                12.6590

                    109                    110                    111
                      A                      A                      A
 Frequencies --   3292.7597              3459.8222              3537.1836
 Red. masses --      1.0884                 1.0522                 1.0910
 Frc consts  --      6.9529                 7.4208                 8.0423
 IR Inten    --     15.3342                 0.7568                 1.7133

 - Thermochemistry -
 -------------------
 Temperature   298.150 Kelvin.  Pressure   1.00000 Atm.
 Atom     1 has atomic number  7 and mass  14.00307

 Molecular mass:   252.16265 amu.
 Principal axes and moments of inertia in atomic units:
                           1         2         3
     Eigenvalues --  4563.832875019.819809156.06332
           X            0.98408  -0.17771   0.00227
           Y            0.17771   0.98408   0.00084
           Z           -0.00239  -0.00042   1.00000
 This molecule is an asymmetric top.
 Rotational symmetry number  1.
 Warning -- assumption of classical behavior for rotation
           may cause significant error
 Rotational temperatures (Kelvin)      0.01898     0.01725     0.00946
 Rotational constants (GHZ):           0.39544     0.35952     0.19711
 Zero-point vibrational energy     891612.2 (Joules/Mol)
                                  213.10044 (Kcal/Mol)
 Warning -- explicit consideration of  25 degrees of freedom as
           vibrations may cause significant error
 Vibrational temperatures:     32.31    49.71    88.01    98.64   140.11
          (Kelvin)            211.08   225.48   274.62   324.29   331.90
                              404.05   413.73   454.47   485.42   495.62
                              524.89   598.84   648.32   682.05   696.38
                              736.58   783.45   809.52   819.13   860.72
                              900.53   907.98   997.37  1055.84  1085.06
                             1096.25  1105.62  1113.79  1134.18  1177.79
                             1221.72  1235.55  1261.87  1299.27  1354.25
                             1357.93  1362.81  1377.29  1398.85  1404.28
                             1415.04  1429.63  1467.16  1527.48  1535.48
                             1566.49  1575.70  1593.36  1636.95  1656.94
                             1670.94  1710.53  1713.95  1723.30  1726.90
                             1755.40  1768.89  1785.03  1801.73  1829.20
                             1865.57  1887.95  1926.99  1932.39  1937.81
                             1951.60  1963.49  1973.80  2001.73  2022.49
                             2035.78  2077.62  2142.43  2147.01  2167.58
                             2175.00  2195.68  2199.77  2213.02  2222.93
                             2236.45  2336.05  2352.48  2376.58  2389.86
                             2393.83  4280.47  4378.49  4399.51  4409.74
                             4412.69  4434.47  4452.86  4476.72  4485.48
                             4511.14  4587.17  4592.71  4606.65  4610.63
                             4636.68  4637.42  4701.65  4737.55  4977.91
                             5089.22

 Zero-point correction=                           0.339597 (Hartree/Particle)
 Thermal correction to Energy=                    0.355890
 Thermal correction to Enthalpy=                  0.356834
 Thermal correction to Gibbs Free Energy=         0.294707
 Sum of electronic and zero-point Energies=           -769.011904
 Sum of electronic and thermal Energies=              -768.995611
 Sum of electronic and thermal Enthalpies=            -768.994667
 Sum of electronic and thermal Free Energies=         -769.056794

                     E (Thermal)             CV                S
                      KCal/Mol        Cal/Mol-Kelvin    Cal/Mol-Kelvin
 Total                  223.324             65.621            130.757
 Electronic               0.000              0.000              0.000
 Translational            0.889              2.981             42.475
 Rotational               0.889              2.981             33.705
 Vibrational            221.547             59.660             54.577
 Vibration     1          0.593              1.985              6.404
 Vibration     2          0.594              1.983              5.550
 Vibration     3          0.597              1.973              4.419
 Vibration     4          0.598              1.969              4.194
 Vibration     5          0.603              1.951              3.506
 Vibration     6          0.617              1.906              2.715
 Vibration     7          0.620              1.895              2.589
 Vibration     8          0.634              1.852              2.219
 Vibration     9          0.650              1.802              1.915
 Vibration    10          0.652              1.794              1.874
 Vibration    11          0.681              1.709              1.529
 Vibration    12          0.685              1.697              1.488
 Vibration    13          0.703              1.643              1.331
 Vibration    14          0.718              1.601              1.224
 Vibration    15          0.723              1.587              1.191
 Vibration    16          0.738              1.545              1.102
 Vibration    17          0.779              1.435              0.905
 Vibration    18          0.809              1.360              0.794
 Vibration    19          0.831              1.308              0.726
 Vibration    20          0.840              1.286              0.699
 Vibration    21          0.867              1.224              0.629
 Vibration    22          0.900              1.152              0.556
 Vibration    23          0.918              1.112              0.519
 Vibration    24          0.925              1.098              0.506
 Vibration    25          0.956              1.036              0.453

 Optimization completed.
    -- Stationary point found.
 Normal termination of Gaussian 16 at Tue Mar  1 06:25:49 2022.

 ------------------------------------------
 #p b3lyp/6-31G(d) geom=allcheck guess=read
 ------------------------------------------

 Structure from the checkpoint file:  "20.n.pdb.xyz.mst.wat.chk"
 ------------
 20.n.pdb.xyz
 ------------
 Charge =  0 Multiplicity = 1

 SCF Done:  E(RB3LYP) =  -769.338489989     A.U. after   11 cycles
 Normal termination of Gaussian 16 at Tue Mar  1 06:29:12 2022.
 Gaussian 16:  ES64L-G16RevA.03 25-Dec-2016

 ----------------------------------------------------------------------
 #p b3lyp/6-31G(d) scrf=(iefpcm,read,solvent=water) geom=allcheck guess
 =read
 ----------------------------------------------------------------------

 Structure from the checkpoint file:  "20.n.pdb.xyz.mst.wat.chk"
 ------------
 20.n.pdb.xyz
 ------------
 Charge =  0 Multiplicity = 1

                         Standard orientation:
 ---------------------------------------------------------------------
 Center     Atomic      Atomic             Coordinates (Angstroms)
 Number     Number       Type             X           Y           Z
 ---------------------------------------------------------------------
      1          7           0        4.848105   -1.761367   -0.463464
      2          6           0        3.785366   -1.465309    0.507247
      3          6           0        2.513992   -0.999184   -0.203638
      4          6           0        1.390502   -0.715244    0.811047
      5          7           0        0.142338   -0.109571    0.298256
      6          6           0        0.135117    1.289592    0.068098
      7          6           0        1.371685    1.979492    0.155422
      8          6           0        1.495112    3.345592   -0.074357
      9          6           0        0.378014    4.105911   -0.403989
     10          6           0       -0.849605    3.454622   -0.459874
     11          6           0       -1.012670    2.081358   -0.229357
     12          6           0       -2.441220    1.587819   -0.236849
     13          6           0       -2.722081    0.541767    0.851490
     14          6           0       -2.261005   -0.803056    0.378030
     15          6           0       -3.206033   -1.814941    0.173520
     16          6           0       -2.857831   -3.069208   -0.321966
     17          6           0       -1.523573   -3.310042   -0.642767
     18          6           0       -0.571503   -2.309604   -0.465356
     19          6           0       -0.909540   -1.041386    0.047987
     20          1           0        5.680003   -2.054542    0.048291
     21          1           0        4.570917   -2.582557   -1.002956
     22          1           0        3.541397   -2.321015    1.158902
     23          1           0        4.145431   -0.667587    1.167914
     24          1           0        2.197675   -1.771777   -0.912491
     25          1           0        2.740570   -0.111096   -0.799473
     26          1           0        1.105354   -1.649663    1.297228
     27          1           0        1.774590   -0.066142    1.604473
     28          1           0        2.275188    1.443745    0.395869
     29          1           0        2.476546    3.802668    0.004674
     30          1           0        0.451608    5.171670   -0.591100
     31          1           0       -1.746687    4.029006   -0.673519
     32          1           0       -3.090790    2.456468   -0.095157
     33          1           0       -2.714741    1.158567   -1.208909
     34          1           0       -2.220479    0.838427    1.780247
     35          1           0       -3.794165    0.498103    1.061594
     36          1           0       -4.240063   -1.600841    0.428598
     37          1           0       -3.611851   -3.837577   -0.456492
     38          1           0       -1.215302   -4.271132   -1.041782
     39          1           0        0.453342   -2.517235   -0.737575
 ---------------------------------------------------------------------

 SCF Done:  E(RB3LYP) =  -769.350919543     A.U. after   10 cycles

 The electronic state is 1-A.
 Alpha  occ. eigenvalues --  -14.36600 -14.30567 -10.23662 -10.23054 -10.21826
 Alpha  occ. eigenvalues --  -10.20360 -10.19367 -10.19365 -10.18797 -10.18659
 Alpha  occ. eigenvalues --  -10.18622 -10.18540 -10.18524 -10.18453 -10.18448
 Alpha  occ. eigenvalues --  -10.18364 -10.18194 -10.18006 -10.17830  -0.95341
 Alpha  occ. eigenvalues --   -0.87274  -0.85556  -0.84559  -0.79948  -0.76679
 Alpha  occ. eigenvalues --   -0.75598  -0.75442  -0.72323  -0.69908  -0.65948
 Alpha  occ. eigenvalues --   -0.64849  -0.60332  -0.59775  -0.59017  -0.58755
 Alpha  occ. eigenvalues --   -0.56506  -0.52051  -0.50435  -0.48492  -0.47734
 Alpha  occ. eigenvalues --   -0.47336  -0.46893  -0.45923  -0.45637  -0.44062
 Alpha  occ. eigenvalues --   -0.42757  -0.42240  -0.41108  -0.40930  -0.40427
 Alpha  occ. eigenvalues --   -0.39425  -0.38496  -0.37984  -0.37225  -0.36106
 Alpha  occ. eigenvalues --   -0.35564  -0.35440  -0.34601  -0.33906  -0.33038
 Alpha  occ. eigenvalues --   -0.32761  -0.32641  -0.30056  -0.25074  -0.24494
 Alpha  occ. eigenvalues --   -0.24079  -0.23776  -0.18943
 Alpha virt. eigenvalues --   -0.00873  -0.00176   0.00363   0.02010   0.08146
 Alpha virt. eigenvalues --    0.09895   0.10517   0.10652   0.11926   0.12641
 Alpha virt. eigenvalues --    0.13428   0.14393   0.14698   0.15063   0.15480

 Mulliken charges:
               1
     1  N   -0.791484
     2  C   -0.135373
     3  C   -0.278532
     4  C   -0.175746
     5  N   -0.613381
     6  C    0.283627
     7  C   -0.212312
     8  C   -0.169214
     9  C   -0.154546
    10  C   -0.234666
    11  C    0.142784
    12  C   -0.349407
    13  C   -0.353990
    14  C    0.147904
    15  C   -0.228267
    16  C   -0.149229
    17  C   -0.164808
    18  C   -0.177000
    19  C    0.233951
    20  H    0.334713
    21  H    0.329308
    22  H    0.127455
    23  H    0.145199
    24  H    0.157530
    25  H    0.153562
    26  H    0.170844
    27  H    0.166957
    28  H    0.153800
    29  H    0.144146
    30  H    0.139597
    31  H    0.139824
    32  H    0.158238
    33  H    0.159494
    34  H    0.158168
    35  H    0.156266
    36  H    0.143003
    37  H    0.144790
    38  H    0.147480
    39  H    0.149317
 Sum of Mulliken charges =  -0.00000

 Dipole moment (field-independent basis, Debye):
    X=              0.4362    Y=             -2.6187    Z=              1.5062  Tot=              3.0523
 Quadrupole moment (field-independent basis, Debye-Ang):
   XX=           -100.0277   YY=           -101.7295   ZZ=           -116.8072
   XY=            -10.5863   XZ=              5.8905   YZ=              1.1936

 Normal termination of Gaussian 16 at Tue Mar  1 06:32:56 2022.
