 Gaussian 16, Revision A.03,

 ----------------------------------------------------------------------
 #p b3lyp/6-31G(d) opt=(MaxStep=10,MaxCycles=1000) freq scf=(MaxCycle=2
 000,NoVarAcc,NoIncFock) scrf=(iefpcm,read,solvent=water)
 ----------------------------------------------------------------------

 -------------
 200.n.pdb.xyz
 -------------
 Symbolic Z-matrix:
 Charge =  0 Multiplicity = 1

 SCF Done:  E(RB3LYP) =  -460.882622427     A.U. after   12 cycles
 SCF Done:  E(RB3LYP) =  -460.883635153     A.U. after   10 cycles
 SCF Done:  E(RB3LYP) =  -460.883921420     A.U. after   10 cycles
 SCF Done:  E(RB3LYP) =  -460.883901769     A.U. after    9 cycles
 SCF Done:  E(RB3LYP) =  -460.883918660     A.U. after    9 cycles
 SCF Done:  E(RB3LYP) =  -460.883918584     A.U. after    9 cycles
 SCF Done:  E(RB3LYP) =  -460.883923406     A.U. after    8 cycles
 SCF Done:  E(RB3LYP) =  -460.883932918     A.U. after   10 cycles
 SCF Done:  E(RB3LYP) =  -460.883930741     A.U. after    9 cycles
 SCF Done:  E(RB3LYP) =  -460.883922251     A.U. after    9 cycles
 SCF Done:  E(RB3LYP) =  -460.883926832     A.U. after    8 cycles
 SCF Done:  E(RB3LYP) =  -460.883932373     A.U. after    9 cycles
 SCF Done:  E(RB3LYP) =  -460.883932925     A.U. after    8 cycles
 SCF Done:  E(RB3LYP) =  -460.883922846     A.U. after    9 cycles
 SCF Done:  E(RB3LYP) =  -460.883926799     A.U. after    8 cycles
 SCF Done:  E(RB3LYP) =  -460.883932348     A.U. after    9 cycles
 SCF Done:  E(RB3LYP) =  -460.883926139     A.U. after    9 cycles
 Optimization completed on the basis of negligible forces.
    -- Stationary point found.
 Normal termination of Gaussian 16 at Tue Mar  1 05:15:22 2022.

 --------------------------------------------------------------------
 #P Geom=AllCheck Guess=TCheck SCRF=Check GenChk RB3LYP/6-31G(d) Freq
 --------------------------------------------------------------------

 Structure from the checkpoint file:  "200.n.pdb.xyz.mst.wat.chk"
 -------------
 200.n.pdb.xyz
 -------------
 Charge =  0 Multiplicity = 1

 SCF Done:  E(RB3LYP) =  -460.883926139     A.U. after    1 cycles

  Exact polarizability: 172.357  -7.426 147.360 -17.183 -11.680  95.162
 Approx polarizability: 180.237  -7.470 169.842 -22.728 -16.655 107.270

                      1                      2                      3
                      A                      A                      A
 Frequencies --     32.7653                46.7276                82.2052
 Red. masses --      3.1442                 3.4128                 3.7992
 Frc consts  --      0.0020                 0.0044                 0.0151
 IR Inten    --      1.5524                 1.0789                 0.9148

                      4                      5                      6
                      A                      A                      A
 Frequencies --    118.3950               216.3977               242.0073
 Red. masses --      2.0283                 2.7091                 1.4003
 Frc consts  --      0.0168                 0.0747                 0.0483
 IR Inten    --      0.9531                 1.4259                 1.4383

                      7                      8                      9
                      A                      A                      A
 Frequencies --    258.2058               269.0537               332.5248
 Red. masses --      2.2548                 1.1879                 2.3967
 Frc consts  --      0.0886                 0.0507                 0.1561
 IR Inten    --      1.5760                 1.2622                 1.7604

                     10                     11                     12
                      A                      A                      A
 Frequencies --    371.8096               416.9517               425.9191
 Red. masses --      2.3434                 3.4852                 2.6000
 Frc consts  --      0.1909                 0.3570                 0.2779
 IR Inten    --     14.0426                 6.4968                 0.5524

                     13                     14                     15
                      A                      A                      A
 Frequencies --    448.5811               531.0005               612.7203
 Red. masses --      2.3903                 2.8764                 5.3996
 Frc consts  --      0.2834                 0.4778                 1.1944
 IR Inten    --      1.1064                13.2840                11.5246

                     16                     17                     18
                      A                      A                      A
 Frequencies --    645.1906               767.6402               783.2587
 Red. masses --      6.1586                 2.3676                 1.4901
 Frc consts  --      1.5104                 0.8220                 0.5386
 IR Inten    --      2.5175                 8.1485                28.4949

                     19                     20                     21
                      A                      A                      A
 Frequencies --    803.1092               835.1554               888.6501
 Red. masses --      1.3449                 4.6221                 3.2196
 Frc consts  --      0.5111                 1.8994                 1.4980
 IR Inten    --      3.5444                 8.3803                32.8751

                     22                     23                     24
                      A                      A                      A
 Frequencies --    918.2775               983.0604              1010.8012
 Red. masses --      1.3791                 1.4082                 6.1064
 Frc consts  --      0.6852                 0.8018                 3.6760
 IR Inten    --      4.0665                 0.1737                13.7062

                     25                     26                     27
                      A                      A                      A
 Frequencies --   1018.6053              1034.3032              1048.2509
 Red. masses --      1.2976                 3.1108                 1.7369
 Frc consts  --      0.7932                 1.9607                 1.1245
 IR Inten    --      0.0709                 5.7423                 6.0360

                     28                     29                     30
                      A                      A                      A
 Frequencies --   1063.9435              1072.5154              1077.4272
 Red. masses --      1.8302                 2.1789                 2.2500
 Frc consts  --      1.2206                 1.4767                 1.5389
 IR Inten    --     42.2786                41.2364                14.6927

                     31                     32                     33
                      A                      A                      A
 Frequencies --   1125.8806              1129.4448              1170.7557
 Red. masses --      1.4556                 1.3180                 1.2988
 Frc consts  --      1.0871                 0.9906                 1.0489
 IR Inten    --      3.2877                 7.5512                13.7244

                     34                     35                     36
                      A                      A                      A
 Frequencies --   1180.1762              1204.7621              1250.7866
 Red. masses --      1.1155                 1.7364                 2.0300
 Frc consts  --      0.9154                 1.4849                 1.8712
 IR Inten    --      8.6255                21.8569                 9.6641

                     37                     38                     39
                      A                      A                      A
 Frequencies --   1263.8799              1302.8826              1308.0841
 Red. masses --      1.9161                 2.8566                 3.3253
 Frc consts  --      1.8034                 2.8570                 3.3524
 IR Inten    --     17.9327                14.4473                 4.6565

                     40                     41                     42
                      A                      A                      A
 Frequencies --   1327.9286              1348.3445              1354.7782
 Red. masses --      1.5266                 1.3776                 1.4349
 Frc consts  --      1.5861                 1.4756                 1.5517
 IR Inten    --      5.9058                14.7598                 4.4490

                     43                     44                     45
                      A                      A                      A
 Frequencies --   1420.0032              1461.7061              1479.0720
 Red. masses --      1.3914                 1.1642                 1.9831
 Frc consts  --      1.6530                 1.4655                 2.5561
 IR Inten    --     34.0756                 2.9427                44.9808

                     46                     47                     48
                      A                      A                      A
 Frequencies --   1486.8046              1502.4075              1505.4271
 Red. masses --      1.2040                 1.1220                 1.0532
 Frc consts  --      1.5682                 1.4922                 1.4063
 IR Inten    --      2.8959                 3.7848                11.2931

                     49                     50                     51
                      A                      A                      A
 Frequencies --   1515.1512              1520.9816              1521.5709
 Red. masses --      1.0622                 1.4393                 1.4245
 Frc consts  --      1.4367                 1.9618                 1.9432
 IR Inten    --     10.2624                37.5583                17.0037

                     52                     53                     54
                      A                      A                      A
 Frequencies --   1527.3102              1532.1393              1629.0439
 Red. masses --      1.0975                 1.0623                 5.7142
 Frc consts  --      1.5084                 1.4692                 8.9345
 IR Inten    --      7.4236                10.9728                32.8527

                     55                     56                     57
                      A                      A                      A
 Frequencies --   1650.3398              2939.7430              2956.9051
 Red. masses --      5.4206                 1.0718                 1.0599
 Frc consts  --      8.6984                 5.4572                 5.4598
 IR Inten    --     88.8702                88.0479                59.3254

                     58                     59                     60
                      A                      A                      A
 Frequencies --   2963.7855              3070.6094              3089.8824
 Red. masses --      1.0621                 1.0618                 1.0851
 Frc consts  --      5.4970                 5.8985                 6.1037
 IR Inten    --    265.5923                37.4902                21.1594

                     61                     62                     63
                      A                      A                      A
 Frequencies --   3091.7895              3101.9893              3126.1674
 Red. masses --      1.0735                 1.0720                 1.1018
 Frc consts  --      6.0463                 6.0776                 6.3440
 IR Inten    --     66.2077                59.3379                51.0438

                     64                     65                     66
                      A                      A                      A
 Frequencies --   3137.5990              3148.7588              3185.0033
 Red. masses --      1.1045                 1.1022                 1.0894
 Frc consts  --      6.4066                 6.4387                 6.5111
 IR Inten    --     60.1137                55.6432                49.1402

                     67                     68                     69
                      A                      A                      A
 Frequencies --   3211.1098              3224.3464              3235.7720
 Red. masses --      1.0876                 1.0930                 1.0975
 Frc consts  --      6.6075                 6.6950                 6.7703
 IR Inten    --      7.8643                34.5081                23.3841

 - Thermochemistry -
 -------------------
 Temperature   298.150 Kelvin.  Pressure   1.00000 Atm.
 Atom     1 has atomic number  6 and mass  12.00000

 Molecular mass:   150.11570 amu.
 Principal axes and moments of inertia in atomic units:
                           1         2         3
     Eigenvalues --   599.117503714.673124053.86137
           X            1.00000  -0.00036   0.00237
           Y            0.00032   0.99981   0.01932
           Z           -0.00238  -0.01932   0.99981
 This molecule is an asymmetric top.
 Rotational symmetry number  1.
 Warning -- assumption of classical behavior for rotation
           may cause significant error
 Rotational temperatures (Kelvin)      0.14457     0.02332     0.02137
 Rotational constants (GHZ):           3.01233     0.48584     0.44519
 Zero-point vibrational energy     577548.5 (Joules/Mol)
                                  138.03741 (Kcal/Mol)
 Warning -- explicit consideration of  15 degrees of freedom as
           vibrations may cause significant error
 Vibrational temperatures:     47.14    67.23   118.27   170.34   311.35
          (Kelvin)            348.19   371.50   387.11   478.43   534.95
                              599.90   612.80   645.41   763.99   881.57
                              928.29  1104.46  1126.93  1155.50  1201.60
                             1278.57  1321.20  1414.40  1454.32  1465.55
                             1488.13  1508.20  1530.78  1543.11  1550.18
                             1619.89  1625.02  1684.46  1698.01  1733.38
                             1799.60  1818.44  1874.56  1882.04  1910.59
                             1939.97  1949.22  2043.07  2103.07  2128.05
                             2139.18  2161.63  2165.97  2179.96  2188.35
                             2189.20  2197.46  2204.41  2343.83  2374.47
                             4229.63  4254.33  4264.23  4417.92  4445.65
                             4448.40  4463.07  4497.86  4514.31  4530.36
                             4582.51  4620.07  4639.12  4655.55

 Zero-point correction=                           0.219977 (Hartree/Particle)
 Thermal correction to Energy=                    0.230930
 Thermal correction to Enthalpy=                  0.231874
 Thermal correction to Gibbs Free Energy=         0.182101
 Sum of electronic and zero-point Energies=           -460.663950
 Sum of electronic and thermal Energies=              -460.652996
 Sum of electronic and thermal Enthalpies=            -460.652052
 Sum of electronic and thermal Free Energies=         -460.701825

                     E (Thermal)             CV                S
                      KCal/Mol        Cal/Mol-Kelvin    Cal/Mol-Kelvin
 Total                  144.911             40.790            104.756
 Electronic               0.000              0.000              0.000
 Translational            0.889              2.981             40.929
 Rotational               0.889              2.981             30.579
 Vibrational            143.133             34.828             33.248
 Vibration     1          0.594              1.983              5.655
 Vibration     2          0.595              1.979              4.951
 Vibration     3          0.600              1.961              3.838
 Vibration     4          0.609              1.934              3.126
 Vibration     5          0.645              1.816              1.989
 Vibration     6          0.658              1.776              1.788
 Vibration     7          0.667              1.749              1.674
 Vibration     8          0.673              1.730              1.602
 Vibration     9          0.714              1.611              1.248
 Vibration    10          0.744              1.530              1.072
 Vibration    11          0.780              1.433              0.902
 Vibration    12          0.788              1.414              0.872
 Vibration    13          0.808              1.364              0.800
 Vibration    14          0.886              1.181              0.585
 Vibration    15          0.972              1.005              0.428

 Optimization completed.
    -- Stationary point found.
 Normal termination of Gaussian 16 at Tue Mar  1 05:27:04 2022.

 ------------------------------------------
 #p b3lyp/6-31G(d) geom=allcheck guess=read
 ------------------------------------------

 Structure from the checkpoint file:  "200.n.pdb.xyz.mst.wat.chk"
 -------------
 200.n.pdb.xyz
 -------------
 Charge =  0 Multiplicity = 1

 SCF Done:  E(RB3LYP) =  -460.877297815     A.U. after   11 cycles

 1\1\GINC-PIRINEUS5\SP\RB3LYP\6-31G(d)\C9H14N2\UBATOR01\01-Mar-2022\0\\
 #p b3lyp/6-31G(d) geom=allcheck guess=read\\200.n.pdb.xyz\\0,1\C,0,3.2
 372681491,-1.1846577561,-0.1464225718\N,0,2.4068518448,0.011306655,-0.
 2549187825\C,0,2.791253512,0.9828443256,0.7648521128\C,0,0.9878059148,
 -0.339057471,-0.1725670646\C,0,0.0606284681,0.8075480136,-0.6084378265
 \C,0,-1.3874111713,0.3805683855,-0.6139065771\N,0,-1.7723780131,-0.443
 0822825,-1.6077393941\C,0,-3.0467936614,-0.8568403385,-1.6253615588\C,
 0,-3.9965336701,-0.4847996313,-0.675296063\C,0,-3.5962313037,0.3670208

 Normal termination of Gaussian 16 at Tue Mar  1 05:28:12 2022.
 Gaussian 16:  ES64L-G16RevA.03 25-Dec-2016

 ----------------------------------------------------------------------
 #p b3lyp/6-31G(d) scrf=(iefpcm,read,solvent=water) geom=allcheck guess
 =read
 ----------------------------------------------------------------------

 Structure from the checkpoint file:  "200.n.pdb.xyz.mst.wat.chk"
 -------------
 200.n.pdb.xyz
 -------------
 Charge =  0 Multiplicity = 1

                         Standard orientation:
 ---------------------------------------------------------------------
 Center     Atomic      Atomic             Coordinates (Angstroms)
 Number     Number       Type             X           Y           Z
 ---------------------------------------------------------------------
      1          6           0       -3.615084   -1.086972   -0.605376
      2          7           0       -2.788341   -0.191028    0.198039
      3          6           0       -3.304666    1.172394    0.120106
      4          6           0       -1.387326   -0.272443   -0.218801
      5          6           0       -0.423611    0.379595    0.786409
      6          6           0        1.017728    0.185669    0.381323
      7          7           0        1.530082   -1.050121    0.538236
      8          6           0        2.800525   -1.257605    0.165991
      9          6           0        3.622013   -0.269444   -0.374138
     10          6           0        3.090001    1.008328   -0.536128
     11          6           0        1.770164    1.237882   -0.153188
     12          1           0       -3.617070   -0.825867   -1.679585
     13          1           0       -3.250347   -2.113250   -0.506412
     14          1           0       -4.648431   -1.048415   -0.248353
     15          1           0       -2.729592    1.836512    0.769242
     16          1           0       -3.270679    1.582102   -0.906217
     17          1           0       -4.345254    1.185563    0.456105
     18          1           0       -1.236637    0.177572   -1.218617
     19          1           0       -1.127043   -1.332474   -0.304866
     20          1           0       -0.590975   -0.074007    1.769553
     21          1           0       -0.631789    1.449088    0.873004
     22          1           0        3.181460   -2.265858    0.310481
     23          1           0        4.643775   -0.498068   -0.654379
     24          1           0        3.690602    1.811364   -0.950269
     25          1           0        1.321328    2.219363   -0.260785
 ---------------------------------------------------------------------

 SCF Done:  E(RB3LYP) =  -460.883486699     A.U. after   10 cycles

 The electronic state is 1-A.
 Alpha  occ. eigenvalues --  -14.33239 -14.32600 -10.22977 -10.22360 -10.20661
 Alpha  occ. eigenvalues --  -10.20632 -10.19741 -10.19691 -10.19599 -10.19562
 Alpha  occ. eigenvalues --  -10.18440  -0.94290  -0.91813  -0.80178  -0.79077
 Alpha  occ. eigenvalues --   -0.73180  -0.70073  -0.65997  -0.62997  -0.60233
 Alpha  occ. eigenvalues --   -0.57424  -0.51469  -0.49097  -0.47615  -0.46668
 Alpha  occ. eigenvalues --   -0.45816  -0.44669  -0.42320  -0.40774  -0.40252
 Alpha  occ. eigenvalues --   -0.39747  -0.38661  -0.36846  -0.36606  -0.35665
 Alpha  occ. eigenvalues --   -0.34497  -0.33776  -0.28631  -0.26119  -0.25537
 Alpha  occ. eigenvalues --   -0.21769
 Alpha virt. eigenvalues --   -0.02612  -0.00913   0.08928   0.10172   0.12202
 Alpha virt. eigenvalues --    0.13507   0.13805   0.15081   0.15321   0.15705
 Alpha virt. eigenvalues --    0.16472   0.17347   0.17798   0.18114   0.19002

 Mulliken charges:
               1
     1  C   -0.303860
     2  N   -0.404603
     3  C   -0.312679
     4  C   -0.112174
     5  C   -0.336916
     6  C    0.298983
     7  N   -0.518035
     8  C    0.026544
     9  C   -0.153932
    10  C   -0.110622
    11  C   -0.181465
    12  H    0.125384
    13  H    0.156695
    14  H    0.155367
    15  H    0.162228
    16  H    0.125378
    17  H    0.156735
    18  H    0.118234
    19  H    0.150352
    20  H    0.156489
    21  H    0.160381
    22  H    0.156412
    23  H    0.160372
    24  H    0.167494
    25  H    0.157236
 Sum of Mulliken charges =  -0.00000

 Dipole moment (field-independent basis, Debye):
    X=              1.2350    Y=              2.3714    Z=             -1.8689  Tot=              3.2621
 Quadrupole moment (field-independent basis, Debye-Ang):
   XX=            -54.7508   YY=            -63.6163   ZZ=            -69.9147
   XY=              0.4303   XZ=             -0.9381   YZ=              1.2475

 1\1\GINC-PIRINEUS5\SP\RB3LYP\6-31G(d)\C9H14N2\UBATOR01\01-Mar-2022\0\\
 #p b3lyp/6-31G(d) scrf=(iefpcm,read,solvent=water) geom=allcheck guess
 =read\\200.n.pdb.xyz\\0,1\C,0,3.2372681491,-1.1846577561,-0.1464225718
 \N,0,2.4068518448,0.011306655,-0.2549187825\C,0,2.791253512,0.98284432
 56,0.7648521128\C,0,0.9878059148,-0.339057471,-0.1725670646\C,0,0.0606
 284681,0.8075480136,-0.6084378265\C,0,-1.3874111713,0.3805683855,-0.61
 39065771\N,0,-1.7723780131,-0.4430822825,-1.6077393941\C,0,-3.04679366
 14,-0.8568403385,-1.6253615588\C,0,-3.9965336701,-0.4847996313,-0.6752

 Normal termination of Gaussian 16 at Tue Mar  1 05:29:28 2022.
