 Gaussian 16, Revision A.03,

 ----------------------------------------------------------------------
 #p b3lyp/6-31G(d) opt=(MaxStep=10,MaxCycles=1000) freq scf=(MaxCycle=2
 000,NoVarAcc,NoIncFock) scrf=(iefpcm,read,solvent=water)
 ----------------------------------------------------------------------

 -------------
 201.n.pdb.xyz
 -------------
 Symbolic Z-matrix:
 Charge =  0 Multiplicity = 1

 SCF Done:  E(RB3LYP) =  -117.908341326     A.U. after   10 cycles
 SCF Done:  E(RB3LYP) =  -117.908691479     A.U. after    8 cycles
 SCF Done:  E(RB3LYP) =  -117.908697883     A.U. after    7 cycles
 Optimization completed.
    -- Stationary point found.

 1\1\GINC-PIRINEUS19\FOpt\RB3LYP\6-31G(d)\C3H6\UBATOR01\01-Mar-2022\0\\
 #p b3lyp/6-31G(d) opt=(MaxStep=10,MaxCycles=1000) freq scf=(MaxCycle=2
 000,NoVarAcc,NoIncFock) scrf=(iefpcm,read,solvent=water)\\201.n.pdb.xy
 z\\0,1\C,-0.8580601768,0.627786333,-0.4111791246\C,0.2396580839,0.1211
 506402,0.477826965\C,1.0038321286,-0.9429565189,0.2248086356\H,-1.8203
 394815,0.6341902366,0.1145516759\H,-0.6677163365,1.6616585516,-0.72330
 45907\H,-0.9617598207,0.0117686043,-1.3091348895\H,0.406809358,0.68299
 30123,1.3963505157\H,0.8738880555,-1.5341552752,-0.6785957026\H,1.7846

 Normal termination of Gaussian 16 at Tue Mar  1 05:49:32 2022.

 --------------------------------------------------------------------
 #P Geom=AllCheck Guess=TCheck SCRF=Check GenChk RB3LYP/6-31G(d) Freq
 --------------------------------------------------------------------

 Structure from the checkpoint file:  "201.n.pdb.xyz.mst.wat.chk"
 -------------
 201.n.pdb.xyz
 -------------
 Charge =  0 Multiplicity = 1

 SCF Done:  E(RB3LYP) =  -117.908697883     A.U. after    1 cycles

  Exact polarizability:  55.546  -7.130  41.142   0.001   0.000  23.084
 Approx polarizability:  59.242 -10.269  43.935   0.001   0.000  25.128

                      1                      2                      3
                      A                      A                      A
 Frequencies --    219.9285               391.0234               592.0192
 Red. masses --      1.1591                 1.9039                 1.1950
 Frc consts  --      0.0330                 0.1715                 0.2468
 IR Inten    --      0.6263                 1.5683                13.8792

                      4                      5                      6
                      A                      A                      A
 Frequencies --    931.9836               935.0592               952.3038
 Red. masses --      2.4122                 1.3383                 1.1495
 Frc consts  --      1.2345                 0.6894                 0.6142
 IR Inten    --      4.4478                57.3970                 8.4288

                      7                      8                      9
                      A                      A                      A
 Frequencies --   1037.6581              1082.4047              1192.2315
 Red. masses --      1.0507                 1.5305                 1.8394
 Frc consts  --      0.6666                 1.0565                 1.5404
 IR Inten    --     13.6914                 0.9081                 0.7975

                     10                     11                     12
                      A                      A                      A
 Frequencies --   1329.6919              1427.3807              1463.4199
 Red. masses --      1.2359                 1.2247                 1.2246
 Frc consts  --      1.2874                 1.4701                 1.5451
 IR Inten    --      0.0844                 1.7597                 1.1501

                     13                     14                     15
                      A                      A                      A
 Frequencies --   1498.6520              1507.1225              1731.8486
 Red. masses --      1.0455                 1.0533                 4.4213
 Frc consts  --      1.3834                 1.4096                 7.8131
 IR Inten    --      9.1097                15.4708                20.1881

                     16                     17                     18
                      A                      A                      A
 Frequencies --   3048.5013              3097.5337              3130.2122
 Red. masses --      1.0368                 1.1002                 1.1004
 Frc consts  --      5.6772                 6.2193                 6.3527
 IR Inten    --     37.9179                36.4025                21.5053

                     19                     20                     21
                      A                      A                      A
 Frequencies --   3157.4502              3167.0474              3244.3340
 Red. masses --      1.0716                 1.0793                 1.1156
 Frc consts  --      6.2945                 6.3784                 6.9187
 IR Inten    --     57.5527                 8.0336                33.6904

 - Thermochemistry -
 -------------------
 Temperature   298.150 Kelvin.  Pressure   1.00000 Atm.
 Atom     1 has atomic number  6 and mass  12.00000

 Molecular mass:    42.04695 amu.
 Principal axes and moments of inertia in atomic units:
                           1         2         3
     Eigenvalues --    38.55659 194.89753 222.34674
           X            1.00000   0.00299   0.00000
           Y           -0.00299   1.00000   0.00000
           Z           -0.00000  -0.00000   1.00000
 This molecule is an asymmetric top.
 Rotational symmetry number  1.
 Rotational temperatures (Kelvin)      2.24641     0.44441     0.38954
 Rotational constants (GHZ):          46.80759     9.25995     8.11679
 Zero-point vibrational energy     210170.8 (Joules/Mol)
                                   50.23202 (Kcal/Mol)
 Warning -- explicit consideration of   3 degrees of freedom as
           vibrations may cause significant error
 Vibrational temperatures:    316.43   562.60   851.78  1340.92  1345.34
          (Kelvin)           1370.15  1492.96  1557.34  1715.36  1913.13
                             2053.68  2105.53  2156.23  2168.41  2491.74
                             4386.11  4456.66  4503.68  4542.87  4556.67
                             4667.87

 Zero-point correction=                           0.080050 (Hartree/Particle)
 Thermal correction to Energy=                    0.084144
 Thermal correction to Enthalpy=                  0.085088
 Thermal correction to Gibbs Free Energy=         0.055048
 Sum of electronic and zero-point Energies=           -117.828648
 Sum of electronic and thermal Energies=              -117.824554
 Sum of electronic and thermal Enthalpies=            -117.823610
 Sum of electronic and thermal Free Energies=         -117.853649

                     E (Thermal)             CV                S
                      KCal/Mol        Cal/Mol-Kelvin    Cal/Mol-Kelvin
 Total                   52.801             12.995             63.224
 Electronic               0.000              0.000              0.000
 Translational            0.889              2.981             37.135
 Rotational               0.889              2.981             22.040
 Vibrational             51.024              7.033              4.049
 Vibration     1          0.647              1.811              1.960
 Vibration     2          0.759              1.489              0.996
 Vibration     3          0.949              1.049              0.464

                           ! Non-Optimized Parameters !

 1\1\GINC-PIRINEUS19\Freq\RB3LYP\6-31G(d)\C3H6\UBATOR01\01-Mar-2022\0\\
 #P Geom=AllCheck Guess=TCheck SCRF=Check GenChk RB3LYP/6-31G(d) Freq\\
 201.n.pdb.xyz\\0,1\C,-0.8580601768,0.627786333,-0.4111791246\C,0.23965
 80839,0.1211506402,0.477826965\C,1.0038321286,-0.9429565189,0.22480863
 56\H,-1.8203394815,0.6341902366,0.1145516759\H,-0.6677163365,1.6616585
 516,-0.7233045907\H,-0.9617598207,0.0117686043,-1.3091348895\H,0.40680
 9358,0.6829930123,1.3963505157\H,0.8738880555,-1.5341552752,-0.6785957
 026\H,1.7846881894,-1.2614355839,0.9086765151\\Version=ES64L-G16RevA.0

 Normal termination of Gaussian 16 at Tue Mar  1 05:50:03 2022.

 ------------------------------------------
 #p b3lyp/6-31G(d) geom=allcheck guess=read
 ------------------------------------------

 Structure from the checkpoint file:  "201.n.pdb.xyz.mst.wat.chk"
 -------------
 201.n.pdb.xyz
 -------------
 Charge =  0 Multiplicity = 1

 SCF Done:  E(RB3LYP) =  -117.907544770     A.U. after    9 cycles
 Normal termination of Gaussian 16 at Tue Mar  1 05:50:07 2022.
 Gaussian 16:  ES64L-G16RevA.03 25-Dec-2016

 ----------------------------------------------------------------------
 #p b3lyp/6-31G(d) scrf=(iefpcm,read,solvent=water) geom=allcheck guess
 =read
 ----------------------------------------------------------------------

 Structure from the checkpoint file:  "201.n.pdb.xyz.mst.wat.chk"
 -------------
 201.n.pdb.xyz
 -------------
 Charge =  0 Multiplicity = 1

                         Standard orientation:
 ---------------------------------------------------------------------
 Center     Atomic      Atomic             Coordinates (Angstroms)
 Number     Number       Type             X           Y           Z
 ---------------------------------------------------------------------
      1          6           0       -1.234065   -0.163744    0.000000
      2          6           0        0.132698    0.455899   -0.000006
      3          6           0        1.282908   -0.220357   -0.000005
      4          1           0       -1.809973    0.150883    0.878496
      5          1           0       -1.810245    0.151216   -0.878272
      6          1           0       -1.177809   -1.256168   -0.000154
      7          1           0        0.162313    1.545125   -0.000001
      8          1           0        1.303000   -1.307618   -0.000048
      9          1           0        2.243468    0.285771    0.000043
 ---------------------------------------------------------------------

 SCF Done:  E(RB3LYP) =  -117.908677136     A.U. after    9 cycles

 The electronic state is 1-A.
 Alpha  occ. eigenvalues --  -10.18956 -10.17812 -10.17480  -0.78172  -0.68115
 Alpha  occ. eigenvalues --   -0.55135  -0.46291  -0.41671  -0.40778  -0.36786
 Alpha  occ. eigenvalues --   -0.34296  -0.25440
 Alpha virt. eigenvalues --    0.02419   0.11686   0.13833   0.15289   0.17898
 Alpha virt. eigenvalues --    0.18371   0.19500   0.28817   0.37665   0.49869
 Alpha virt. eigenvalues --    0.52831   0.53017   0.60815   0.63171   0.65400

 Mulliken charges:
               1
     1  C   -0.492323
     2  C   -0.058836
     3  C   -0.368910
     4  H    0.163827
     5  H    0.163813
     6  H    0.158396
     7  H    0.140614
     8  H    0.145002
     9  H    0.148416
 Sum of Mulliken charges =  -0.00000

 Dipole moment (field-independent basis, Debye):
    X=             -0.4843    Y=              0.1333    Z=              0.0001  Tot=              0.5023
 Quadrupole moment (field-independent basis, Debye-Ang):
   XX=            -18.7137   YY=            -18.5269   ZZ=            -21.3030
   XY=             -0.1518   XZ=              0.0001   YZ=             -0.0000

 Normal termination of Gaussian 16 at Tue Mar  1 05:50:14 2022.
