 Gaussian 16, Revision A.03,

 ----------------------------------------------------------------------
 #p b3lyp/6-31G(d) opt=(MaxStep=10,MaxCycles=1000) freq scf=(MaxCycle=2
 000,NoVarAcc,NoIncFock) scrf=(iefpcm,read,solvent=water)
 ----------------------------------------------------------------------

 -------------
 202.n.pdb.xyz
 -------------
 Symbolic Z-matrix:
 Charge =  0 Multiplicity = 1

 SCF Done:  E(RB3LYP) =  -1493.23313870     A.U. after   13 cycles
 SCF Done:  E(RB3LYP) =  -1493.23855734     A.U. after   10 cycles
 SCF Done:  E(RB3LYP) =  -1493.23821976     A.U. after   11 cycles
 SCF Done:  E(RB3LYP) =  -1493.24171202     A.U. after   11 cycles
 SCF Done:  E(RB3LYP) =  -1493.24326210     A.U. after   11 cycles
 SCF Done:  E(RB3LYP) =  -1493.24099415     A.U. after   13 cycles
 SCF Done:  E(RB3LYP) =  -1493.24365410     A.U. after   10 cycles
 SCF Done:  E(RB3LYP) =  -1493.24347092     A.U. after   10 cycles
 SCF Done:  E(RB3LYP) =  -1493.24370148     A.U. after   10 cycles
 SCF Done:  E(RB3LYP) =  -1493.24372081     A.U. after    9 cycles
 SCF Done:  E(RB3LYP) =  -1493.24372228     A.U. after    8 cycles
 SCF Done:  E(RB3LYP) =  -1493.24372338     A.U. after    7 cycles
 SCF Done:  E(RB3LYP) =  -1493.24372565     A.U. after    7 cycles
 Optimization completed.
    -- Stationary point found.
 Normal termination of Gaussian 16 at Tue Mar  1 16:38:41 2022.

 --------------------------------------------------------------------
 #P Geom=AllCheck Guess=TCheck SCRF=Check GenChk RB3LYP/6-31G(d) Freq
 --------------------------------------------------------------------

 Structure from the checkpoint file:  "202.n.pdb.xyz.mst.wat.chk"
 -------------
 202.n.pdb.xyz
 -------------
 Charge =  0 Multiplicity = 1

 SCF Done:  E(RB3LYP) =  -1493.24372565     A.U. after    1 cycles

  Exact polarizability: 355.430 -21.071 326.725   6.404  37.963 222.801
 Approx polarizability: 387.458 -18.876 371.353  15.345  50.631 266.596

                      1                      2                      3
                      A                      A                      A
 Frequencies --     24.0717                40.0595                61.6746
 Red. masses --      6.6859                 6.9360                 6.1765
 Frc consts  --      0.0023                 0.0066                 0.0138
 IR Inten    --      0.2509                 0.7393                 0.5925

                      4                      5                      6
                      A                      A                      A
 Frequencies --     64.5744                88.7089               107.8519
 Red. masses --      7.5854                 6.0240                 6.2311
 Frc consts  --      0.0186                 0.0279                 0.0427
 IR Inten    --      0.9851                 0.2346                 3.4613

                      7                      8                      9
                      A                      A                      A
 Frequencies --    128.8917               141.2974               153.5670
 Red. masses --      3.8961                 5.6978                 5.8434
 Frc consts  --      0.0381                 0.0670                 0.0812
 IR Inten    --     10.3894                 0.4667                 1.9970

                     10                     11                     12
                      A                      A                      A
 Frequencies --    183.7764               192.5014               237.5867
 Red. masses --      5.8756                 4.5688                 5.9738
 Frc consts  --      0.1169                 0.0998                 0.1987
 IR Inten    --      0.1117                 3.4488                 1.3958

                     13                     14                     15
                      A                      A                      A
 Frequencies --    242.8255               246.4974               304.5409
 Red. masses --      6.2212                 5.9458                 3.6483
 Frc consts  --      0.2161                 0.2129                 0.1994
 IR Inten    --      2.9494                 2.0912                 5.6455

                     16                     17                     18
                      A                      A                      A
 Frequencies --    307.2897               322.3966               337.4262
 Red. masses --      5.8998                 3.6728                 3.9795
 Frc consts  --      0.3282                 0.2249                 0.2670
 IR Inten    --     12.5885                16.9590                11.0124

                     19                     20                     21
                      A                      A                      A
 Frequencies --    375.4977               396.6766               431.7445
 Red. masses --      1.3699                 5.6937                 5.4945
 Frc consts  --      0.1138                 0.5279                 0.6034
 IR Inten    --    167.6586                 3.4465                 9.3919

                     22                     23                     24
                      A                      A                      A
 Frequencies --    438.9400               444.6623               458.6538
 Red. masses --      6.1861                 4.5119                 4.7613
 Frc consts  --      0.7022                 0.5256                 0.5901
 IR Inten    --      6.2182                17.1544                 6.0890

                     25                     26                     27
                      A                      A                      A
 Frequencies --    478.3423               508.8513               526.1427
 Red. masses --      4.7407                 4.0766                 4.7682
 Frc consts  --      0.6391                 0.6219                 0.7777
 IR Inten    --     37.1522                14.7401                 1.2138

                     28                     29                     30
                      A                      A                      A
 Frequencies --    544.0950               560.7758               562.6556
 Red. masses --      4.6601                 5.5137                 4.8811
 Frc consts  --      0.8128                 1.0216                 0.9104
 IR Inten    --     11.0806                23.7634                 3.2870

                     31                     32                     33
                      A                      A                      A
 Frequencies --    595.9675               647.8354               658.6630
 Red. masses --      5.0075                 4.4695                 5.9705
 Frc consts  --      1.0479                 1.1052                 1.5261
 IR Inten    --      9.5428                10.3152                19.5542

                     34                     35                     36
                      A                      A                      A
 Frequencies --    683.4004               697.3372               709.2017
 Red. masses --      5.4727                 6.2741                 6.0679
 Frc consts  --      1.5059                 1.7976                 1.7982
 IR Inten    --      4.3990                 1.8041                 0.9592

                     37                     38                     39
                      A                      A                      A
 Frequencies --    734.3247               752.5170               770.5078
 Red. masses --      5.3954                 4.1476                 2.2951
 Frc consts  --      1.7141                 1.3838                 0.8028
 IR Inten    --      7.8492                14.0537                37.8156

                     40                     41                     42
                      A                      A                      A
 Frequencies --    782.9618               809.8146               811.2204
 Red. masses --      2.1345                 5.0739                 4.8157
 Frc consts  --      0.7709                 1.9605                 1.8672
 IR Inten    --     40.4673                65.3046                50.0782

                     43                     44                     45
                      A                      A                      A
 Frequencies --    840.0053               841.4631               871.3363
 Red. masses --      6.6146                 1.5513                 1.3753
 Frc consts  --      2.7499                 0.6471                 0.6152
 IR Inten    --     25.9767                24.3405                52.2892

                     46                     47                     48
                      A                      A                      A
 Frequencies --    877.6544               909.1479               940.8158
 Red. masses --      1.3909                 1.4582                 2.2572
 Frc consts  --      0.6312                 0.7101                 1.1772
 IR Inten    --      1.6971                15.9033                74.4592

                     49                     50                     51
                      A                      A                      A
 Frequencies --    955.6895               965.6486               994.7519
 Red. masses --      2.3014                 1.4250                 1.2715
 Frc consts  --      1.2384                 0.7829                 0.7413
 IR Inten    --     14.0831                 6.2615                 0.5233

                     52                     53                     54
                      A                      A                      A
 Frequencies --    995.2516              1017.8851              1022.5454
 Red. masses --      2.8842                 4.7282                 1.3720
 Frc consts  --      1.6832                 2.8863                 0.8452
 IR Inten    --     16.3673                72.2895                21.2339

                     55                     56                     57
                      A                      A                      A
 Frequencies --   1027.8348              1047.2804              1055.0230
 Red. masses --      5.5130                 6.5302                 3.9319
 Frc consts  --      3.4315                 4.2199                 2.5785
 IR Inten    --      8.9989                87.7545                57.6500

                     58                     59                     60
                      A                      A                      A
 Frequencies --   1063.7569              1116.8261              1130.2644
 Red. masses --      2.0643                 1.8619                 2.3000
 Frc consts  --      1.3763                 1.3683                 1.7312
 IR Inten    --     12.5290                31.1963                39.1615

                     61                     62                     63
                      A                      A                      A
 Frequencies --   1159.9022              1175.9467              1186.4847
 Red. masses --      1.8879                 1.7794                 1.1434
 Frc consts  --      1.4965                 1.4497                 0.9483
 IR Inten    --      4.6028                24.4530                 3.3324

                     64                     65                     66
                      A                      A                      A
 Frequencies --   1198.2398              1221.2422              1245.7915
 Red. masses --      1.5302                 1.4486                 1.3868
 Frc consts  --      1.2945                 1.2729                 1.2681
 IR Inten    --     13.2644                85.1572                10.6388

                     67                     68                     69
                      A                      A                      A
 Frequencies --   1256.1257              1277.3350              1283.9508
 Red. masses --      3.1527                 1.7501                 2.3423
 Frc consts  --      2.9309                 1.6824                 2.2750
 IR Inten    --     82.5665                18.6853                32.7985

                     70                     71                     72
                      A                      A                      A
 Frequencies --   1296.6874              1308.6712              1334.7196
 Red. masses --      1.8113                 2.6663                 2.7324
 Frc consts  --      1.7944                 2.6905                 2.8680
 IR Inten    --     27.8501                45.6464                28.5294

                     73                     74                     75
                      A                      A                      A
 Frequencies --   1347.0832              1356.1542              1365.0012
 Red. masses --      5.0681                 6.8237                 1.7164
 Frc consts  --      5.4185                 7.3941                 1.8842
 IR Inten    --     29.7628                28.8460                56.8494

                     76                     77                     78
                      A                      A                      A
 Frequencies --   1368.3006              1385.9163              1424.0496
 Red. masses --      3.4910                 1.2441                 1.7916
 Frc consts  --      3.8509                 1.4080                 2.1406
 IR Inten    --     31.9752                 1.9128                58.4479

                     79                     80                     81
                      A                      A                      A
 Frequencies --   1440.7129              1459.0091              1492.2831
 Red. masses --      2.7652                 3.0548                 2.3085
 Frc consts  --      3.3817                 3.8313                 3.0289
 IR Inten    --     31.5515               215.3370                42.5628

                     82                     83                     84
                      A                      A                      A
 Frequencies --   1499.9369              1506.6500              1520.9766
 Red. masses --      1.1114                 1.1144                 3.1396
 Frc consts  --      1.4733                 1.4905                 4.2792
 IR Inten    --      3.7129                15.4131               310.2745

                     85                     86                     87
                      A                      A                      A
 Frequencies --   1533.3476              1536.5953              1608.8148
 Red. masses --      3.0715                 4.5694                 7.0407
 Frc consts  --      4.2548                 6.3567                10.7368
 IR Inten    --     91.5126                 5.2886                22.6912

                     88                     89                     90
                      A                      A                      A
 Frequencies --   1628.6273              1631.6959              1649.6532
 Red. masses --      6.6463                 6.1328                 6.6901
 Frc consts  --     10.3866                 9.6203                10.7267
 IR Inten    --     16.1950                26.3355                 5.3840

                     91                     92                     93
                      A                      A                      A
 Frequencies --   1663.6745              1685.4294              3035.8198
 Red. masses --      6.6923                10.2514                 1.0700
 Frc consts  --     10.9134                17.1575                 5.8101
 IR Inten    --     83.7883               253.6767                47.7316

                     94                     95                     96
                      A                      A                      A
 Frequencies --   3080.1757              3142.9097              3145.5486
 Red. masses --      1.0637                 1.0939                 1.1018
 Frc consts  --      5.9459                 6.3664                 6.4228
 IR Inten    --     63.1786                51.8562                29.3595

                     97                     98                     99
                      A                      A                      A
 Frequencies --   3213.9619              3218.9412              3221.2170
 Red. masses --      1.0868                 1.0928                 1.0901
 Frc consts  --      6.6140                 6.6715                 6.6644
 IR Inten    --      0.7641                47.1776                13.7372

                    100                    101                    102
                      A                      A                      A
 Frequencies --   3234.0529              3242.4105              3247.3854
 Red. masses --      1.0939                 1.0963                 1.0916
 Frc consts  --      6.7409                 6.7906                 6.7821
 IR Inten    --     28.3832                12.8069                 1.5206

                    103                    104                    105
                      A                      A                      A
 Frequencies --   3250.4099              3274.2294              3712.4702
 Red. masses --      1.0934                 1.0973                 1.0666
 Frc consts  --      6.8059                 6.9307                 8.6610
 IR Inten    --      4.3821                14.1564               103.9556

 - Thermochemistry -
 -------------------
 Temperature   298.150 Kelvin.  Pressure   1.00000 Atm.
 Atom     1 has atomic number  8 and mass  15.99491

 Molecular mass:   341.07312 amu.
 Principal axes and moments of inertia in atomic units:
                           1         2         3
     Eigenvalues --  6567.52472********************
           X            0.99996   0.00283  -0.00812
           Y           -0.00276   0.99996   0.00818
           Z            0.00814  -0.00816   0.99993
 This molecule is an asymmetric top.
 Rotational symmetry number  1.
 Warning -- assumption of classical behavior for rotation
           may cause significant error
 Rotational temperatures (Kelvin)      0.01319     0.00861     0.00626
 Rotational constants (GHZ):           0.27480     0.17932     0.13036
 Zero-point vibrational energy     731564.6 (Joules/Mol)
                                  174.84813 (Kcal/Mol)
 Warning -- explicit consideration of  31 degrees of freedom as
           vibrations may cause significant error
 Vibrational temperatures:     34.63    57.64    88.74    92.91   127.63
          (Kelvin)            155.17   185.45   203.30   220.95   264.41
                              276.97   341.83   349.37   354.65   438.17
                              442.12   463.86   485.48   540.26   570.73
                              621.18   631.54   639.77   659.90   688.23
                              732.12   757.00   782.83   806.83   809.54
                              857.46   932.09   947.67   983.26  1003.31
                             1020.38  1056.53  1082.70  1108.59  1126.51
                             1165.14  1167.17  1208.58  1210.68  1253.66
                             1262.75  1308.06  1353.62  1375.02  1389.35
                             1431.23  1431.95  1464.51  1471.21  1478.83
                             1506.80  1517.94  1530.51  1606.86  1626.20
                             1668.84  1691.92  1707.09  1724.00  1757.10
                             1792.42  1807.28  1837.80  1847.32  1865.64
                             1882.89  1920.36  1938.15  1951.20  1963.93
                             1968.68  1994.02  2048.89  2072.86  2099.19
                             2147.06  2158.07  2167.73  2188.35  2206.15
                             2210.82  2314.73  2343.23  2347.65  2373.48
                             2393.66  2424.96  4367.87  4431.69  4521.95
                             4525.74  4624.17  4631.34  4634.61  4653.08
                             4665.11  4672.26  4676.61  4710.89  5341.42

 Zero-point correction=                           0.278638 (Hartree/Particle)
 Thermal correction to Energy=                    0.297788
 Thermal correction to Enthalpy=                  0.298732
 Thermal correction to Gibbs Free Energy=         0.230207
 Sum of electronic and zero-point Energies=          -1492.965087
 Sum of electronic and thermal Energies=             -1492.945938
 Sum of electronic and thermal Enthalpies=           -1492.944994
 Sum of electronic and thermal Free Energies=        -1493.013519

                     E (Thermal)             CV                S
                      KCal/Mol        Cal/Mol-Kelvin    Cal/Mol-Kelvin
 Total                  186.865             75.292            144.224
 Electronic               0.000              0.000              0.000
 Translational            0.889              2.981             43.375
 Rotational               0.889              2.981             35.169
 Vibrational            185.087             69.330             65.680
 Vibration     1          0.593              1.985              6.266
 Vibration     2          0.594              1.981              5.256
 Vibration     3          0.597              1.973              4.403
 Vibration     4          0.597              1.971              4.312
 Vibration     5          0.602              1.957              3.688
 Vibration     6          0.606              1.943              3.307
 Vibration     7          0.611              1.924              2.963
 Vibration     8          0.615              1.912              2.786
 Vibration     9          0.619              1.899              2.628
 Vibration    10          0.631              1.862              2.290
 Vibration    11          0.634              1.850              2.204
 Vibration    12          0.656              1.783              1.821
 Vibration    13          0.659              1.775              1.782
 Vibration    14          0.661              1.769              1.755
 Vibration    15          0.695              1.665              1.392
 Vibration    16          0.697              1.660              1.377
 Vibration    17          0.707              1.631              1.298
 Vibration    18          0.718              1.601              1.224
 Vibration    19          0.746              1.522              1.057
 Vibration    20          0.763              1.477              0.975
 Vibration    21          0.793              1.401              0.853
 Vibration    22          0.799              1.385              0.830
 Vibration    23          0.804              1.373              0.812
 Vibration    24          0.817              1.342              0.770
 Vibration    25          0.835              1.298              0.715
 Vibration    26          0.864              1.230              0.636
 Vibration    27          0.881              1.192              0.596
 Vibration    28          0.899              1.153              0.557
 Vibration    29          0.916              1.116              0.522
 Vibration    30          0.918              1.112              0.519
 Vibration    31          0.954              1.040              0.457

                           ! Non-Optimized Parameters !
 Normal termination of Gaussian 16 at Tue Mar  1 17:39:44 2022.

 ------------------------------------------
 #p b3lyp/6-31G(d) geom=allcheck guess=read
 ------------------------------------------

 Structure from the checkpoint file:  "202.n.pdb.xyz.mst.wat.chk"
 -------------
 202.n.pdb.xyz
 -------------
 Charge =  0 Multiplicity = 1

 SCF Done:  E(RB3LYP) =  -1493.22801870     A.U. after   12 cycles
 Normal termination of Gaussian 16 at Tue Mar  1 17:43:56 2022.
 Gaussian 16:  ES64L-G16RevA.03 25-Dec-2016

 ----------------------------------------------------------------------
 #p b3lyp/6-31G(d) scrf=(iefpcm,read,solvent=water) geom=allcheck guess
 =read
 ----------------------------------------------------------------------

 Structure from the checkpoint file:  "202.n.pdb.xyz.mst.wat.chk"
 -------------
 202.n.pdb.xyz
 -------------
 Charge =  0 Multiplicity = 1

                         Standard orientation:
 ---------------------------------------------------------------------
 Center     Atomic      Atomic             Coordinates (Angstroms)
 Number     Number       Type             X           Y           Z
 ---------------------------------------------------------------------
      1          8           0        4.715488    0.581257    1.143837
      2          6           0        3.744084   -0.307739    1.701339
      3          6           0        3.098015   -1.199757    0.689155
      4          7           0        3.492395   -2.437715    0.447906
      5          6           0        2.673522   -2.917596   -0.549856
      6          6           0        1.767484   -1.963018   -0.926838
      7          6           0        0.626182   -1.924254   -1.880000
      8          7           0       -0.645570   -1.884689   -1.142798
      9          6           0       -0.920591   -0.812458   -0.493213
     10          6           0       -0.056133    0.408080   -0.421012
     11          6           0       -0.685308    1.658110   -0.527546
     12          6           0        0.054871    2.829716   -0.460017
     13         17           0       -0.764957    4.375617   -0.618758
     14          6           0        1.433373    2.800519   -0.263503
     15          6           0        2.072093    1.570741   -0.156587
     16          6           0        1.344026    0.378039   -0.235420
     17          7           0        2.035818   -0.856114   -0.128477
     18          6           0       -2.208811   -0.762136    0.259675
     19          6           0       -3.409025   -1.240535   -0.280757
     20          9           0       -3.437144   -1.698891   -1.550738
     21          6           0       -4.602815   -1.236980    0.428575
     22          6           0       -4.614155   -0.748990    1.735056
     23          6           0       -3.437713   -0.260273    2.308359
     24          6           0       -2.255435   -0.260549    1.571143
     25          1           0        5.396971    0.031760    0.717888
     26          1           0        3.006227    0.326874    2.195283
     27          1           0        4.200121   -0.955098    2.456905
     28          1           0        2.775116   -3.920132   -0.940274
     29          1           0        0.710974   -1.052363   -2.542817
     30          1           0        0.640911   -2.820920   -2.500453
     31          1           0       -1.758078    1.701928   -0.662925
     32          1           0        2.001625    3.720554   -0.207479
     33          1           0        3.145088    1.521813   -0.006381
     34          1           0       -5.500530   -1.610198   -0.049902
     35          1           0       -5.541069   -0.747314    2.297942
     36          1           0       -3.440696    0.120676    3.323410
     37          1           0       -1.342479    0.120994    2.015893
 ---------------------------------------------------------------------

 SCF Done:  E(RB3LYP) =  -1493.24197587     A.U. after   11 cycles

 The electronic state is 1-A.
 Alpha  occ. eigenvalues -- -101.56020 -24.71231 -19.15479 -14.40919 -14.34043
 Alpha  occ. eigenvalues --  -14.32711 -10.28238 -10.26560 -10.26180 -10.25754
 Alpha  occ. eigenvalues --  -10.25135 -10.24509 -10.22990 -10.22769 -10.22638
 Alpha  occ. eigenvalues --  -10.21955 -10.21777 -10.21418 -10.21099 -10.20640
 Alpha  occ. eigenvalues --  -10.20536 -10.20503 -10.20114 -10.19765  -9.47646
 Alpha  occ. eigenvalues --   -7.24039  -7.23078  -7.23041  -1.22396  -1.03733
 Alpha  occ. eigenvalues --   -1.01987  -0.94557  -0.91268  -0.89530  -0.86939
 Alpha  occ. eigenvalues --   -0.84546  -0.79835  -0.78527  -0.76500  -0.75469
 Alpha  occ. eigenvalues --   -0.74804  -0.72240  -0.68264  -0.65544  -0.64437
 Alpha  occ. eigenvalues --   -0.63059  -0.62073  -0.59518  -0.58831  -0.56712
 Alpha  occ. eigenvalues --   -0.54435  -0.53331  -0.51313  -0.49912  -0.49710
 Alpha  occ. eigenvalues --   -0.49472  -0.48787  -0.47477  -0.47244  -0.46694
 Alpha  occ. eigenvalues --   -0.45955  -0.45176  -0.44710  -0.44149  -0.43280
 Alpha  occ. eigenvalues --   -0.42755  -0.41579  -0.41273  -0.40636  -0.40074
 Alpha  occ. eigenvalues --   -0.39289  -0.38303  -0.37418  -0.36815  -0.35661
 Alpha  occ. eigenvalues --   -0.35259  -0.34716  -0.32707  -0.32481  -0.30325
 Alpha  occ. eigenvalues --   -0.29145  -0.28257  -0.27991  -0.27186  -0.25693
 Alpha  occ. eigenvalues --   -0.24928  -0.24631  -0.22879
 Alpha virt. eigenvalues --   -0.06258  -0.03562  -0.02878  -0.00543   0.00852
 Alpha virt. eigenvalues --    0.02157   0.03696   0.05465   0.08924   0.10517
 Alpha virt. eigenvalues --    0.12037   0.12906   0.13124   0.13692   0.14374

 Mulliken charges:
               1
     1  O   -0.637629
     2  C   -0.108760
     3  C    0.442145
     4  N   -0.539065
     5  C   -0.104665
     6  C    0.311346
     7  C   -0.259472
     8  N   -0.438361
     9  C    0.219703
    10  C    0.089206
    11  C   -0.193973
    12  C   -0.060443
    13  Cl  -0.025253
    14  C   -0.148536
    15  C   -0.159751
    16  C    0.247144
    17  N   -0.577987
    18  C    0.008903
    19  C    0.338386
    20  F   -0.294259
    21  C   -0.206923
    22  C   -0.136844
    23  C   -0.146812
    24  C   -0.174537
    25  H    0.442067
    26  H    0.175749
    27  H    0.169780
    28  H    0.160648
    29  H    0.183138
    30  H    0.182661
    31  H    0.187440
    32  H    0.186890
    33  H    0.205928
    34  H    0.169275
    35  H    0.166803
    36  H    0.161080
    37  H    0.164977
 Sum of Mulliken charges =  -0.00000

 Dipole moment (field-independent basis, Debye):
    X=             -0.6492    Y=              2.3633    Z=              1.0855  Tot=              2.6805
 Quadrupole moment (field-independent basis, Debye-Ang):
   XX=           -130.1070   YY=           -156.6739   ZZ=           -135.6823
   XY=              4.9355   XZ=            -11.9387   YZ=              2.5719

 Normal termination of Gaussian 16 at Tue Mar  1 17:48:35 2022.
