 Gaussian 16, Revision A.03,

 ----------------------------------------------------------------------
 #p b3lyp/6-31G(d) opt=(MaxStep=10,MaxCycles=1000) freq scf=(MaxCycle=2
 000,NoVarAcc,NoIncFock) scrf=(iefpcm,read,solvent=water)
 ----------------------------------------------------------------------

 -------------
 203.n.pdb.xyz
 -------------
 Symbolic Z-matrix:
 Charge =  0 Multiplicity = 1

 SCF Done:  E(RB3LYP) =  -725.693974457     A.U. after   13 cycles
 SCF Done:  E(RB3LYP) =  -725.698579982     A.U. after   10 cycles
 SCF Done:  E(RB3LYP) =  -725.697776659     A.U. after   11 cycles
 SCF Done:  E(RB3LYP) =  -725.700084976     A.U. after   11 cycles
 SCF Done:  E(RB3LYP) =  -725.700888794     A.U. after   11 cycles
 SCF Done:  E(RB3LYP) =  -725.700904590     A.U. after   11 cycles
 SCF Done:  E(RB3LYP) =  -725.700970999     A.U. after   10 cycles
 SCF Done:  E(RB3LYP) =  -725.700968690     A.U. after   10 cycles
 SCF Done:  E(RB3LYP) =  -725.701048885     A.U. after    9 cycles
 SCF Done:  E(RB3LYP) =  -725.701066532     A.U. after    9 cycles
 SCF Done:  E(RB3LYP) =  -725.701061255     A.U. after    8 cycles
 SCF Done:  E(RB3LYP) =  -725.701060475     A.U. after    8 cycles
 SCF Done:  E(RB3LYP) =  -725.701067086     A.U. after    8 cycles
 SCF Done:  E(RB3LYP) =  -725.701069947     A.U. after    8 cycles
 SCF Done:  E(RB3LYP) =  -725.701067014     A.U. after    7 cycles
 SCF Done:  E(RB3LYP) =  -725.701063493     A.U. after    7 cycles
 Optimization completed.
    -- Stationary point found.
 Normal termination of Gaussian 16 at Tue Mar  1 18:07:00 2022.

 --------------------------------------------------------------------
 #P Geom=AllCheck Guess=TCheck SCRF=Check GenChk RB3LYP/6-31G(d) Freq
 --------------------------------------------------------------------

 Structure from the checkpoint file:  "203.n.pdb.xyz.mst.wat.chk"
 -------------
 203.n.pdb.xyz
 -------------
 Charge =  0 Multiplicity = 1

 SCF Done:  E(RB3LYP) =  -725.701063493     A.U. after    1 cycles

  Exact polarizability: 233.988   3.381 145.301  -6.174 -20.817 164.899
 Approx polarizability: 254.408   3.669 162.902  -8.146 -23.205 194.029

                      1                      2                      3
                      A                      A                      A
 Frequencies --     34.1684                47.3264                88.8864
 Red. masses --      3.8645                 6.2995                 5.5845
 Frc consts  --      0.0027                 0.0083                 0.0260
 IR Inten    --      1.8776                13.2516                 5.8417

                      4                      5                      6
                      A                      A                      A
 Frequencies --    116.9402               134.5844               140.3007
 Red. masses --      7.4421                 3.4243                 3.2529
 Frc consts  --      0.0600                 0.0365                 0.0377
 IR Inten    --      0.3894                 1.6602                 1.2540

                      7                      8                      9
                      A                      A                      A
 Frequencies --    169.0109               178.0824               216.6559
 Red. masses --      3.2872                 1.2514                 2.5064
 Frc consts  --      0.0553                 0.0234                 0.0693
 IR Inten    --      4.2034                 0.0146                 9.5413

                     10                     11                     12
                      A                      A                      A
 Frequencies --    265.0424               282.9035               311.3936
 Red. masses --      4.2584                 5.1091                 3.0296
 Frc consts  --      0.1762                 0.2409                 0.1731
 IR Inten    --      2.5660                16.3969                 2.5600

                     13                     14                     15
                      A                      A                      A
 Frequencies --    319.7385               394.4990               418.4380
 Red. masses --      2.9990                 7.9037                 2.9802
 Frc consts  --      0.1806                 0.7247                 0.3074
 IR Inten    --      2.2688                 8.7461                 0.1052

                     16                     17                     18
                      A                      A                      A
 Frequencies --    459.0699               469.1756               503.1340
 Red. masses --      2.7636                 3.0870                 2.3213
 Frc consts  --      0.3432                 0.4004                 0.3462
 IR Inten    --     31.6757                24.2526                15.2058

                     19                     20                     21
                      A                      A                      A
 Frequencies --    531.2573               547.9518               562.9448
 Red. masses --      3.1014                 2.1026                 1.4822
 Frc consts  --      0.5157                 0.3720                 0.2767
 IR Inten    --    137.3411                 9.4175               231.4828

                     22                     23                     24
                      A                      A                      A
 Frequencies --    611.0449               633.5350               686.9073
 Red. masses --      4.7308                 6.3632                 5.5117
 Frc consts  --      1.0407                 1.5048                 1.5323
 IR Inten    --     14.8329                 0.2097                 1.4551

                     25                     26                     27
                      A                      A                      A
 Frequencies --    711.2846               728.7261               732.3222
 Red. masses --      2.2577                 4.3650                 3.8424
 Frc consts  --      0.6730                 1.3657                 1.2141
 IR Inten    --     23.6345                43.6077                44.9322

                     28                     29                     30
                      A                      A                      A
 Frequencies --    768.4184               786.9514               814.4108
 Red. masses --      1.9768                 2.1386                 2.5445
 Frc consts  --      0.6877                 0.7803                 0.9943
 IR Inten    --     22.4120                 8.9248                11.0001

                     31                     32                     33
                      A                      A                      A
 Frequencies --    862.8081               922.5333               934.2238
 Red. masses --      1.2543                 1.4683                 2.6783
 Frc consts  --      0.5502                 0.7362                 1.3772
 IR Inten    --      0.0566                 3.1365                56.0953

                     34                     35                     36
                      A                      A                      A
 Frequencies --    958.0767               978.4485               987.1971
 Red. masses --      2.1443                 1.3952                 2.8553
 Frc consts  --      1.1597                 0.7870                 1.6395
 IR Inten    --      5.8890                 0.4020                 0.4936

                     37                     38                     39
                      A                      A                      A
 Frequencies --   1002.9269              1018.4398              1026.2027
 Red. masses --      1.2921                 5.8015                 2.5197
 Frc consts  --      0.7658                 3.5454                 1.5634
 IR Inten    --      0.2416                 2.6828                27.5317

                     40                     41                     42
                      A                      A                      A
 Frequencies --   1055.6778              1071.0031              1111.1844
 Red. masses --      2.8041                 2.7983                 1.7549
 Frc consts  --      1.8412                 1.8912                 1.2767
 IR Inten    --     12.0862                 6.2138                 0.8422

                     43                     44                     45
                      A                      A                      A
 Frequencies --   1115.2401              1120.0490              1140.8183
 Red. masses --      1.7972                 2.2270                 1.9101
 Frc consts  --      1.3170                 1.6460                 1.4647
 IR Inten    --     27.8643                30.1749                34.9970

                     46                     47                     48
                      A                      A                      A
 Frequencies --   1167.3662              1189.6997              1218.8617
 Red. masses --      2.1573                 1.0848                 1.1373
 Frc consts  --      1.7321                 0.9046                 0.9955
 IR Inten    --     33.4177                 0.0740                 0.9385

                     49                     50                     51
                      A                      A                      A
 Frequencies --   1247.4494              1290.5388              1303.7461
 Red. masses --      3.0861                 1.2428                 1.9000
 Frc consts  --      2.8295                 1.2195                 1.9027
 IR Inten    --     31.7528                23.4488                 5.8689

                     52                     53                     54
                      A                      A                      A
 Frequencies --   1325.1786              1346.3776              1368.0067
 Red. masses --      1.6959                 2.6652                 1.8682
 Frc consts  --      1.7547                 2.8465                 2.0599
 IR Inten    --     34.3709                23.1995                 5.2798

                     55                     56                     57
                      A                      A                      A
 Frequencies --   1375.4685              1401.3518              1409.7740
 Red. masses --      1.3758                 1.6629                 2.0773
 Frc consts  --      1.5336                 1.9240                 2.4325
 IR Inten    --      6.1322                80.1187               207.9359

                     58                     59                     60
                      A                      A                      A
 Frequencies --   1430.4115              1492.2722              1506.9985
 Red. masses --      1.2343                 2.1933                 1.0810
 Frc consts  --      1.4879                 2.8777                 1.4465
 IR Inten    --      7.5782                 7.4682                16.3616

                     61                     62                     63
                      A                      A                      A
 Frequencies --   1509.8348              1514.7779              1519.9099
 Red. masses --      1.7234                 2.2484                 1.1098
 Frc consts  --      2.3147                 3.0397                 1.5105
 IR Inten    --     77.3156               267.0249                 8.6797

                     64                     65                     66
                      A                      A                      A
 Frequencies --   1532.4126              1549.0655              1560.2620
 Red. masses --      1.1675                 1.9676                 1.1091
 Frc consts  --      1.6153                 2.7818                 1.5908
 IR Inten    --     35.2476                12.7731                 7.9842

                     67                     68                     69
                      A                      A                      A
 Frequencies --   1642.4159              1664.6209              1726.5998
 Red. masses --      5.4567                 5.6173                 7.6335
 Frc consts  --      8.6725                 9.1708                13.4077
 IR Inten    --      2.7753                 0.4778               674.8812

                     70                     71                     72
                      A                      A                      A
 Frequencies --   1753.8516              3021.5408              3072.9135
 Red. masses --      9.1160                 1.0732                 1.0614
 Frc consts  --     16.5212                 5.7727                 5.9053
 IR Inten    --    675.0516               103.2045                37.0738

                     73                     74                     75
                      A                      A                      A
 Frequencies --   3076.4008              3111.6028              3143.1613
 Red. masses --      1.0381                 1.1001                 1.1013
 Frc consts  --      5.7886                 6.2756                 6.4104
 IR Inten    --     32.8516                23.4190                47.7483

                     76                     77                     78
                      A                      A                      A
 Frequencies --   3154.5003              3155.7362              3196.0262
 Red. masses --      1.0921                 1.1031                 1.0859
 Frc consts  --      6.4030                 6.4726                 6.5354
 IR Inten    --     37.5864                50.2453                 7.5639

                     79                     80                     81
                      A                      A                      A
 Frequencies --   3205.6935              3211.6557              3224.8793
 Red. masses --      1.0874                 1.0931                 1.0948
 Frc consts  --      6.5841                 6.6432                 6.7081
 IR Inten    --      1.5441                51.6295                48.6347

                     82                     83                     84
                      A                      A                      A
 Frequencies --   3235.1211              3585.7492              3587.2057
 Red. masses --      1.0933                 1.0775                 1.0788
 Frc consts  --      6.7415                 8.1623                 8.1793
 IR Inten    --     21.7237               132.5490               133.3342

 - Thermochemistry -
 -------------------
 Temperature   298.150 Kelvin.  Pressure   1.00000 Atm.
 Atom     1 has atomic number  6 and mass  12.00000

 Molecular mass:   218.10553 amu.
 Principal axes and moments of inertia in atomic units:
                           1         2         3
     Eigenvalues --  2026.054474226.637344433.58209
           X            0.99999  -0.00147   0.00363
           Y            0.00252   0.95177  -0.30681
           Z           -0.00300   0.30681   0.95176
 This molecule is an asymmetric top.
 Rotational symmetry number  1.
 Warning -- assumption of classical behavior for rotation
           may cause significant error
 Rotational temperatures (Kelvin)      0.04275     0.02049     0.01954
 Rotational constants (GHZ):           0.89077     0.42699     0.40706
 Zero-point vibrational energy     651961.0 (Joules/Mol)
                                  155.82243 (Kcal/Mol)
 Warning -- explicit consideration of  22 degrees of freedom as
           vibrations may cause significant error
 Vibrational temperatures:     49.16    68.09   127.89   168.25   193.64
          (Kelvin)            201.86   243.17   256.22   311.72   381.34
                              407.04   448.03   460.03   567.60   602.04
                              660.50   675.04   723.90   764.36   788.38
                              809.95   879.16   911.52   988.31  1023.38
                             1048.47  1053.65  1105.58  1132.25  1171.76
                             1241.39  1327.32  1344.14  1378.46  1407.77
                             1420.36  1442.99  1465.31  1476.48  1518.88
                             1540.93  1598.75  1604.58  1611.50  1641.38
                             1679.58  1711.71  1753.67  1794.80  1856.80
                             1875.80  1906.64  1937.14  1968.26  1978.99
                             2016.23  2028.35  2058.04  2147.05  2168.23
                             2172.32  2179.43  2186.81  2204.80  2228.76
                             2244.87  2363.07  2395.02  2484.19  2523.40
                             4347.32  4421.24  4426.25  4476.90  4522.31
                             4538.62  4540.40  4598.37  4612.28  4620.86
                             4639.88  4654.62  5159.09  5161.19

 Zero-point correction=                           0.248319 (Hartree/Particle)
 Thermal correction to Energy=                    0.262703
 Thermal correction to Enthalpy=                  0.263647
 Thermal correction to Gibbs Free Energy=         0.206726
 Sum of electronic and zero-point Energies=           -725.452745
 Sum of electronic and thermal Energies=              -725.438361
 Sum of electronic and thermal Enthalpies=            -725.437417
 Sum of electronic and thermal Free Energies=         -725.494337

                     E (Thermal)             CV                S
                      KCal/Mol        Cal/Mol-Kelvin    Cal/Mol-Kelvin
 Total                  164.848             55.435            119.800
 Electronic               0.000              0.000              0.000
 Translational            0.889              2.981             42.042
 Rotational               0.889              2.981             32.007
 Vibrational            163.071             49.474             45.750
 Vibration     1          0.594              1.983              5.571
 Vibration     2          0.595              1.979              4.926
 Vibration     3          0.602              1.957              3.684
 Vibration     4          0.608              1.935              3.150
 Vibration     5          0.613              1.919              2.879
 Vibration     6          0.615              1.913              2.800
 Vibration     7          0.625              1.881              2.446
 Vibration     8          0.629              1.869              2.348
 Vibration     9          0.645              1.816              1.987
 Vibration    10          0.671              1.737              1.628
 Vibration    11          0.682              1.705              1.516
 Vibration    12          0.700              1.652              1.355
 Vibration    13          0.706              1.636              1.311
 Vibration    14          0.761              1.482              0.983
 Vibration    15          0.781              1.430              0.897
 Vibration    16          0.817              1.341              0.769
 Vibration    17          0.826              1.318              0.740
 Vibration    18          0.858              1.243              0.650
 Vibration    19          0.886              1.181              0.584
 Vibration    20          0.903              1.144              0.548
 Vibration    21          0.919              1.111              0.518
 Vibration    22          0.970              1.008              0.431

                           ! Non-Optimized Parameters !
 Normal termination of Gaussian 16 at Tue Mar  1 18:34:47 2022.

 ------------------------------------------
 #p b3lyp/6-31G(d) geom=allcheck guess=read
 ------------------------------------------

 Structure from the checkpoint file:  "203.n.pdb.xyz.mst.wat.chk"
 -------------
 203.n.pdb.xyz
 -------------
 Charge =  0 Multiplicity = 1

 SCF Done:  E(RB3LYP) =  -725.670884660     A.U. after   12 cycles
 Normal termination of Gaussian 16 at Tue Mar  1 18:37:05 2022.
 Gaussian 16:  ES64L-G16RevA.03 25-Dec-2016

 ----------------------------------------------------------------------
 #p b3lyp/6-31G(d) scrf=(iefpcm,read,solvent=water) geom=allcheck guess
 =read
 ----------------------------------------------------------------------

 Structure from the checkpoint file:  "203.n.pdb.xyz.mst.wat.chk"
 -------------
 203.n.pdb.xyz
 -------------
 Charge =  0 Multiplicity = 1

                         Standard orientation:
 ---------------------------------------------------------------------
 Center     Atomic      Atomic             Coordinates (Angstroms)
 Number     Number       Type             X           Y           Z
 ---------------------------------------------------------------------
      1          6           0       -0.534853    2.714716   -0.747809
      2          6           0       -0.881945    1.296435   -1.203352
      3          6           0       -0.482510    0.148502   -0.214336
      4          6           0       -1.178152    0.461638    1.129867
      5          8           0       -0.622720    1.106772    2.020620
      6          7           0       -2.452661    0.022208    1.246539
      7          6           0       -3.189950   -0.639804    0.189804
      8          7           0       -2.293595   -1.479828   -0.577805
      9          6           0       -1.014516   -1.150938   -0.872232
     10          8           0       -0.318699   -1.820790   -1.635668
     11          6           0        1.026857   -0.003697   -0.013917
     12          6           0        1.957098    0.553167   -0.897181
     13          6           0        3.328182    0.344770   -0.725325
     14          6           0        3.793393   -0.432812    0.333004
     15          6           0        2.874932   -1.003101    1.216812
     16          6           0        1.509491   -0.790321    1.043408
     17          1           0        0.539998    2.837491   -0.595542
     18          1           0       -0.853447    3.431602   -1.509991
     19          1           0       -1.036780    2.968409    0.188862
     20          1           0       -1.961527    1.232402   -1.377387
     21          1           0       -0.412616    1.079273   -2.166877
     22          1           0       -2.965654    0.313268    2.071927
     23          1           0       -3.688304    0.095039   -0.458144
     24          1           0       -3.957960   -1.267955    0.639965
     25          1           0       -2.695861   -2.261858   -1.083636
     26          1           0        1.621477    1.156972   -1.731576
     27          1           0        4.027965    0.791714   -1.423838
     28          1           0        4.857212   -0.595243    0.468594
     29          1           0        3.221880   -1.615644    2.043522
     30          1           0        0.810602   -1.241317    1.740903
 ---------------------------------------------------------------------

 SCF Done:  E(RB3LYP) =  -725.699749961     A.U. after   12 cycles

 The electronic state is 1-A.
 Alpha  occ. eigenvalues --  -19.12040 -19.12028 -14.36670 -14.36654 -10.29704
 Alpha  occ. eigenvalues --  -10.29692 -10.26875 -10.22296 -10.20164 -10.19943
 Alpha  occ. eigenvalues --  -10.18989 -10.18971 -10.18912 -10.18893 -10.18879
 Alpha  occ. eigenvalues --  -10.17495  -1.04594  -1.03448  -0.96281  -0.89600
 Alpha  occ. eigenvalues --   -0.86058  -0.81583  -0.75116  -0.74310  -0.72971
 Alpha  occ. eigenvalues --   -0.69490  -0.62608  -0.61290  -0.60861  -0.59876
 Alpha  occ. eigenvalues --   -0.55843  -0.53094  -0.51454  -0.50150  -0.47937
 Alpha  occ. eigenvalues --   -0.47347  -0.46128  -0.45422  -0.44673  -0.42756
 Alpha  occ. eigenvalues --   -0.42618  -0.41880  -0.41311  -0.40467  -0.39666
 Alpha  occ. eigenvalues --   -0.38096  -0.36704  -0.36020  -0.35385  -0.35249
 Alpha  occ. eigenvalues --   -0.33918  -0.32701  -0.27315  -0.27030  -0.25670
 Alpha  occ. eigenvalues --   -0.25121  -0.24937  -0.24480
 Alpha virt. eigenvalues --   -0.00605  -0.00322   0.01150   0.02419   0.08243
 Alpha virt. eigenvalues --    0.09371   0.11671   0.12196   0.12848   0.14487
 Alpha virt. eigenvalues --    0.14892   0.15757   0.16511   0.17024   0.17663

 Mulliken charges:
               1
     1  C   -0.455921
     2  C   -0.287815
     3  C   -0.220458
     4  C    0.631353
     5  O   -0.589270
     6  N   -0.615694
     7  C    0.037254
     8  N   -0.608952
     9  C    0.625979
    10  O   -0.582533
    11  C    0.197468
    12  C   -0.209927
    13  C   -0.159156
    14  C   -0.146476
    15  C   -0.161202
    16  C   -0.177253
    17  H    0.158148
    18  H    0.155946
    19  H    0.160517
    20  H    0.165839
    21  H    0.171210
    22  H    0.390313
    23  H    0.186834
    24  H    0.201139
    25  H    0.390847
    26  H    0.150092
    27  H    0.148972
    28  H    0.148363
    29  H    0.148993
    30  H    0.145391
 Sum of Mulliken charges =  -0.00000

 Dipole moment (field-independent basis, Debye):
    X=             -7.5862    Y=             -0.2845    Z=             -0.4328  Tot=              7.6038
 Quadrupole moment (field-independent basis, Debye-Ang):
   XX=            -59.9961   YY=            -95.9174   ZZ=            -98.0662
   XY=              6.3604   XZ=             -1.8300   YZ=            -12.3771

 Normal termination of Gaussian 16 at Tue Mar  1 18:39:44 2022.
