 Gaussian 16, Revision A.03,

 ----------------------------------------------------------------------
 #p b3lyp/6-31G(d) opt=(MaxStep=10,MaxCycles=1000) freq scf=(MaxCycle=2
 000,NoVarAcc,NoIncFock) scrf=(iefpcm,read,solvent=water)
 ----------------------------------------------------------------------

 -------------
 204.n.pdb.xyz
 -------------
 Symbolic Z-matrix:
 Charge =  0 Multiplicity = 1

 SCF Done:  E(RB3LYP) =  -232.475156213     A.U. after   11 cycles
 SCF Done:  E(RB3LYP) =  -232.476168909     A.U. after    9 cycles
 SCF Done:  E(RB3LYP) =  -232.476212954     A.U. after    9 cycles
 SCF Done:  E(RB3LYP) =  -232.476140634     A.U. after    9 cycles
 SCF Done:  E(RB3LYP) =  -232.476215521     A.U. after    9 cycles
 SCF Done:  E(RB3LYP) =  -232.476218527     A.U. after    8 cycles
 Optimization completed.
    -- Stationary point found.
 Normal termination of Gaussian 16 at Tue Mar  1 20:01:59 2022.

 --------------------------------------------------------------------
 #P Geom=AllCheck Guess=TCheck SCRF=Check GenChk RB3LYP/6-31G(d) Freq
 --------------------------------------------------------------------

 Structure from the checkpoint file:  "204.n.pdb.xyz.mst.wat.chk"
 -------------
 204.n.pdb.xyz
 -------------
 Charge =  0 Multiplicity = 1

 SCF Done:  E(RB3LYP) =  -232.476218527     A.U. after    1 cycles

  Exact polarizability:  58.686  -0.964  62.061  -0.002   0.003  46.430
 Approx polarizability:  56.113  -1.094  73.471  -0.002   0.003  50.653

                      1                      2                      3
                      A                      A                      A
 Frequencies --     46.1790               128.9020               229.4416
 Red. masses --      1.6613                 1.1912                 1.0876
 Frc consts  --      0.0021                 0.0117                 0.0337
 IR Inten    --      0.1634                 0.0648                 0.4923

                      4                      5                      6
                      A                      A                      A
 Frequencies --    252.0499               404.8760               479.7614
 Red. masses --      3.1502                 2.8281                 1.8701
 Frc consts  --      0.1179                 0.2731                 0.2536
 IR Inten    --      8.0536                 6.1090                 0.0266

                      7                      8                      9
                      A                      A                      A
 Frequencies --    586.8470               753.1974               770.9903
 Red. masses --      3.8261                 1.2803                 2.8048
 Frc consts  --      0.7764                 0.4279                 0.9823
 IR Inten    --     15.4297                 7.6144                 4.2509

                     10                     11                     12
                      A                      A                      A
 Frequencies --    954.6263               959.4066              1008.5175
 Red. masses --      1.7359                 1.2219                 1.8887
 Frc consts  --      0.9320                 0.6627                 1.1318
 IR Inten    --     12.2673                 8.5870                 6.6701

                     13                     14                     15
                      A                      A                      A
 Frequencies --   1116.1815              1141.4719              1200.1375
 Red. masses --      2.0307                 1.9152                 2.2208
 Frc consts  --      1.4906                 1.4703                 1.8846
 IR Inten    --      4.2098                 1.8529               100.7547

                     16                     17                     18
                      A                      A                      A
 Frequencies --   1294.1023              1388.5533              1408.6717
 Red. masses --      1.1883                 1.5582                 1.4906
 Frc consts  --      1.1725                 1.7702                 1.7427
 IR Inten    --      0.0099                22.2105                64.7981

                     19                     20                     21
                      A                      A                      A
 Frequencies --   1431.6125              1460.6793              1478.9136
 Red. masses --      1.2449                 1.0956                 1.0598
 Frc consts  --      1.5032                 1.3773                 1.3658
 IR Inten    --      5.8804                16.8721                28.8453

                     22                     23                     24
                      A                      A                      A
 Frequencies --   1492.7231              1513.9986              1518.2910
 Red. masses --      1.0468                 1.0403                 1.0523
 Frc consts  --      1.3743                 1.4050                 1.4293
 IR Inten    --     12.6686                 7.8860                13.1063

                     25                     26                     27
                      A                      A                      A
 Frequencies --   1782.0338              3046.6875              3069.2739
 Red. masses --      9.8830                 1.0611                 1.0375
 Frc consts  --     18.4915                 5.8029                 5.7584
 IR Inten    --    276.1940                22.7763                 8.8175

                     28                     29                     30
                      A                      A                      A
 Frequencies --   3072.7149              3074.7882              3130.3126
 Red. masses --      1.0356                 1.0996                 1.0999
 Frc consts  --      5.7607                 6.1253                 6.3499
 IR Inten    --     30.2697                12.1703                10.2848

                     31                     32                     33
                      A                      A                      A
 Frequencies --   3140.7485              3142.9309              3173.4239
 Red. masses --      1.1030                 1.1032                 1.1039
 Frc consts  --      6.4107                 6.4207                 6.5497
 IR Inten    --     43.7390                53.0246                23.6938

 - Thermochemistry -
 -------------------
 Temperature   298.150 Kelvin.  Pressure   1.00000 Atm.
 Atom     1 has atomic number  6 and mass  12.00000

 Molecular mass:    72.05751 amu.
 Principal axes and moments of inertia in atomic units:
                           1         2         3
     Eigenvalues --   189.48917 504.40743 660.62425
           X            0.99956  -0.02970   0.00000
           Y            0.02970   0.99956   0.00000
           Z           -0.00000  -0.00000   1.00000
 This molecule is an asymmetric top.
 Rotational symmetry number  1.
 Rotational temperatures (Kelvin)      0.45709     0.17171     0.13111
 Rotational constants (GHZ):           9.52424     3.57794     2.73187
 Zero-point vibrational energy     296991.2 (Joules/Mol)
                                   70.98259 (Kcal/Mol)
 Warning -- explicit consideration of   7 degrees of freedom as
           vibrations may cause significant error
 Vibrational temperatures:     66.44   185.46   330.12   362.64   582.53
          (Kelvin)            690.27   844.34  1083.68  1109.28  1373.49
                             1380.37  1451.03  1605.94  1642.32  1726.73
                             1861.92  1997.82  2026.76  2059.77  2101.59
                             2127.83  2147.70  2178.31  2184.48  2563.95
                             4383.50  4416.00  4420.95  4423.93  4503.82
                             4518.84  4521.98  4565.85

 Zero-point correction=                           0.113118 (Hartree/Particle)
 Thermal correction to Energy=                    0.119609
 Thermal correction to Enthalpy=                  0.120553
 Thermal correction to Gibbs Free Energy=         0.082949
 Sum of electronic and zero-point Energies=           -232.363101
 Sum of electronic and thermal Energies=              -232.356609
 Sum of electronic and thermal Enthalpies=            -232.355665
 Sum of electronic and thermal Free Energies=         -232.393270

                     E (Thermal)             CV                S
                      KCal/Mol        Cal/Mol-Kelvin    Cal/Mol-Kelvin
 Total                   75.056             21.476             79.146
 Electronic               0.000              0.000              0.000
 Translational            0.889              2.981             38.741
 Rotational               0.889              2.981             25.649
 Vibrational             73.279             15.515             14.756
 Vibration     1          0.595              1.979              4.975
 Vibration     2          0.611              1.924              2.962
 Vibration     3          0.652              1.796              1.883
 Vibration     4          0.664              1.759              1.716
 Vibration     5          0.770              1.460              0.945
 Vibration     6          0.836              1.295              0.711
 Vibration     7          0.944              1.060              0.473

 Optimization completed.
    -- Stationary point found.
 Normal termination of Gaussian 16 at Tue Mar  1 20:03:40 2022.

 ------------------------------------------
 #p b3lyp/6-31G(d) geom=allcheck guess=read
 ------------------------------------------

 Structure from the checkpoint file:  "204.n.pdb.xyz.mst.wat.chk"
 -------------
 204.n.pdb.xyz
 -------------
 Charge =  0 Multiplicity = 1

 SCF Done:  E(RB3LYP) =  -232.470399900     A.U. after   10 cycles

 1\1\GINC-PIRINEUS18\SP\RB3LYP\6-31G(d)\C4H8O1\UBATOR01\01-Mar-2022\0\\
 #p b3lyp/6-31G(d) geom=allcheck guess=read\\204.n.pdb.xyz\\0,1\C,0,-1.
 9111918786,-0.2460819709,0.0788816127\C,0,-0.4525616931,-0.4574069689,
 -0.3150985835\C,0,0.5154419516,0.5066718272,0.3469188867\C,0,1.9792942
 392,0.349246735,-0.0029624031\O,0,0.1348895376,1.3695569284,1.12542861
 89\H,0,-2.5528703439,-0.9696929741,-0.4310013145\H,0,-2.0499907499,-0.
 3676462813,1.1565515825\H,0,-2.2501260033,0.7579501355,-0.1893754622\H
 ,0,-0.1218425241,-1.4762187032,-0.0742020895\H,0,-0.3195921408,-0.3662

 Normal termination of Gaussian 16 at Tue Mar  1 20:03:52 2022.
 Gaussian 16:  ES64L-G16RevA.03 25-Dec-2016

 ----------------------------------------------------------------------
 #p b3lyp/6-31G(d) scrf=(iefpcm,read,solvent=water) geom=allcheck guess
 =read
 ----------------------------------------------------------------------

 Structure from the checkpoint file:  "204.n.pdb.xyz.mst.wat.chk"
 -------------
 204.n.pdb.xyz
 -------------
 Charge =  0 Multiplicity = 1

                         Standard orientation:
 ---------------------------------------------------------------------
 Center     Atomic      Atomic             Coordinates (Angstroms)
 Number     Number       Type             X           Y           Z
 ---------------------------------------------------------------------
      1          6           0       -2.019584   -0.020131   -0.000050
      2          6           0       -0.681563   -0.753056    0.000087
      3          6           0        0.528607    0.163587   -0.000005
      4          6           0        1.887355   -0.502647   -0.000026
      5          8           0        0.415212    1.381212    0.000015
      6          1           0       -2.846477   -0.735389   -0.000240
      7          1           0       -2.120248    0.616739    0.882944
      8          1           0       -2.119852    0.616479   -0.882995
      9          1           0       -0.594443   -1.416291    0.870670
     10          1           0       -0.594417   -1.416204   -0.870426
     11          1           0        2.676110    0.250610    0.000108
     12          1           0        1.994435   -1.146036   -0.879726
     13          1           0        1.994300   -1.146122    0.879509
 ---------------------------------------------------------------------

 SCF Done:  E(RB3LYP) =  -232.475903988     A.U. after   10 cycles

 The electronic state is 1-A.
 Alpha  occ. eigenvalues --  -19.14090 -10.27772 -10.18870 -10.18245 -10.17401
 Alpha  occ. eigenvalues --   -1.03839  -0.78061  -0.73216  -0.63766  -0.52179
 Alpha  occ. eigenvalues --   -0.46625  -0.46544  -0.43899  -0.41626  -0.40189
 Alpha  occ. eigenvalues --   -0.36029  -0.35948  -0.35844  -0.34168  -0.24951
 Alpha virt. eigenvalues --   -0.01214   0.09561   0.12680   0.15461   0.15828
 Alpha virt. eigenvalues --    0.16659   0.18367   0.18469   0.19955   0.22719
 Alpha virt. eigenvalues --    0.24009   0.30361   0.33286   0.49338   0.53896

 Mulliken charges:
               1
     1  C   -0.444366
     2  C   -0.347011
     3  C    0.471317
     4  C   -0.530875
     5  O   -0.504364
     6  H    0.150413
     7  H    0.153913
     8  H    0.153979
     9  H    0.176873
    10  H    0.176852
    11  H    0.170962
    12  H    0.186153
    13  H    0.186152
 Sum of Mulliken charges =  -0.00000

 Dipole moment (field-independent basis, Debye):
    X=              0.3005    Y=             -3.6421    Z=             -0.0002  Tot=              3.6545
 Quadrupole moment (field-independent basis, Debye-Ang):
   XX=            -29.4918   YY=            -34.8978   ZZ=            -30.0147
   XY=             -1.3520   XZ=              0.0001   YZ=             -0.0000

 1\1\GINC-PIRINEUS18\SP\RB3LYP\6-31G(d)\C4H8O1\UBATOR01\01-Mar-2022\0\\
 #p b3lyp/6-31G(d) scrf=(iefpcm,read,solvent=water) geom=allcheck guess
 =read\\204.n.pdb.xyz\\0,1\C,0,-1.9111918786,-0.2460819709,0.0788816127
 \C,0,-0.4525616931,-0.4574069689,-0.3150985835\C,0,0.5154419516,0.5066
 718272,0.3469188867\C,0,1.9792942392,0.349246735,-0.0029624031\O,0,0.1
 348895376,1.3695569284,1.1254286189\H,0,-2.5528703439,-0.9696929741,-0
 .4310013145\H,0,-2.0499907499,-0.3676462813,1.1565515825\H,0,-2.250126
 0033,0.7579501355,-0.1893754622\H,0,-0.1218425241,-1.4762187032,-0.074

 Normal termination of Gaussian 16 at Tue Mar  1 20:04:07 2022.
