 Gaussian 16, Revision A.03,

 ----------------------------------------------------------------------
 #p b3lyp/6-31G(d) opt=(MaxStep=10,MaxCycles=1000) freq scf=(MaxCycle=2
 000,NoVarAcc,NoIncFock) scrf=(iefpcm,read,solvent=water)
 ----------------------------------------------------------------------

 -------------
 206.n.pdb.xyz
 -------------
 Symbolic Z-matrix:
 Charge =  0 Multiplicity = 1

 SCF Done:  E(RB3LYP) =  -1169.06128664     A.U. after   13 cycles
 SCF Done:  E(RB3LYP) =  -1169.06657926     A.U. after   11 cycles
 SCF Done:  E(RB3LYP) =  -1169.06801120     A.U. after   11 cycles
 SCF Done:  E(RB3LYP) =  -1169.06959973     A.U. after   10 cycles
 SCF Done:  E(RB3LYP) =  -1169.06960206     A.U. after   10 cycles
 SCF Done:  E(RB3LYP) =  -1169.06996573     A.U. after   10 cycles
 SCF Done:  E(RB3LYP) =  -1169.07008255     A.U. after   10 cycles
 SCF Done:  E(RB3LYP) =  -1169.07012770     A.U. after   10 cycles
 SCF Done:  E(RB3LYP) =  -1169.07017467     A.U. after   10 cycles
 SCF Done:  E(RB3LYP) =  -1169.07047157     A.U. after   11 cycles
 SCF Done:  E(RB3LYP) =  -1169.07156129     A.U. after   12 cycles
 SCF Done:  E(RB3LYP) =  -1169.07244762     A.U. after    9 cycles
 SCF Done:  E(RB3LYP) =  -1169.07248716     A.U. after   10 cycles
 SCF Done:  E(RB3LYP) =  -1169.07254862     A.U. after   10 cycles
 SCF Done:  E(RB3LYP) =  -1169.07257661     A.U. after    9 cycles
 SCF Done:  E(RB3LYP) =  -1169.07259093     A.U. after    9 cycles
 SCF Done:  E(RB3LYP) =  -1169.07259139     A.U. after    8 cycles
 Optimization completed.
    -- Stationary point found.
 Normal termination of Gaussian 16 at Wed Mar  2 01:50:57 2022.

 --------------------------------------------------------------------
 #P Geom=AllCheck Guess=TCheck SCRF=Check GenChk RB3LYP/6-31G(d) Freq
 --------------------------------------------------------------------

 Structure from the checkpoint file:  "206.n.pdb.xyz.mst.wat.chk"
 -------------
 206.n.pdb.xyz
 -------------
 Charge =  0 Multiplicity = 1

 SCF Done:  E(RB3LYP) =  -1169.07259139     A.U. after    1 cycles

  Exact polarizability: 352.468  15.516 259.134  -2.477   9.667 139.662
 Approx polarizability: 374.912   8.177 300.441   1.496  12.852 169.327

                      1                      2                      3
                      A                      A                      A
 Frequencies --     24.2645                34.9213                50.6657
 Red. masses --      5.4881                 6.2740                 6.6238
 Frc consts  --      0.0019                 0.0045                 0.0100
 IR Inten    --      2.0851                 2.4700                 0.1758

                      4                      5                      6
                      A                      A                      A
 Frequencies --     64.6771                74.3989                87.3126
 Red. masses --      3.2901                 3.5138                 4.9670
 Frc consts  --      0.0081                 0.0115                 0.0223
 IR Inten    --      8.1455                 2.6786                 0.5180

                      7                      8                      9
                      A                      A                      A
 Frequencies --     92.2449                94.7871               113.3503
 Red. masses --      5.1038                 1.6077                 5.2748
 Frc consts  --      0.0256                 0.0085                 0.0399
 IR Inten    --      1.7261                 3.5668                 0.3068

                     10                     11                     12
                      A                      A                      A
 Frequencies --    158.1800               177.3650               193.5431
 Red. masses --      5.1312                 6.7050                 6.1063
 Frc consts  --      0.0756                 0.1243                 0.1348
 IR Inten    --      7.1611                 1.6639                 2.0749

                     13                     14                     15
                      A                      A                      A
 Frequencies --    224.2385               238.1396               246.7215
 Red. masses --      4.7716                 1.3785                 4.7675
 Frc consts  --      0.1414                 0.0461                 0.1710
 IR Inten    --      5.8573                 1.5715                 2.0304

                     16                     17                     18
                      A                      A                      A
 Frequencies --    259.5184               288.1746               309.4264
 Red. masses --      4.1325                 3.5500                 6.0299
 Frc consts  --      0.1640                 0.1737                 0.3402
 IR Inten    --      3.9063                 5.5302                 1.6068

                     19                     20                     21
                      A                      A                      A
 Frequencies --    348.9287               374.2773               393.7903
 Red. masses --      4.1008                 3.9303                 5.0615
 Frc consts  --      0.2942                 0.3244                 0.4624
 IR Inten    --      0.4688                10.8502                 1.1363

                     22                     23                     24
                      A                      A                      A
 Frequencies --    408.9104               415.4582               420.1609
 Red. masses --      5.1529                 6.0136                 3.6738
 Frc consts  --      0.5076                 0.6116                 0.3821
 IR Inten    --      3.2525                27.6604                15.7803

                     25                     26                     27
                      A                      A                      A
 Frequencies --    444.8004               474.6542               488.0311
 Red. masses --      5.9906                 4.3127                 5.6992
 Frc consts  --      0.6983                 0.5725                 0.7998
 IR Inten    --     13.3008                28.7408                 8.7548

                     28                     29                     30
                      A                      A                      A
 Frequencies --    529.8518               532.6119               578.2137
 Red. masses --      5.8896                 4.0152                 4.9994
 Frc consts  --      0.9742                 0.6711                 0.9848
 IR Inten    --     11.3393                 7.9780                 7.8306

                     31                     32                     33
                      A                      A                      A
 Frequencies --    613.6616               640.1897               664.5772
 Red. masses --      4.0834                 6.0915                 7.8922
 Frc consts  --      0.9060                 1.4709                 2.0537
 IR Inten    --      8.3035                39.2430                10.8709

                     34                     35                     36
                      A                      A                      A
 Frequencies --    676.0106               680.3840               700.8734
 Red. masses --      4.3342                 7.4251                 5.3268
 Frc consts  --      1.1670                 2.0252                 1.5417
 IR Inten    --     25.4311                17.5154                11.0434

                     37                     38                     39
                      A                      A                      A
 Frequencies --    744.1580               760.9879               779.2260
 Red. masses --      5.7690                 8.3924                 5.5304
 Frc consts  --      1.8823                 2.8635                 1.9785
 IR Inten    --     50.8050                22.3164                11.4639

                     40                     41                     42
                      A                      A                      A
 Frequencies --    799.2237               838.0957               842.0242
 Red. masses --      6.3756                 1.6457                 1.5662
 Frc consts  --      2.3994                 0.6811                 0.6543
 IR Inten    --      6.7203                19.9395                37.7430

                     43                     44                     45
                      A                      A                      A
 Frequencies --    849.9017               876.8199               883.7128
 Red. masses --      4.8262                 4.4855                 2.3007
 Frc consts  --      2.0540                 2.0318                 1.0586
 IR Inten    --     31.5396                17.1116                55.4884

                     46                     47                     48
                      A                      A                      A
 Frequencies --    900.7124               930.0544               945.8219
 Red. masses --      1.5717                 2.9853                 2.9693
 Frc consts  --      0.7513                 1.5215                 1.5650
 IR Inten    --     21.0021               145.4843                71.5670

                     49                     50                     51
                      A                      A                      A
 Frequencies --    963.7751               990.0205               999.9212
 Red. masses --      1.3084                 4.0328                 2.7843
 Frc consts  --      0.7161                 2.3289                 1.6402
 IR Inten    --      1.0523               195.9878                10.8876

                     52                     53                     54
                      A                      A                      A
 Frequencies --   1067.5442              1099.8792              1114.1322
 Red. masses --      4.0877                 1.8460                 2.1662
 Frc consts  --      2.7447                 1.3157                 1.5842
 IR Inten    --    304.2393                 4.3387               321.8566

                     55                     56                     57
                      A                      A                      A
 Frequencies --   1121.4638              1134.5882              1156.0931
 Red. masses --      2.5214                 2.3415                 1.3216
 Frc consts  --      1.8684                 1.7759                 1.0407
 IR Inten    --    371.4193                92.2758                 1.1501

                     58                     59                     60
                      A                      A                      A
 Frequencies --   1165.9891              1182.1171              1200.6598
 Red. masses --      1.5203                 2.2243                 2.5729
 Frc consts  --      1.2178                 1.8313                 2.1853
 IR Inten    --     34.2062                31.9939               188.1816

                     61                     62                     63
                      A                      A                      A
 Frequencies --   1216.7574              1245.9611              1263.8361
 Red. masses --      3.4256                 1.9800                 2.1780
 Frc consts  --      2.9881                 1.8111                 2.0497
 IR Inten    --     38.2626               178.8827               166.4378

                     64                     65                     66
                      A                      A                      A
 Frequencies --   1287.9501              1297.8793              1312.5082
 Red. masses --      2.6446                 2.9990                 1.9361
 Frc consts  --      2.5847                 2.9764                 1.9650
 IR Inten    --    305.6917                59.2968                51.4897

                     67                     68                     69
                      A                      A                      A
 Frequencies --   1337.9426              1360.1500              1378.0977
 Red. masses --      3.7884                 5.1225                 2.1584
 Frc consts  --      3.9955                 5.5835                 2.4151
 IR Inten    --     33.1594                63.9313                11.2910

                     70                     71                     72
                      A                      A                      A
 Frequencies --   1385.2854              1402.1508              1422.0292
 Red. masses --      1.7159                 1.6120                 1.5372
 Frc consts  --      1.9401                 1.8673                 1.8315
 IR Inten    --    210.4493               134.2454                64.0776

                     73                     74                     75
                      A                      A                      A
 Frequencies --   1436.8464              1440.8814              1449.4118
 Red. masses --      2.3298                 2.4521                 1.4919
 Frc consts  --      2.8339                 2.9995                 1.8466
 IR Inten    --     25.6932                38.4461                22.9772

                     76                     77                     78
                      A                      A                      A
 Frequencies --   1457.6249              1480.6793              1505.0918
 Red. masses --      2.2531                 2.0970                 1.0483
 Frc consts  --      2.8205                 2.7087                 1.3991
 IR Inten    --     37.3100               141.6550                11.2666

                     79                     80                     81
                      A                      A                      A
 Frequencies --   1507.9066              1508.4398              1515.1833
 Red. masses --      1.0673                 1.0612                 1.1209
 Frc consts  --      1.4299                 1.4227                 1.5161
 IR Inten    --     16.5824                 9.2612                46.9975

                     82                     83                     84
                      A                      A                      A
 Frequencies --   1535.6089              1539.0607              1548.6363
 Red. masses --      2.4732                 1.6972                 3.6630
 Frc consts  --      3.4361                 2.3686                 5.1759
 IR Inten    --    236.7641               148.7198               177.8857

                     85                     86                     87
                      A                      A                      A
 Frequencies --   1616.5292              1641.2517              1669.1206
 Red. masses --      9.3103                 7.7015                 7.3081
 Frc consts  --     14.3344                12.2230                11.9958
 IR Inten    --    249.6137                37.4948                85.9484

                     88                     89                     90
                      A                      A                      A
 Frequencies --   1699.0721              1761.3232              3073.2338
 Red. masses --      9.4811                12.3421                 1.0373
 Frc consts  --     16.1262                22.5588                 5.7721
 IR Inten    --    612.5412               555.5750                61.4206

                     91                     92                     93
                      A                      A                      A
 Frequencies --   3088.2421              3092.9351              3134.6661
 Red. masses --      1.0707                 1.0357                 1.1048
 Frc consts  --      6.0163                 5.8375                 6.3959
 IR Inten    --     24.9965                 8.3375                28.6736

                     94                     95                     96
                      A                      A                      A
 Frequencies --   3157.7539              3175.3240              3176.7064
 Red. masses --      1.0911                 1.1005                 1.1028
 Frc consts  --      6.4101                 6.5378                 6.5568
 IR Inten    --      6.9198                42.2969                22.7235

                     97                     98                     99
                      A                      A                      A
 Frequencies --   3201.9344              3209.9376              3239.4088
 Red. masses --      1.0946                 1.0999                 1.0896
 Frc consts  --      6.6122                 6.6771                 6.7369
 IR Inten    --      1.8967                 3.2626                 5.5413

                    100                    101                    102
                      A                      A                      A
 Frequencies --   3254.3781              3261.5166              3305.3085
 Red. masses --      1.0956                 1.0914                 1.0975
 Frc consts  --      6.8365                 6.8406                 7.0647
 IR Inten    --      3.7357                 4.5501                 0.0671

 - Thermochemistry -
 -------------------
 Temperature   298.150 Kelvin.  Pressure   1.00000 Atm.
 Atom     1 has atomic number  6 and mass  12.00000

 Molecular mass:   321.09250 amu.
 Principal axes and moments of inertia in atomic units:
                           1         2         3
     Eigenvalues --  2956.54626********************
           X            0.99997   0.00017  -0.00790
           Y           -0.00009   0.99995   0.00980
           Z            0.00790  -0.00980   0.99992
 This molecule is an asymmetric top.
 Rotational symmetry number  1.
 Warning -- assumption of classical behavior for rotation
           may cause significant error
 Rotational temperatures (Kelvin)      0.02930     0.00603     0.00528
 Rotational constants (GHZ):           0.61042     0.12566     0.11010
 Zero-point vibrational energy     712129.8 (Joules/Mol)
                                  170.20310 (Kcal/Mol)
 Warning -- explicit consideration of  31 degrees of freedom as
           vibrations may cause significant error
 Vibrational temperatures:     34.91    50.24    72.90    93.06   107.04
          (Kelvin)            125.62   132.72   136.38   163.09   227.59
                              255.19   278.47   322.63   342.63   354.98
                              373.39   414.62   445.20   502.03   538.50
                              566.58   588.33   597.75   604.52   639.97
                              682.92   702.17   762.34   766.31   831.92
                              882.92   921.09   956.18   972.63   978.92
                             1008.40  1070.68  1094.89  1121.13  1149.90
                             1205.83  1211.48  1222.82  1261.55  1271.47
                             1295.92  1338.14  1360.83  1386.66  1424.42
                             1438.66  1535.96  1582.48  1602.99  1613.54
                             1632.42  1663.36  1677.60  1700.80  1727.48
                             1750.64  1792.66  1818.38  1853.07  1867.36
                             1888.41  1925.00  1956.95  1982.78  1993.12
                             2017.38  2045.98  2067.30  2073.11  2085.38
                             2097.20  2130.37  2165.49  2169.54  2170.31
                             2180.01  2209.40  2214.37  2228.14  2325.82
                             2361.40  2401.49  2444.59  2534.15  4421.70
                             4443.29  4450.04  4510.09  4543.30  4568.58
                             4570.57  4606.87  4618.38  4660.79  4682.32
                             4692.59  4755.60

 Zero-point correction=                           0.271236 (Hartree/Particle)
 Thermal correction to Energy=                    0.291163
 Thermal correction to Enthalpy=                  0.292107
 Thermal correction to Gibbs Free Energy=         0.221025
 Sum of electronic and zero-point Energies=          -1168.801355
 Sum of electronic and thermal Energies=             -1168.781428
 Sum of electronic and thermal Enthalpies=           -1168.780484
 Sum of electronic and thermal Free Energies=        -1168.851566

                     E (Thermal)             CV                S
                      KCal/Mol        Cal/Mol-Kelvin    Cal/Mol-Kelvin
 Total                  182.708             74.663            149.605
 Electronic               0.000              0.000              0.000
 Translational            0.889              2.981             43.195
 Rotational               0.889              2.981             34.897
 Vibrational            180.930             68.701             71.513
 Vibration     1          0.593              1.985              6.250
 Vibration     2          0.594              1.983              5.528
 Vibration     3          0.595              1.977              4.791
 Vibration     4          0.597              1.971              4.309
 Vibration     5          0.599              1.966              4.033
 Vibration     6          0.601              1.958              3.719
 Vibration     7          0.602              1.955              3.612
 Vibration     8          0.603              1.953              3.559
 Vibration     9          0.607              1.938              3.211
 Vibration    10          0.621              1.893              2.571
 Vibration    11          0.628              1.870              2.356
 Vibration    12          0.635              1.849              2.194
 Vibration    13          0.649              1.804              1.925
 Vibration    14          0.656              1.782              1.817
 Vibration    15          0.661              1.768              1.754
 Vibration    16          0.668              1.747              1.665
 Vibration    17          0.685              1.696              1.485
 Vibration    18          0.699              1.656              1.365
 Vibration    19          0.726              1.577              1.171
 Vibration    20          0.745              1.525              1.062
 Vibration    21          0.761              1.483              0.986
 Vibration    22          0.773              1.451              0.930
 Vibration    23          0.779              1.437              0.908
 Vibration    24          0.783              1.426              0.891
 Vibration    25          0.804              1.372              0.812
 Vibration    26          0.831              1.306              0.725
 Vibration    27          0.844              1.277              0.689
 Vibration    28          0.885              1.184              0.588
 Vibration    29          0.888              1.178              0.581
 Vibration    30          0.935              1.078              0.489
 Vibration    31          0.973              1.003              0.427

                           ! Non-Optimized Parameters !
 Normal termination of Gaussian 16 at Wed Mar  2 02:43:17 2022.

 ------------------------------------------
 #p b3lyp/6-31G(d) geom=allcheck guess=read
 ------------------------------------------

 Structure from the checkpoint file:  "206.n.pdb.xyz.mst.wat.chk"
 -------------
 206.n.pdb.xyz
 -------------
 Charge =  0 Multiplicity = 1

 SCF Done:  E(RB3LYP) =  -1169.05723595     A.U. after   12 cycles
 Normal termination of Gaussian 16 at Wed Mar  2 02:47:04 2022.
 Gaussian 16:  ES64L-G16RevA.03 25-Dec-2016

 ----------------------------------------------------------------------
 #p b3lyp/6-31G(d) scrf=(iefpcm,read,solvent=water) geom=allcheck guess
 =read
 ----------------------------------------------------------------------

 Structure from the checkpoint file:  "206.n.pdb.xyz.mst.wat.chk"
 -------------
 206.n.pdb.xyz
 -------------
 Charge =  0 Multiplicity = 1

                         Standard orientation:
 ---------------------------------------------------------------------
 Center     Atomic      Atomic             Coordinates (Angstroms)
 Number     Number       Type             X           Y           Z
 ---------------------------------------------------------------------
      1          6           0        6.158294   -0.695901   -0.976726
      2          6           0        5.194278   -0.079247   -0.000164
      3          9           0        5.544490   -0.440620    1.294227
      4          8           0        3.901311   -0.601919   -0.257380
      5          6           0        2.847214    0.113480    0.227146
      6          8           0        2.976387    1.158667    0.843136
      7          6           0        1.566504   -0.517245   -0.083456
      8          6           0        0.323916   -0.030830    0.278585
      9          6           0       -0.162738    1.179971    0.991127
     10          7           0       -0.908673    2.054284    0.082865
     11          6           0       -0.306479    3.336957   -0.268545
     12          6           0       -2.125963    1.715668   -0.413437
     13          8           0       -2.804013    2.489889   -1.100122
     14          6           0       -2.690598    0.349632   -0.090476
     15          6           0       -1.989735   -0.873023   -0.045434
     16          6           0       -2.674687   -2.076861    0.156225
     17          6           0       -4.054197   -2.092741    0.310892
     18          6           0       -4.735565   -0.883217    0.266009
     19          9           0       -6.074705   -0.880412    0.421762
     20          6           0       -4.083274    0.318633    0.060569
     21          7           0       -0.580358   -0.935578   -0.218320
     22          6           0        0.145038   -1.922558   -0.852230
     23          7           0        1.433664   -1.701932   -0.789008
     24          1           0        6.129789   -1.784862   -0.894202
     25          1           0        5.896742   -0.407183   -1.996090
     26          1           0        7.169422   -0.346256   -0.760560
     27          1           0        5.158897    1.008375   -0.031846
     28          1           0       -0.791733    0.899230    1.841812
     29          1           0        0.693564    1.730575    1.371949
     30          1           0       -0.896211    3.785789   -1.064190
     31          1           0        0.720117    3.179837   -0.609129
     32          1           0       -0.294332    4.007590    0.596238
     33          1           0       -2.116555   -3.003678    0.204535
     34          1           0       -4.591934   -3.017951    0.474545
     35          1           0       -4.642892    1.242232   -0.003296
     36          1           0       -0.336895   -2.751230   -1.348016
 ---------------------------------------------------------------------

 SCF Done:  E(RB3LYP) =  -1169.07107373     A.U. after   11 cycles

 The electronic state is 1-A.
 Alpha  occ. eigenvalues --  -24.71814 -24.68886 -19.20410 -19.15107 -19.12477
 Alpha  occ. eigenvalues --  -14.42361 -14.38170 -14.34182 -10.33507 -10.32096
 Alpha  occ. eigenvalues --  -10.30437 -10.28723 -10.26379 -10.26169 -10.25022
 Alpha  occ. eigenvalues --  -10.24409 -10.23137 -10.22991 -10.21890 -10.21654
 Alpha  occ. eigenvalues --  -10.21450 -10.21252 -10.18560  -1.23012  -1.20470
 Alpha  occ. eigenvalues --   -1.11143  -1.05238  -1.04281  -1.02866  -0.95121
 Alpha  occ. eigenvalues --   -0.92515  -0.87407  -0.80690  -0.78828  -0.78428
 Alpha  occ. eigenvalues --   -0.76295  -0.73286  -0.71473  -0.68568  -0.66059
 Alpha  occ. eigenvalues --   -0.64861  -0.62386  -0.59854  -0.58688  -0.58526
 Alpha  occ. eigenvalues --   -0.56095  -0.54051  -0.53065  -0.51771  -0.50540
 Alpha  occ. eigenvalues --   -0.50318  -0.49600  -0.48139  -0.47857  -0.47353
 Alpha  occ. eigenvalues --   -0.47183  -0.45997  -0.45714  -0.44807  -0.43617
 Alpha  occ. eigenvalues --   -0.42991  -0.42885  -0.41679  -0.41491  -0.41250
 Alpha  occ. eigenvalues --   -0.40516  -0.40263  -0.39920  -0.39570  -0.39083
 Alpha  occ. eigenvalues --   -0.37235  -0.36787  -0.36638  -0.33826  -0.32842
 Alpha  occ. eigenvalues --   -0.31683  -0.30467  -0.29041  -0.28578  -0.26296
 Alpha  occ. eigenvalues --   -0.26208  -0.25180  -0.24481
 Alpha virt. eigenvalues --   -0.05287  -0.04488  -0.02361   0.01815   0.04030
 Alpha virt. eigenvalues --    0.08690   0.09484   0.11274   0.11829   0.11908
 Alpha virt. eigenvalues --    0.12982   0.13155   0.13870   0.14557   0.14785

 Mulliken charges:
               1
     1  C   -0.495969
     2  C    0.406422
     3  F   -0.325467
     4  O   -0.484912
     5  C    0.623925
     6  O   -0.538708
     7  C    0.088880
     8  C    0.364473
     9  C   -0.268809
    10  N   -0.405698
    11  C   -0.328629
    12  C    0.569153
    13  O   -0.578644
    14  C    0.059496
    15  C    0.279761
    16  C   -0.163703
    17  C   -0.202599
    18  C    0.396967
    19  F   -0.300000
    20  C   -0.255578
    21  N   -0.560335
    22  C    0.221564
    23  N   -0.548213
    24  H    0.176110
    25  H    0.177868
    26  H    0.179009
    27  H    0.164880
    28  H    0.208793
    29  H    0.219116
    30  H    0.192728
    31  H    0.180595
    32  H    0.181814
    33  H    0.189906
    34  H    0.185592
    35  H    0.181652
    36  H    0.208560
 Sum of Mulliken charges =  -0.00000

 Dipole moment (field-independent basis, Debye):
    X=             -1.1640    Y=             -2.2442    Z=              0.6598  Tot=              2.6127
 Quadrupole moment (field-independent basis, Debye-Ang):
   XX=           -138.3204   YY=           -122.9747   ZZ=           -131.9870
   XY=             19.8308   XZ=            -17.0544   YZ=              3.8168

 Normal termination of Gaussian 16 at Wed Mar  2 02:51:17 2022.
