 Gaussian 16, Revision A.03,

 ----------------------------------------------------------------------
 #p b3lyp/6-31G(d) opt=(MaxStep=10,MaxCycles=1000) freq scf=(MaxCycle=2
 000,NoVarAcc,NoIncFock) scrf=(iefpcm,read,solvent=water)
 ----------------------------------------------------------------------

 -------------
 207.n.pdb.xyz
 -------------
 Symbolic Z-matrix:
 Charge =  0 Multiplicity = 1

 SCF Done:  E(RB3LYP) =  -611.099169492     A.U. after   13 cycles
 SCF Done:  E(RB3LYP) =  -611.105188857     A.U. after   10 cycles
 SCF Done:  E(RB3LYP) =  -611.107751219     A.U. after   11 cycles
 SCF Done:  E(RB3LYP) =  -611.110086889     A.U. after   11 cycles
 SCF Done:  E(RB3LYP) =  -611.111787916     A.U. after   10 cycles
 SCF Done:  E(RB3LYP) =  -611.112122060     A.U. after   10 cycles
 SCF Done:  E(RB3LYP) =  -611.112217758     A.U. after   10 cycles
 SCF Done:  E(RB3LYP) =  -611.112325268     A.U. after   10 cycles
 SCF Done:  E(RB3LYP) =  -611.112347254     A.U. after   10 cycles
 SCF Done:  E(RB3LYP) =  -611.112384047     A.U. after    8 cycles
 SCF Done:  E(RB3LYP) =  -611.112408624     A.U. after    8 cycles
 SCF Done:  E(RB3LYP) =  -611.112414147     A.U. after    7 cycles
 SCF Done:  E(RB3LYP) =  -611.112417914     A.U. after    7 cycles
 SCF Done:  E(RB3LYP) =  -611.112417591     A.U. after    6 cycles
 SCF Done:  E(RB3LYP) =  -611.112417000     A.U. after    7 cycles
 SCF Done:  E(RB3LYP) =  -611.112418172     A.U. after    7 cycles
 SCF Done:  E(RB3LYP) =  -611.112418542     A.U. after    6 cycles
 Optimization completed.
    -- Stationary point found.
 Normal termination of Gaussian 16 at Wed Mar  2 03:25:30 2022.

 --------------------------------------------------------------------
 #P Geom=AllCheck Guess=TCheck SCRF=Check GenChk RB3LYP/6-31G(d) Freq
 --------------------------------------------------------------------

 Structure from the checkpoint file:  "207.n.pdb.xyz.mst.wat.chk"
 -------------
 207.n.pdb.xyz
 -------------
 Charge =  0 Multiplicity = 1

 SCF Done:  E(RB3LYP) =  -611.112418542     A.U. after    1 cycles

  Exact polarizability: 235.663  -0.641 193.759   6.000  18.119  98.275
 Approx polarizability: 246.167   2.652 238.147   6.074  24.833 114.447

                      1                      2                      3
                      A                      A                      A
 Frequencies --     61.8325                76.0742               107.2942
 Red. masses --      4.0627                 3.9147                 4.1110
 Frc consts  --      0.0092                 0.0133                 0.0279
 IR Inten    --      7.1940                 0.5361                 3.6422

                      4                      5                      6
                      A                      A                      A
 Frequencies --    121.6999               153.9065               172.4045
 Red. masses --      1.1096                 3.4883                 1.0222
 Frc consts  --      0.0097                 0.0487                 0.0179
 IR Inten    --      0.1992                11.2940                 0.9707

                      7                      8                      9
                      A                      A                      A
 Frequencies --    197.4813               254.0889               274.7346
 Red. masses --      3.5550                 3.8710                 3.1198
 Frc consts  --      0.0817                 0.1472                 0.1387
 IR Inten    --      2.2889                 2.5901                 9.7944

                     10                     11                     12
                      A                      A                      A
 Frequencies --    279.9783               321.9569               390.8287
 Red. masses --      4.7525                 4.4040                 5.3494
 Frc consts  --      0.2195                 0.2690                 0.4814
 IR Inten    --      2.6811                26.8580                 2.2395

                     13                     14                     15
                      A                      A                      A
 Frequencies --    424.2422               447.9976               511.3690
 Red. masses --      3.1231                 4.8984                 3.4601
 Frc consts  --      0.3312                 0.5792                 0.5331
 IR Inten    --      1.0437                19.4191                 9.4646

                     16                     17                     18
                      A                      A                      A
 Frequencies --    592.4982               610.3404               621.2563
 Red. masses --      4.4179                 4.9497                 3.9213
 Frc consts  --      0.9138                 1.0864                 0.8917
 IR Inten    --     18.6491                 2.7462                29.2974

                     19                     20                     21
                      A                      A                      A
 Frequencies --    632.1673               647.3483               708.8509
 Red. masses --      5.8984                 6.2650                 2.4040
 Frc consts  --      1.3888                 1.5469                 0.7117
 IR Inten    --      1.9820                41.4984                17.4797

                     22                     23                     24
                      A                      A                      A
 Frequencies --    720.9494               742.4434               773.4007
 Red. masses --      3.4853                 3.1906                 1.7400
 Frc consts  --      1.0673                 1.0362                 0.6132
 IR Inten    --      6.4487                28.5825                52.9798

                     25                     26                     27
                      A                      A                      A
 Frequencies --    789.1848               849.7090               871.5316
 Red. masses --      1.6454                 1.2516                 3.7834
 Frc consts  --      0.6038                 0.5324                 1.6932
 IR Inten    --     73.0575                 0.3683                23.5929

                     28                     29                     30
                      A                      A                      A
 Frequencies --    920.2783               975.3115              1001.1587
 Red. masses --      1.3875                 1.3347                 1.2497
 Frc consts  --      0.6923                 0.7480                 0.7380
 IR Inten    --      6.3540                 1.2437                 0.4166

                     31                     32                     33
                      A                      A                      A
 Frequencies --   1011.6561              1016.6996              1018.2741
 Red. masses --      2.9514                 4.1303                 2.0937
 Frc consts  --      1.7797                 2.5155                 1.2791
 IR Inten    --     15.9598                 0.0133                 2.6826

                     34                     35                     36
                      A                      A                      A
 Frequencies --   1058.0102              1070.9657              1077.8908
 Red. masses --      1.9656                 1.6663                 2.4114
 Frc consts  --      1.2963                 1.1260                 1.6507
 IR Inten    --     16.9749                10.4589                38.4996

                     37                     38                     39
                      A                      A                      A
 Frequencies --   1114.3315              1129.9218              1169.0907
 Red. masses --      1.6295                 1.9963                 1.6505
 Frc consts  --      1.1922                 1.5017                 1.3291
 IR Inten    --     29.6211                26.0328                88.2118

                     40                     41                     42
                      A                      A                      A
 Frequencies --   1187.3528              1196.8584              1203.5126
 Red. masses --      1.0952                 1.4152                 1.3913
 Frc consts  --      0.9097                 1.1944                 1.1874
 IR Inten    --      0.4866                23.1593                25.8317

                     43                     44                     45
                      A                      A                      A
 Frequencies --   1259.5897              1260.7740              1344.2746
 Red. masses --      2.6095                 6.3838                 2.9528
 Frc consts  --      2.4393                 5.9787                 3.1438
 IR Inten    --      7.9625                17.5642               195.6797

                     46                     47                     48
                      A                      A                      A
 Frequencies --   1363.0589              1364.8022              1420.7341
 Red. masses --      4.4497                 2.1415                 1.8779
 Frc consts  --      4.8709                 2.3502                 2.2333
 IR Inten    --     40.9917               200.7143                86.4483

                     49                     50                     51
                      A                      A                      A
 Frequencies --   1439.6015              1462.7031              1491.5512
 Red. masses --      1.4658                 1.3054                 1.0567
 Frc consts  --      1.7898                 1.6455                 1.3850
 IR Inten    --     61.1698                67.6928                30.2363

                     52                     53                     54
                      A                      A                      A
 Frequencies --   1495.8305              1501.7220              1505.4769
 Red. masses --      1.0521                 2.0213                 1.2296
 Frc consts  --      1.3870                 2.6858                 1.6419
 IR Inten    --     18.4832                14.0017                11.4735

                     55                     56                     57
                      A                      A                      A
 Frequencies --   1533.0416              1540.2559              1634.8895
 Red. masses --      1.1804                 2.2666                 6.3279
 Frc consts  --      1.6346                 3.1682                 9.9652
 IR Inten    --     33.1056               124.9887               166.9143

                     58                     59                     60
                      A                      A                      A
 Frequencies --   1643.1812              1656.5960              1727.6994
 Red. masses --      6.0983                 5.7663                11.6516
 Frc consts  --      9.7013                 9.3235                20.4913
 IR Inten    --     16.0830                61.1488               912.1595

                     61                     62                     63
                      A                      A                      A
 Frequencies --   3066.1820              3074.6568              3133.2036
 Red. masses --      1.0450                 1.0386                 1.1007
 Frc consts  --      5.7883                 5.7850                 6.3664
 IR Inten    --     71.2998                19.7621                13.7398

                     64                     65                     66
                      A                      A                      A
 Frequencies --   3164.4855              3171.7480              3201.3073
 Red. masses --      1.0915                 1.1013                 1.1050
 Frc consts  --      6.4399                 6.5279                 6.6721
 IR Inten    --     19.5813                18.9233                11.5677

                     67                     68                     69
                      A                      A                      A
 Frequencies --   3206.2579              3216.8664              3226.9767
 Red. masses --      1.0859                 1.0901                 1.0950
 Frc consts  --      6.5771                 6.6461                 6.7181
 IR Inten    --      0.0532                28.4307                48.7145

                     70                     71                     72
                      A                      A                      A
 Frequencies --   3242.8893              3255.4837              3295.3626
 Red. masses --      1.0933                 1.0930                 1.0975
 Frc consts  --      6.7742                 6.8250                 7.0222
 IR Inten    --      8.2389                 3.8794                 1.3436

 - Thermochemistry -
 -------------------
 Temperature   298.150 Kelvin.  Pressure   1.00000 Atm.
 Atom     1 has atomic number  6 and mass  12.00000

 Molecular mass:   188.09496 amu.
 Principal axes and moments of inertia in atomic units:
                           1         2         3
     Eigenvalues --  1273.465113629.806674549.96497
           X            0.99984   0.01793  -0.00022
           Y           -0.01793   0.99984   0.00280
           Z            0.00027  -0.00279   1.00000
 This molecule is an asymmetric top.
 Rotational symmetry number  1.
 Warning -- assumption of classical behavior for rotation
           may cause significant error
 Rotational temperatures (Kelvin)      0.06801     0.02386     0.01904
 Rotational constants (GHZ):           1.41719     0.49720     0.39665
 Zero-point vibrational energy     558704.4 (Joules/Mol)
                                  133.53356 (Kcal/Mol)
 Warning -- explicit consideration of  17 degrees of freedom as
           vibrations may cause significant error
 Vibrational temperatures:     88.96   109.45   154.37   175.10   221.44
          (Kelvin)            248.05   284.13   365.58   395.28   402.83
                              463.22   562.32   610.39   644.57   735.75
                              852.47   878.14   893.85   909.55   931.39
                             1019.88  1037.29  1068.21  1112.75  1135.46
                             1222.54  1253.94  1324.08  1403.26  1440.44
                             1455.55  1462.80  1465.07  1522.24  1540.88
                             1550.84  1603.27  1625.71  1682.06  1708.34
                             1722.01  1731.59  1812.27  1813.97  1934.11
                             1961.14  1963.65  2044.12  2071.27  2104.50
                             2146.01  2152.17  2160.64  2166.05  2205.70
                             2216.08  2352.24  2364.17  2383.47  2485.77
                             4411.55  4423.75  4507.98  4552.99  4563.44
                             4605.97  4613.09  4628.35  4642.90  4665.79
                             4683.91  4741.29

 Zero-point correction=                           0.212799 (Hartree/Particle)
 Thermal correction to Energy=                    0.225195
 Thermal correction to Enthalpy=                  0.226139
 Thermal correction to Gibbs Free Energy=         0.174139
 Sum of electronic and zero-point Energies=           -610.899619
 Sum of electronic and thermal Energies=              -610.887224
 Sum of electronic and thermal Enthalpies=            -610.886279
 Sum of electronic and thermal Free Energies=         -610.938280

                     E (Thermal)             CV                S
                      KCal/Mol        Cal/Mol-Kelvin    Cal/Mol-Kelvin
 Total                  141.312             47.691            109.444
 Electronic               0.000              0.000              0.000
 Translational            0.889              2.981             41.601
 Rotational               0.889              2.981             31.420
 Vibrational            139.534             41.729             36.422
 Vibration     1          0.597              1.973              4.398
 Vibration     2          0.599              1.965              3.990
 Vibration     3          0.606              1.943              3.317
 Vibration     4          0.609              1.931              3.073
 Vibration     5          0.619              1.898              2.623
 Vibration     6          0.626              1.876              2.409
 Vibration     7          0.637              1.843              2.156
 Vibration     8          0.665              1.756              1.702
 Vibration     9          0.677              1.720              1.566
 Vibration    10          0.680              1.711              1.534
 Vibration    11          0.707              1.631              1.300
 Vibration    12          0.759              1.490              0.997
 Vibration    13          0.786              1.418              0.878
 Vibration    14          0.807              1.365              0.802
 Vibration    15          0.866              1.225              0.630
 Vibration    16          0.950              1.048              0.463
 Vibration    17          0.969              1.010              0.432

 Optimization completed.
    -- Stationary point found.
 Normal termination of Gaussian 16 at Wed Mar  2 03:43:11 2022.

 ------------------------------------------
 #p b3lyp/6-31G(d) geom=allcheck guess=read
 ------------------------------------------

 Structure from the checkpoint file:  "207.n.pdb.xyz.mst.wat.chk"
 -------------
 207.n.pdb.xyz
 -------------
 Charge =  0 Multiplicity = 1

 SCF Done:  E(RB3LYP) =  -611.098982956     A.U. after   12 cycles
 Normal termination of Gaussian 16 at Wed Mar  2 03:44:50 2022.
 Gaussian 16:  ES64L-G16RevA.03 25-Dec-2016

 ----------------------------------------------------------------------
 #p b3lyp/6-31G(d) scrf=(iefpcm,read,solvent=water) geom=allcheck guess
 =read
 ----------------------------------------------------------------------

 Structure from the checkpoint file:  "207.n.pdb.xyz.mst.wat.chk"
 -------------
 207.n.pdb.xyz
 -------------
 Charge =  0 Multiplicity = 1

                         Standard orientation:
 ---------------------------------------------------------------------
 Center     Atomic      Atomic             Coordinates (Angstroms)
 Number     Number       Type             X           Y           Z
 ---------------------------------------------------------------------
      1          6           0       -1.207097   -1.814643    1.036320
      2          7           0       -1.313691   -0.725599    0.059704
      3          7           0       -0.380692    0.318127    0.208830
      4          6           0       -0.995311    1.551878   -0.114836
      5          8           0       -0.387545    2.625933   -0.187671
      6          6           0       -2.380080    1.217961   -0.345810
      7          6           0       -2.534774   -0.128539   -0.197078
      8          6           0       -3.780508   -0.948068   -0.257101
      9          6           0        0.999087    0.039732    0.056991
     10          6           0        1.938194    0.917811    0.614378
     11          6           0        3.298836    0.653513    0.464855
     12          6           0        3.733155   -0.487555   -0.213570
     13          6           0        2.791335   -1.362531   -0.758210
     14          6           0        1.428058   -1.099820   -0.634331
     15          1           0       -1.376653   -1.456326    2.057568
     16          1           0       -0.215729   -2.259078    0.961662
     17          1           0       -1.950617   -2.567746    0.780720
     18          1           0       -3.142757    1.929547   -0.621674
     19          1           0       -4.602680   -0.338845   -0.633945
     20          1           0       -4.060806   -1.320691    0.733298
     21          1           0       -3.656638   -1.813095   -0.914762
     22          1           0        1.596271    1.795614    1.145894
     23          1           0        4.021687    1.339246    0.893553
     24          1           0        4.793609   -0.692533   -0.315669
     25          1           0        3.114103   -2.249389   -1.292965
     26          1           0        0.695871   -1.760307   -1.081701
 ---------------------------------------------------------------------

 SCF Done:  E(RB3LYP) =  -611.111655468     A.U. after   12 cycles

 The electronic state is 1-A.
 Alpha  occ. eigenvalues --  -19.11142 -14.40950 -14.40463 -10.28637 -10.24790
 Alpha  occ. eigenvalues --  -10.23990 -10.22428 -10.19627 -10.19584 -10.19526
 Alpha  occ. eigenvalues --  -10.19469 -10.19345 -10.19113 -10.18176  -1.06553
 Alpha  occ. eigenvalues --   -1.00621  -0.89050  -0.84254  -0.81149  -0.75872
 Alpha  occ. eigenvalues --   -0.75153  -0.71210  -0.69119  -0.62870  -0.61924
 Alpha  occ. eigenvalues --   -0.58902  -0.55969  -0.53022  -0.50241  -0.48951
 Alpha  occ. eigenvalues --   -0.47579  -0.45320  -0.44517  -0.43840  -0.43132
 Alpha  occ. eigenvalues --   -0.42568  -0.42068  -0.41766  -0.40611  -0.40362
 Alpha  occ. eigenvalues --   -0.39227  -0.37185  -0.36296  -0.35111  -0.33528
 Alpha  occ. eigenvalues --   -0.29354  -0.26275  -0.25275  -0.23752  -0.21409
 Alpha virt. eigenvalues --   -0.02568  -0.00700   0.00551   0.08434   0.09540
 Alpha virt. eigenvalues --    0.10020   0.12120   0.13208   0.14323   0.15208
 Alpha virt. eigenvalues --    0.15787   0.15977   0.16430   0.16676   0.18047

 Mulliken charges:
               1
     1  C   -0.326525
     2  N   -0.323080
     3  N   -0.413030
     4  C    0.584852
     5  O   -0.622932
     6  C   -0.339585
     7  C    0.394120
     8  C   -0.537620
     9  C    0.285537
    10  C   -0.160118
    11  C   -0.162979
    12  C   -0.143447
    13  C   -0.161142
    14  C   -0.173536
    15  H    0.183039
    16  H    0.189549
    17  H    0.197626
    18  H    0.160497
    19  H    0.191170
    20  H    0.195343
    21  H    0.192682
    22  H    0.159637
    23  H    0.154831
    24  H    0.151095
    25  H    0.155787
    26  H    0.168228
 Sum of Mulliken charges =  -0.00000

 Dipole moment (field-independent basis, Debye):
    X=             -2.7985    Y=             -7.1017    Z=              1.1078  Tot=              7.7131
 Quadrupole moment (field-independent basis, Debye-Ang):
   XX=            -60.7807   YY=            -87.7134   ZZ=            -81.1213
   XY=              4.6139   XZ=             -0.1108   YZ=              2.2841

 Normal termination of Gaussian 16 at Wed Mar  2 03:46:46 2022.
