 Gaussian 16, Revision A.03,

 ----------------------------------------------------------------------
 #p b3lyp/6-31G(d) opt=(MaxStep=10,MaxCycles=1000) freq scf=(MaxCycle=2
 000,NoVarAcc,NoIncFock) scrf=(iefpcm,read,solvent=water)
 ----------------------------------------------------------------------

 -------------
 209.n.pdb.xyz
 -------------
 Symbolic Z-matrix:
 Charge =  0 Multiplicity = 1

 SCF Done:  E(RB3LYP) =  -1458.60722730     A.U. after   11 cycles
 SCF Done:  E(RB3LYP) =  -1458.60816365     A.U. after   10 cycles
 SCF Done:  E(RB3LYP) =  -1458.60826442     A.U. after    9 cycles
 SCF Done:  E(RB3LYP) =  -1458.60827860     A.U. after    8 cycles
 SCF Done:  E(RB3LYP) =  -1458.60828205     A.U. after    8 cycles
 Optimization completed.
    -- Stationary point found.
 Normal termination of Gaussian 16 at Wed Mar  2 04:21:53 2022.

 --------------------------------------------------------------------
 #P Geom=AllCheck Guess=TCheck SCRF=Check GenChk RB3LYP/6-31G(d) Freq
 --------------------------------------------------------------------

 Structure from the checkpoint file:  "209.n.pdb.xyz.mst.wat.chk"
 -------------
 209.n.pdb.xyz
 -------------
 Charge =  0 Multiplicity = 1

 SCF Done:  E(RB3LYP) =  -1458.60828205     A.U. after    1 cycles

  Exact polarizability:  79.280  -9.697  65.309   4.142   0.606  42.617
 Approx polarizability:  89.432 -13.750  76.130   6.413   1.166  49.802

                      1                      2                      3
                      A                      A                      A
 Frequencies --    109.9535               177.0857               253.5806
 Red. masses --      4.9225                 7.3069                17.3782
 Frc consts  --      0.0351                 0.1350                 0.6584
 IR Inten    --      7.4492                 6.8861                 2.3704

                      4                      5                      6
                      A                      A                      A
 Frequencies --    328.2566               381.5191               647.6372
 Red. masses --     15.5571                 3.3950                 4.6617
 Frc consts  --      0.9877                 0.2912                 1.1520
 IR Inten    --      2.8227                14.2799                88.3263

                      7                      8                      9
                      A                      A                      A
 Frequencies --    703.6221               762.2974               946.7183
 Red. masses --      9.8812                 5.7467                 1.6342
 Frc consts  --      2.8823                 1.9675                 0.8630
 IR Inten    --    231.4921                20.9682                41.5234

                     10                     11                     12
                      A                      A                      A
 Frequencies --   1068.8339              1195.9786              1258.1132
 Red. masses --      3.6241                 1.1067                 1.0736
 Frc consts  --      2.4393                 0.9327                 1.0013
 IR Inten    --      5.8981                 5.1866                30.4952

                     13                     14                     15
                      A                      A                      A
 Frequencies --   1311.4689              1352.6036              1485.0974
 Red. masses --      1.1489                 1.2361                 1.0895
 Frc consts  --      1.1643                 1.3324                 1.4158
 IR Inten    --     29.4124                14.1459                 9.7900

                     16                     17                     18
                      A                      A                      A
 Frequencies --   3149.8852              3208.3481              3223.8328
 Red. masses --      1.0568                 1.0927                 1.1081
 Frc consts  --      6.1779                 6.6267                 6.7853
 IR Inten    --      5.6965                 1.1860                 0.0321

 - Thermochemistry -
 -------------------
 Temperature   298.150 Kelvin.  Pressure   1.00000 Atm.
 Atom     1 has atomic number 17 and mass  34.96885

 Molecular mass:   131.93003 amu.
 Principal axes and moments of inertia in atomic units:
                           1         2         3
     Eigenvalues --   521.029381253.182281715.69905
           X            0.99995   0.00851  -0.00450
           Y           -0.00855   0.99991  -0.00987
           Z            0.00442   0.00990   0.99994
 This molecule is an asymmetric top.
 Rotational symmetry number  1.
 Warning -- assumption of classical behavior for rotation
           may cause significant error
 Rotational temperatures (Kelvin)      0.16624     0.06912     0.05048
 Rotational constants (GHZ):           3.46380     1.44013     1.05190
 Zero-point vibrational energy     128986.3 (Joules/Mol)
                                   30.82848 (Kcal/Mol)
 Warning -- explicit consideration of   5 degrees of freedom as
           vibrations may cause significant error
 Vibrational temperatures:    158.20   254.79   364.85   472.29   548.92
          (Kelvin)            931.81  1012.36  1096.78  1362.12  1537.81
                             1720.75  1810.14  1886.91  1946.09  2136.72
                             4531.98  4616.10  4638.38

 Zero-point correction=                           0.049128 (Hartree/Particle)
 Thermal correction to Energy=                    0.054935
 Thermal correction to Enthalpy=                  0.055879
 Thermal correction to Gibbs Free Energy=         0.017904
 Sum of electronic and zero-point Energies=          -1458.559154
 Sum of electronic and thermal Energies=             -1458.553347
 Sum of electronic and thermal Enthalpies=           -1458.552403
 Sum of electronic and thermal Free Energies=        -1458.590378

                     E (Thermal)             CV                S
                      KCal/Mol        Cal/Mol-Kelvin    Cal/Mol-Kelvin
 Total                   34.472             18.599             79.925
 Electronic               0.000              0.000              0.000
 Translational            0.889              2.981             40.544
 Rotational               0.889              2.981             28.506
 Vibrational             32.695             12.637             10.874
 Vibration     1          0.606              1.941              3.270
 Vibration     2          0.628              1.871              2.359
 Vibration     3          0.665              1.757              1.706
 Vibration     4          0.711              1.619              1.269
 Vibration     5          0.751              1.510              1.033

 Optimization completed.
    -- Stationary point found.
 Normal termination of Gaussian 16 at Wed Mar  2 04:22:51 2022.

 ------------------------------------------
 #p b3lyp/6-31G(d) geom=allcheck guess=read
 ------------------------------------------

 Structure from the checkpoint file:  "209.n.pdb.xyz.mst.wat.chk"
 -------------
 209.n.pdb.xyz
 -------------
 Charge =  0 Multiplicity = 1

 SCF Done:  E(RB3LYP) =  -1458.60442496     A.U. after   10 cycles

 1\1\GINC-PIRINEUS3\SP\RB3LYP\6-31G(d)\C2H3Cl3\UBATOR01\02-Mar-2022\0\\
 #p b3lyp/6-31G(d) geom=allcheck guess=read\\209.n.pdb.xyz\\0,1\Cl,0,1.
 9476070147,0.8779099957,0.5093566317\C,0,0.7238734667,-0.3099136699,-0
 .091993695\C,0,-0.6904937518,0.1873150161,0.155637555\Cl,0,-1.82768282
 36,-1.1513547009,-0.2659590655\Cl,0,-1.0696084048,1.6577132414,-0.8122
 921369\H,0,0.9066829006,-0.4684408655,-1.1530345552\H,0,0.8801698708,-
 1.2340579874,0.4611412312\H,0,-0.8705482726,0.4398289703,1.1961440348\
 \Version=ES64L-G16RevA.03\State=1-A\HF=-1458.604425\RMSD=5.869e-09\Dip

 Normal termination of Gaussian 16 at Wed Mar  2 04:22:59 2022.
 Gaussian 16:  ES64L-G16RevA.03 25-Dec-2016

 ----------------------------------------------------------------------
 #p b3lyp/6-31G(d) scrf=(iefpcm,read,solvent=water) geom=allcheck guess
 =read
 ----------------------------------------------------------------------

 Structure from the checkpoint file:  "209.n.pdb.xyz.mst.wat.chk"
 -------------
 209.n.pdb.xyz
 -------------
 Charge =  0 Multiplicity = 1

                         Standard orientation:
 ---------------------------------------------------------------------
 Center     Atomic      Atomic             Coordinates (Angstroms)
 Number     Number       Type             X           Y           Z
 ---------------------------------------------------------------------
      1         17           0       -2.312313   -0.307828   -0.086364
      2          6           0       -0.655069   -0.857320    0.384454
      3          6           0        0.413660   -0.086150   -0.371925
      4         17           0        2.008439   -0.852702   -0.008528
      5         17           0        0.439549    1.656151    0.082393
      6          1           0       -0.552420   -0.723296    1.459563
      7          1           0       -0.585241   -1.912251    0.126242
      8          1           0        0.279646   -0.129197   -1.448505
 ---------------------------------------------------------------------

 SCF Done:  E(RB3LYP) =  -1458.60787597     A.U. after   10 cycles

 The electronic state is 1-A.
 Alpha  occ. eigenvalues -- -101.56385-101.56120-101.55281 -10.32632 -10.27072
 Alpha  occ. eigenvalues --   -9.48064  -9.47798  -9.46933  -7.24486  -7.24221
 Alpha  occ. eigenvalues --   -7.23462  -7.23440  -7.23340  -7.23197  -7.23175
 Alpha  occ. eigenvalues --   -7.22350  -7.22319  -0.92453  -0.86037  -0.83352
 Alpha  occ. eigenvalues --   -0.72870  -0.62738  -0.51199  -0.48052  -0.46996
 Alpha  occ. eigenvalues --   -0.42942  -0.41310  -0.34284  -0.33304  -0.32716
 Alpha  occ. eigenvalues --   -0.31703  -0.31291  -0.30932
 Alpha virt. eigenvalues --   -0.02291  -0.00524   0.03618   0.11260   0.12354
 Alpha virt. eigenvalues --    0.15337   0.16424   0.32539   0.34776   0.38854
 Alpha virt. eigenvalues --    0.39382   0.41085   0.41891   0.43083   0.44000

 Mulliken charges:
               1
     1  Cl  -0.076206
     2  C   -0.354273
     3  C   -0.301266
     4  Cl  -0.022854
     5  Cl  -0.022814
     6  H    0.245365
     7  H    0.250703
     8  H    0.281345
 Sum of Mulliken charges =  -0.00000

 Dipole moment (field-independent basis, Debye):
    X=              0.1630    Y=             -1.8957    Z=             -0.2715  Tot=              1.9220
 Quadrupole moment (field-independent basis, Debye-Ang):
   XX=            -56.7335   YY=            -49.9359   ZZ=            -47.9998
   XY=              0.2598   XZ=             -0.6558   YZ=             -0.4760

 1\1\GINC-PIRINEUS3\SP\RB3LYP\6-31G(d)\C2H3Cl3\UBATOR01\02-Mar-2022\0\\
 #p b3lyp/6-31G(d) scrf=(iefpcm,read,solvent=water) geom=allcheck guess
 =read\\209.n.pdb.xyz\\0,1\Cl,0,1.9476070147,0.8779099957,0.5093566317\
 C,0,0.7238734667,-0.3099136699,-0.091993695\C,0,-0.6904937518,0.187315
 0161,0.155637555\Cl,0,-1.8276828236,-1.1513547009,-0.2659590655\Cl,0,-
 1.0696084048,1.6577132414,-0.8122921369\H,0,0.9066829006,-0.4684408655
 ,-1.1530345552\H,0,0.8801698708,-1.2340579874,0.4611412312\H,0,-0.8705
 482726,0.4398289703,1.1961440348\\Version=ES64L-G16RevA.03\State=1-A\H

 Normal termination of Gaussian 16 at Wed Mar  2 04:23:12 2022.
