 Gaussian 16, Revision A.03,

 ----------------------------------------------------------------------
 #p b3lyp/6-31G(d) opt=(MaxStep=10,MaxCycles=1000) freq scf=(MaxCycle=2
 000,NoVarAcc,NoIncFock) scrf=(iefpcm,read,solvent=water)
 ----------------------------------------------------------------------

 ------------
 21.n.pdb.xyz
 ------------
 Symbolic Z-matrix:
 Charge =  0 Multiplicity = 1

 SCF Done:  E(RB3LYP) =  -1247.59753366     A.U. after   13 cycles
 SCF Done:  E(RB3LYP) =  -1247.60054964     A.U. after   10 cycles
 SCF Done:  E(RB3LYP) =  -1247.60142081     A.U. after   10 cycles
 SCF Done:  E(RB3LYP) =  -1247.60150630     A.U. after   10 cycles
 SCF Done:  E(RB3LYP) =  -1247.60143074     A.U. after   10 cycles
 SCF Done:  E(RB3LYP) =  -1247.60150999     A.U. after    9 cycles
 SCF Done:  E(RB3LYP) =  -1247.60160193     A.U. after    9 cycles
 SCF Done:  E(RB3LYP) =  -1247.60151560     A.U. after    9 cycles
 SCF Done:  E(RB3LYP) =  -1247.60155238     A.U. after    8 cycles
 SCF Done:  E(RB3LYP) =  -1247.60155715     A.U. after    9 cycles
 SCF Done:  E(RB3LYP) =  -1247.60155840     A.U. after    8 cycles
 SCF Done:  E(RB3LYP) =  -1247.60155846     A.U. after    7 cycles
 SCF Done:  E(RB3LYP) =  -1247.60155850     A.U. after    7 cycles
 Optimization completed.
    -- Stationary point found.
 Normal termination of Gaussian 16 at Tue Mar  1 06:46:01 2022.

 --------------------------------------------------------------------
 #P Geom=AllCheck Guess=TCheck SCRF=Check GenChk RB3LYP/6-31G(d) Freq
 --------------------------------------------------------------------

 Structure from the checkpoint file:  "21.n.pdb.xyz.mst.wat.chk"
 ------------
 21.n.pdb.xyz
 ------------
 Charge =  0 Multiplicity = 1

 SCF Done:  E(RB3LYP) =  -1247.60155850     A.U. after    1 cycles

  Exact polarizability: 339.926  -6.861 288.387 -16.742 -22.740 152.916
 Approx polarizability: 357.079  -5.045 316.772 -18.925 -30.340 183.414

                      1                      2                      3
                      A                      A                      A
 Frequencies --     35.6458                57.4724                82.0926
 Red. masses --      7.2213                 3.0257                 3.8396
 Frc consts  --      0.0054                 0.0059                 0.0152
 IR Inten    --      0.3380                 0.6918                 0.2665

                      4                      5                      6
                      A                      A                      A
 Frequencies --    105.7865               118.0160               142.9073
 Red. masses --      3.9905                 5.7848                 3.1406
 Frc consts  --      0.0263                 0.0475                 0.0378
 IR Inten    --      1.5901                 0.5836                 0.3124

                      7                      8                      9
                      A                      A                      A
 Frequencies --    149.5468               205.3037               238.5384
 Red. masses --      4.9157                 3.2960                 2.4591
 Frc consts  --      0.0648                 0.0819                 0.0824
 IR Inten    --      0.2585                 0.8266                 2.4461

                     10                     11                     12
                      A                      A                      A
 Frequencies --    245.1561               268.6449               304.4760
 Red. masses --      1.4515                 7.5770                 5.0856
 Frc consts  --      0.0514                 0.3222                 0.2778
 IR Inten    --      1.7455                 4.2470                 1.7781

                     13                     14                     15
                      A                      A                      A
 Frequencies --    315.9118               341.4663               343.0763
 Red. masses --      5.1706                 2.4917                 5.0579
 Frc consts  --      0.3040                 0.1712                 0.3508
 IR Inten    --      2.0469                 6.6372                 4.9993

                     16                     17                     18
                      A                      A                      A
 Frequencies --    368.7586               390.1697               408.1585
 Red. masses --      3.2971                 5.9757                 4.5613
 Frc consts  --      0.2642                 0.5360                 0.4477
 IR Inten    --      1.4348                 5.2763                 1.2528

                     19                     20                     21
                      A                      A                      A
 Frequencies --    439.7855               475.2839               492.8690
 Red. masses --      3.9629                 5.0846                 3.7977
 Frc consts  --      0.4516                 0.6767                 0.5435
 IR Inten    --      5.6043                 8.9095                11.8005

                     22                     23                     24
                      A                      A                      A
 Frequencies --    513.9526               550.9969               571.0791
 Red. masses --      3.5813                 3.6175                 3.9437
 Frc consts  --      0.5574                 0.6471                 0.7578
 IR Inten    --      3.2498                 4.2701                 1.6263

                     25                     26                     27
                      A                      A                      A
 Frequencies --    599.3793               623.7492               643.9165
 Red. masses --      4.3747                 4.3528                 5.0530
 Frc consts  --      0.9260                 0.9978                 1.2344
 IR Inten    --      6.3937                 2.6995                 2.8259

                     28                     29                     30
                      A                      A                      A
 Frequencies --    650.0661               679.8953               713.0930
 Red. masses --      6.0845                 6.5600                 4.7671
 Frc consts  --      1.5149                 1.7866                 1.4282
 IR Inten    --      0.7341                38.9670                 0.9713

                     31                     32                     33
                      A                      A                      A
 Frequencies --    753.1071               758.5003               788.9628
 Red. masses --      2.5284                 3.6681                 1.5798
 Frc consts  --      0.8449                 1.2434                 0.5794
 IR Inten    --      9.1096                 7.2477                59.1831

                     34                     35                     36
                      A                      A                      A
 Frequencies --    834.2761               840.9928               859.2752
 Red. masses --      2.3896                 1.8858                 4.1727
 Frc consts  --      0.9799                 0.7858                 1.8153
 IR Inten    --     49.0873                42.7894                 6.1242

                     37                     38                     39
                      A                      A                      A
 Frequencies --    881.7303               891.7707               897.4109
 Red. masses --      3.1768                 1.6160                 1.5028
 Frc consts  --      1.4552                 0.7572                 0.7131
 IR Inten    --     49.2582                 5.5186                 6.4172

                     40                     41                     42
                      A                      A                      A
 Frequencies --    909.0308               955.2482               957.5591
 Red. masses --      5.1851                 1.3698                 1.3083
 Frc consts  --      2.5244                 0.7364                 0.7068
 IR Inten    --      0.6094                 5.2542                 1.6129

                     43                     44                     45
                      A                      A                      A
 Frequencies --    963.7854               991.5477               993.1706
 Red. masses --      2.2921                 1.2581                 1.7104
 Frc consts  --      1.2544                 0.7288                 0.9940
 IR Inten    --      4.1152                 0.0260                 4.5273

                     46                     47                     48
                      A                      A                      A
 Frequencies --   1050.8210              1062.7159              1064.8408
 Red. masses --      2.0862                 2.7035                 2.0405
 Frc consts  --      1.3573                 1.7989                 1.3632
 IR Inten    --     35.8955                 1.4757                15.6510

                     49                     50                     51
                      A                      A                      A
 Frequencies --   1080.4864              1098.8548              1123.7370
 Red. masses --      2.9183                 2.6046                 2.2871
 Frc consts  --      2.0073                 1.8530                 1.7017
 IR Inten    --     30.6386                11.2113                36.3779

                     52                     53                     54
                      A                      A                      A
 Frequencies --   1128.5165              1139.4828              1160.0687
 Red. masses --      1.7916                 1.5696                 1.4639
 Frc consts  --      1.3443                 1.2007                 1.1607
 IR Inten    --     62.0327                24.8155                17.4849

                     55                     56                     57
                      A                      A                      A
 Frequencies --   1182.5064              1193.5490              1197.9266
 Red. masses --      1.1457                 2.1862                 1.6881
 Frc consts  --      0.9439                 1.8350                 1.4273
 IR Inten    --      2.8668                26.5864                26.7093

                     58                     59                     60
                      A                      A                      A
 Frequencies --   1212.2886              1229.6869              1238.2648
 Red. masses --      1.8517                 2.3121                 1.8871
 Frc consts  --      1.6034                 2.0599                 1.7048
 IR Inten    --    143.5874                18.5060                18.3570

                     61                     62                     63
                      A                      A                      A
 Frequencies --   1247.4064              1263.4519              1274.0530
 Red. masses --      1.3556                 2.0698                 3.0860
 Frc consts  --      1.2428                 1.9467                 2.9514
 IR Inten    --     12.1151               184.4685               362.2952

                     64                     65                     66
                      A                      A                      A
 Frequencies --   1286.1133              1304.1309              1313.5592
 Red. masses --      1.3837                 1.3206                 1.4902
 Frc consts  --      1.3485                 1.3233                 1.5149
 IR Inten    --     70.9531                32.3998                 0.8193

                     67                     68                     69
                      A                      A                      A
 Frequencies --   1326.5411              1336.7058              1342.2984
 Red. masses --      1.4855                 2.3686                 4.0177
 Frc consts  --      1.5401                 2.4935                 4.2651
 IR Inten    --     54.2572                 8.6795                11.0367

                     70                     71                     72
                      A                      A                      A
 Frequencies --   1358.0736              1365.6429              1396.3984
 Red. masses --      3.1582                 1.6218                 1.6004
 Frc consts  --      3.4319                 1.7820                 1.8386
 IR Inten    --      1.1755                29.6034                14.3175

                     73                     74                     75
                      A                      A                      A
 Frequencies --   1414.1709              1437.7556              1474.2956
 Red. masses --      1.7479                 3.3601                 1.1959
 Frc consts  --      2.0595                 4.0923                 1.5315
 IR Inten    --     34.6638                68.2043                 3.9719

                     76                     77                     78
                      A                      A                      A
 Frequencies --   1495.6375              1507.1466              1517.9849
 Red. masses --      2.3553                 1.0511                 2.5790
 Frc consts  --      3.1042                 1.4067                 3.5013
 IR Inten    --     76.5991                20.6573               306.0407

                     79                     80                     81
                      A                      A                      A
 Frequencies --   1520.2882              1534.7007              1545.1969
 Red. masses --      1.0676                 2.7642                 1.0854
 Frc consts  --      1.4539                 3.8360                 1.5269
 IR Inten    --      0.7963                62.3712                 9.4566

                     82                     83                     84
                      A                      A                      A
 Frequencies --   1556.9596              1616.4856              1637.3902
 Red. masses --      1.0995                 7.1371                 6.1896
 Frc consts  --      1.5704                10.9879                 9.7772
 IR Inten    --      4.6168                 2.1819                 9.9736

                     85                     86                     87
                      A                      A                      A
 Frequencies --   1652.0504              1664.5405              2951.5307
 Red. masses --      6.9954                 6.6229                 1.0694
 Frc consts  --     11.2488                10.8115                 5.4891
 IR Inten    --      4.4531                 3.3784                65.1343

                     88                     89                     90
                      A                      A                      A
 Frequencies --   2955.6458              3002.5631              3044.1184
 Red. masses --      1.0631                 1.0714                 1.0813
 Frc consts  --      5.4717                 5.6912                 5.9035
 IR Inten    --    222.5393               110.8301                 3.7475

                     91                     92                     93
                      A                      A                      A
 Frequencies --   3057.0849              3075.8726              3087.7621
 Red. masses --      1.0837                 1.0933                 1.0714
 Frc consts  --      5.9675                 6.0945                 6.0187
 IR Inten    --     47.4067                98.1224                66.9725

                     94                     95                     96
                      A                      A                      A
 Frequencies --   3099.8636              3130.8457              3206.6423
 Red. masses --      1.0888                 1.1045                 1.0858
 Frc consts  --      6.1644                 6.3785                 6.5779
 IR Inten    --     78.0897                46.3661                 0.3697

                     97                     98                     99
                      A                      A                      A
 Frequencies --   3216.9344              3225.5119              3230.5813
 Red. masses --      1.0894                 1.0934                 1.0889
 Frc consts  --      6.6426                 6.7022                 6.6961
 IR Inten    --     19.4041                44.6344                 6.1588

                    100                    101                    102
                      A                      A                      A
 Frequencies --   3233.4135              3239.0538              3245.9806
 Red. masses --      1.0968                 1.0908                 1.0954
 Frc consts  --      6.7559                 6.7427                 6.8003
 IR Inten    --     22.7681                 3.8259                 6.7861

 - Thermochemistry -
 -------------------
 Temperature   298.150 Kelvin.  Pressure   1.00000 Atm.
 Atom     1 has atomic number  6 and mass  12.00000

 Molecular mass:   285.09204 amu.
 Principal axes and moments of inertia in atomic units:
                           1         2         3
     Eigenvalues --  4194.611997857.71032**********
           X            0.99989   0.01278  -0.00780
           Y           -0.01280   0.99992  -0.00242
           Z            0.00777   0.00252   0.99997
 This molecule is an asymmetric top.
 Rotational symmetry number  1.
 Warning -- assumption of classical behavior for rotation
           may cause significant error
 Rotational temperatures (Kelvin)      0.02065     0.01102     0.00759
 Rotational constants (GHZ):           0.43025     0.22968     0.15812
 Zero-point vibrational energy     771039.2 (Joules/Mol)
                                  184.28280 (Kcal/Mol)
 Warning -- explicit consideration of  25 degrees of freedom as
           vibrations may cause significant error
 Vibrational temperatures:     51.29    82.69   118.11   152.20   169.80
          (Kelvin)            205.61   215.16   295.39   343.20   352.72
                              386.52   438.07   454.53   491.29   493.61
                              530.56   561.37   587.25   632.75   683.83
                              709.13   739.46   792.76   821.66   862.37
                              897.44   926.45   935.30   978.22  1025.98
                             1083.55  1091.31  1135.14  1200.34  1210.00
                             1236.31  1268.61  1283.06  1291.17  1307.89
                             1374.39  1377.71  1386.67  1426.62  1428.95
                             1511.90  1529.01  1532.07  1554.58  1581.01
                             1616.81  1623.68  1639.46  1669.08  1701.36
                             1717.25  1723.55  1744.21  1769.25  1781.59
                             1794.74  1817.83  1833.08  1850.43  1876.35
                             1889.92  1908.60  1923.22  1931.27  1953.96
                             1964.86  2009.11  2034.68  2068.61  2121.18
                             2151.89  2168.45  2184.04  2187.36  2208.09
                             2223.19  2240.12  2325.76  2355.84  2376.93
                             2394.90  4246.59  4252.52  4320.02  4379.81
                             4398.46  4425.49  4442.60  4460.01  4504.59
                             4613.64  4628.45  4640.79  4648.09  4652.16
                             4660.28  4670.24

 Zero-point correction=                           0.293673 (Hartree/Particle)
 Thermal correction to Energy=                    0.309744
 Thermal correction to Enthalpy=                  0.310688
 Thermal correction to Gibbs Free Energy=         0.249851
 Sum of electronic and zero-point Energies=          -1247.307885
 Sum of electronic and thermal Energies=             -1247.291814
 Sum of electronic and thermal Enthalpies=           -1247.290870
 Sum of electronic and thermal Free Energies=        -1247.351707

                     E (Thermal)             CV                S
                      KCal/Mol        Cal/Mol-Kelvin    Cal/Mol-Kelvin
 Total                  194.367             64.903            128.042
 Electronic               0.000              0.000              0.000
 Translational            0.889              2.981             42.841
 Rotational               0.889              2.981             34.286
 Vibrational            192.590             58.941             50.916
 Vibration     1          0.594              1.982              5.487
 Vibration     2          0.596              1.975              4.542
 Vibration     3          0.600              1.961              3.840
 Vibration     4          0.605              1.945              3.345
 Vibration     5          0.608              1.934              3.133
 Vibration     6          0.616              1.910              2.765
 Vibration     7          0.618              1.903              2.678
 Vibration     8          0.640              1.832              2.085
 Vibration     9          0.657              1.782              1.814
 Vibration    10          0.660              1.771              1.765
 Vibration    11          0.673              1.731              1.605
 Vibration    12          0.695              1.665              1.392
 Vibration    13          0.703              1.643              1.331
 Vibration    14          0.721              1.593              1.205
 Vibration    15          0.722              1.589              1.198
 Vibration    16          0.741              1.536              1.085
 Vibration    17          0.758              1.491              0.999
 Vibration    18          0.773              1.453              0.933
 Vibration    19          0.800              1.383              0.827
 Vibration    20          0.832              1.305              0.723
 Vibration    21          0.849              1.266              0.676
 Vibration    22          0.869              1.219              0.624
 Vibration    23          0.906              1.138              0.542
 Vibration    24          0.927              1.094              0.502
 Vibration    25          0.957              1.033              0.451

                           ! Non-Optimized Parameters !
 Normal termination of Gaussian 16 at Tue Mar  1 07:34:18 2022.

 ------------------------------------------
 #p b3lyp/6-31G(d) geom=allcheck guess=read
 ------------------------------------------

 Structure from the checkpoint file:  "21.n.pdb.xyz.mst.wat.chk"
 ------------
 21.n.pdb.xyz
 ------------
 Charge =  0 Multiplicity = 1

 SCF Done:  E(RB3LYP) =  -1247.59659673     A.U. after   11 cycles
 Normal termination of Gaussian 16 at Tue Mar  1 07:37:32 2022.
 Gaussian 16:  ES64L-G16RevA.03 25-Dec-2016

 ----------------------------------------------------------------------
 #p b3lyp/6-31G(d) scrf=(iefpcm,read,solvent=water) geom=allcheck guess
 =read
 ----------------------------------------------------------------------

 Structure from the checkpoint file:  "21.n.pdb.xyz.mst.wat.chk"
 ------------
 21.n.pdb.xyz
 ------------
 Charge =  0 Multiplicity = 1

                         Standard orientation:
 ---------------------------------------------------------------------
 Center     Atomic      Atomic             Coordinates (Angstroms)
 Number     Number       Type             X           Y           Z
 ---------------------------------------------------------------------
      1          6           0        1.152825    4.491782    0.148312
      2          7           0        0.912173    3.111313    0.523489
      3          6           0        2.063210    2.226709    0.353284
      4          6           0        1.434681    0.845519    0.516075
      5          6           0        0.146871    0.995831   -0.335359
      6          6           0       -0.226412    2.494451   -0.178394
      7          6           0       -0.957785    0.005459   -0.032745
      8          6           0       -0.749575   -1.258912    0.550136
      9          8           0        0.463775   -1.741625    1.012723
     10          6           0        1.659876   -1.616793    0.313396
     11          6           0        2.311072   -2.792250   -0.048691
     12          6           0        3.565065   -2.719589   -0.657877
     13          6           0        4.151749   -1.475635   -0.892829
     14          6           0        3.485464   -0.306428   -0.517461
     15          6           0        2.231338   -0.356938    0.098274
     16          6           0       -1.822852   -2.122260    0.790195
     17          6           0       -3.123380   -1.768123    0.451814
     18          6           0       -3.330883   -0.527853   -0.143367
     19         17           0       -4.965573   -0.045258   -0.600118
     20          6           0       -2.274654    0.341974   -0.382682
     21          1           0        0.269029    5.097417    0.370392
     22          1           0        1.386189    4.610762   -0.926094
     23          1           0        1.991290    4.892165    0.726093
     24          1           0        2.528606    2.327776   -0.644665
     25          1           0        2.831482    2.444510    1.101655
     26          1           0        1.142166    0.729047    1.567088
     27          1           0        0.451376    0.841624   -1.376856
     28          1           0       -0.385255    2.951428   -1.166840
     29          1           0       -1.146523    2.637016    0.398729
     30          1           0        1.833299   -3.744440    0.152157
     31          1           0        4.077208   -3.631522   -0.945378
     32          1           0        5.126991   -1.412419   -1.363484
     33          1           0        3.947314    0.658365   -0.696562
     34          1           0       -1.614548   -3.080825    1.250585
     35          1           0       -3.949681   -2.442343    0.639227
     36          1           0       -2.469260    1.302967   -0.842741
 ---------------------------------------------------------------------

 SCF Done:  E(RB3LYP) =  -1247.60089191     A.U. after   10 cycles

 The electronic state is 1-A.
 Alpha  occ. eigenvalues -- -101.55363 -19.19068 -14.32503 -10.26157 -10.25310
 Alpha  occ. eigenvalues --  -10.25119 -10.21378 -10.20838 -10.20767 -10.20592
 Alpha  occ. eigenvalues --  -10.20545 -10.20439 -10.20182 -10.20030 -10.19935
 Alpha  occ. eigenvalues --  -10.19916 -10.19481 -10.19470 -10.19395 -10.19201
 Alpha  occ. eigenvalues --   -9.46983  -7.23366  -7.22418  -7.22391  -1.07778
 Alpha  occ. eigenvalues --   -0.93364  -0.89436  -0.86435  -0.84447  -0.81069
 Alpha  occ. eigenvalues --   -0.77628  -0.76248  -0.74369  -0.71987  -0.71937
 Alpha  occ. eigenvalues --   -0.67528  -0.64435  -0.62576  -0.61871  -0.58403
 Alpha  occ. eigenvalues --   -0.57778  -0.56977  -0.54301  -0.50960  -0.49704
 Alpha  occ. eigenvalues --   -0.49605  -0.47969  -0.47183  -0.46121  -0.45134
 Alpha  occ. eigenvalues --   -0.44672  -0.43952  -0.43479  -0.43015  -0.42263
 Alpha  occ. eigenvalues --   -0.40696  -0.39694  -0.39004  -0.38649  -0.38194
 Alpha  occ. eigenvalues --   -0.37032  -0.36752  -0.36073  -0.35555  -0.34423
 Alpha  occ. eigenvalues --   -0.33929  -0.33336  -0.32674  -0.31672  -0.30738
 Alpha  occ. eigenvalues --   -0.26076  -0.25546  -0.24794  -0.22689  -0.21383
 Alpha virt. eigenvalues --   -0.01908  -0.01109  -0.00666  -0.00014   0.02552
 Alpha virt. eigenvalues --    0.08605   0.09382   0.10981   0.11422   0.12611
 Alpha virt. eigenvalues --    0.12941   0.13819   0.14073   0.14654   0.15705

 Mulliken charges:
               1
     1  C   -0.306867
     2  N   -0.437360
     3  C   -0.118328
     4  C   -0.207903
     5  C   -0.203225
     6  C   -0.114803
     7  C    0.153826
     8  C    0.283203
     9  O   -0.589576
    10  C    0.278681
    11  C   -0.178023
    12  C   -0.159213
    13  C   -0.145206
    14  C   -0.234910
    15  C    0.155539
    16  C   -0.183585
    17  C   -0.149540
    18  C   -0.072674
    19  Cl  -0.050528
    20  C   -0.213002
    21  H    0.159117
    22  H    0.128362
    23  H    0.157462
    24  H    0.126307
    25  H    0.157250
    26  H    0.164402
    27  H    0.175675
    28  H    0.137804
    29  H    0.151027
    30  H    0.156180
    31  H    0.155078
    32  H    0.151745
    33  H    0.156141
    34  H    0.165852
    35  H    0.174613
    36  H    0.176479
 Sum of Mulliken charges =  -0.00000

 Dipole moment (field-independent basis, Debye):
    X=              3.0500    Y=              0.4104    Z=             -1.4818  Tot=              3.4156
 Quadrupole moment (field-independent basis, Debye-Ang):
   XX=           -124.7781   YY=           -109.9936   ZZ=           -126.5475
   XY=              2.8721   XZ=             -5.6463   YZ=             -3.3396

 Normal termination of Gaussian 16 at Tue Mar  1 07:41:07 2022.
