 Gaussian 16, Revision A.03,

 ----------------------------------------------------------------------
 #p b3lyp/6-31G(d) opt=(MaxStep=10,MaxCycles=1000) freq scf=(MaxCycle=2
 000,NoVarAcc,NoIncFock) scrf=(iefpcm,read,solvent=water)
 ----------------------------------------------------------------------

 -------------
 210.n.pdb.xyz
 -------------
 Symbolic Z-matrix:
 Charge =  0 Multiplicity = 1

 SCF Done:  E(RB3LYP) =  -959.698784495     A.U. after   10 cycles
 SCF Done:  E(RB3LYP) =  -959.699636956     A.U. after    9 cycles
 SCF Done:  E(RB3LYP) =  -959.699698888     A.U. after    8 cycles
 SCF Done:  E(RB3LYP) =  -959.699597390     A.U. after    8 cycles
 SCF Done:  E(RB3LYP) =  -959.699699797     A.U. after    7 cycles
 Optimization completed.
    -- Stationary point found.
 Normal termination of Gaussian 16 at Tue Mar  1 04:23:24 2022.

 --------------------------------------------------------------------
 #P Geom=AllCheck Guess=TCheck SCRF=Check GenChk RB3LYP/6-31G(d) Freq
 --------------------------------------------------------------------

 Structure from the checkpoint file:  "210.n.pdb.xyz.mst.wat.chk"
 -------------
 210.n.pdb.xyz
 -------------
 Charge =  0 Multiplicity = 1

 SCF Done:  E(RB3LYP) =  -959.699699797     A.U. after    1 cycles

  Exact polarizability:  51.087   0.010  30.885   0.001  -0.002  23.641
 Approx polarizability:  58.565   0.014  36.408   0.002  -0.003  26.958

                      1                      2                      3
                      A                      A                      A
 Frequencies --    283.2898               695.9680               701.1373
 Red. masses --     19.3177                 7.5194                 8.9796
 Frc consts  --      0.9134                 2.1459                 2.6008
 IR Inten    --      1.3542                31.7806               244.5161

                      4                      5                      6
                      A                      A                      A
 Frequencies --    914.2273              1191.1438              1312.3373
 Red. masses --      1.3449                 1.0181                 1.1014
 Frc consts  --      0.6623                 0.8511                 1.1176
 IR Inten    --      1.6002                 0.0001                68.7709

                      7                      8                      9
                      A                      A                      A
 Frequencies --   1474.7913              3175.5361              3263.4896
 Red. masses --      1.0741                 1.0535                 1.1184
 Frc consts  --      1.3764                 6.2593                 7.0182
 IR Inten    --      0.0091                 5.9257                 0.2650

 - Thermochemistry -
 -------------------
 Temperature   298.150 Kelvin.  Pressure   1.00000 Atm.
 Atom     1 has atomic number 17 and mass  34.96885

 Molecular mass:    83.95336 amu.
 Principal axes and moments of inertia in atomic units:
                           1         2         3
     Eigenvalues --    57.31903 561.11727 606.74910
           X            1.00000   0.00003   0.00000
           Y           -0.00003   1.00000  -0.00001
           Z           -0.00000   0.00001   1.00000
 This molecule is an asymmetric top.
 Rotational symmetry number  1.
 Rotational temperatures (Kelvin)      1.51108     0.15436     0.14275
 Rotational constants (GHZ):          31.48590     3.21634     2.97444
 Zero-point vibrational energy      77828.6 (Joules/Mol)
                                   18.60147 (Kcal/Mol)
 Warning -- explicit consideration of   1 degrees of freedom as
           vibrations may cause significant error
 Vibrational temperatures:    407.59  1001.34  1008.78  1315.37  1713.79
          (Kelvin)           1888.16  2121.90  4568.89  4695.43

 Zero-point correction=                           0.029643 (Hartree/Particle)
 Thermal correction to Energy=                    0.033228
 Thermal correction to Enthalpy=                  0.034173
 Thermal correction to Gibbs Free Energy=         0.002803
 Sum of electronic and zero-point Energies=           -959.670056
 Sum of electronic and thermal Energies=              -959.666471
 Sum of electronic and thermal Enthalpies=            -959.665527
 Sum of electronic and thermal Free Energies=         -959.696896

                     E (Thermal)             CV                S
                      KCal/Mol        Cal/Mol-Kelvin    Cal/Mol-Kelvin
 Total                   20.851             10.246             66.022
 Electronic               0.000              0.000              0.000
 Translational            0.889              2.981             39.197
 Rotational               0.889              2.981             24.482
 Vibrational             19.074              4.284              2.343
 Vibration     1          0.682              1.705              1.514

 Optimization completed.
    -- Stationary point found.
 Normal termination of Gaussian 16 at Tue Mar  1 04:23:41 2022.

 ------------------------------------------
 #p b3lyp/6-31G(d) geom=allcheck guess=read
 ------------------------------------------

 Structure from the checkpoint file:  "210.n.pdb.xyz.mst.wat.chk"
 -------------
 210.n.pdb.xyz
 -------------
 Charge =  0 Multiplicity = 1

 SCF Done:  E(RB3LYP) =  -959.696284154     A.U. after    9 cycles
 Normal termination of Gaussian 16 at Tue Mar  1 04:23:44 2022.
 Gaussian 16:  ES64L-G16RevA.03 25-Dec-2016

 ----------------------------------------------------------------------
 #p b3lyp/6-31G(d) scrf=(iefpcm,read,solvent=water) geom=allcheck guess
 =read
 ----------------------------------------------------------------------

 Structure from the checkpoint file:  "210.n.pdb.xyz.mst.wat.chk"
 -------------
 210.n.pdb.xyz
 -------------
 Charge =  0 Multiplicity = 1

                         Standard orientation:
 ---------------------------------------------------------------------
 Center     Atomic      Atomic             Coordinates (Angstroms)
 Number     Number       Type             X           Y           Z
 ---------------------------------------------------------------------
      1         17           0       -1.491208   -0.219067   -0.000012
      2          6           0        0.000363    0.780425    0.000003
      3         17           0        1.490939   -0.219304   -0.000021
      4          1           0        0.001335    1.384382    0.901289
      5          1           0        0.001062    1.385367   -0.900749
 ---------------------------------------------------------------------

 SCF Done:  E(RB3LYP) =  -959.699652460     A.U. after    9 cycles

 The electronic state is 1-A.
 Alpha  occ. eigenvalues -- -101.55714-101.55713 -10.30546  -9.47395  -9.47394
 Alpha  occ. eigenvalues --   -7.23811  -7.23809  -7.22809  -7.22809  -7.22764
 Alpha  occ. eigenvalues --   -7.22763  -0.90098  -0.82780  -0.66547  -0.49302
 Alpha  occ. eigenvalues --   -0.45866  -0.44477  -0.33281  -0.32899  -0.31347
 Alpha  occ. eigenvalues --   -0.30826
 Alpha virt. eigenvalues --   -0.01282   0.03121   0.11143   0.13534   0.33903
 Alpha virt. eigenvalues --    0.38520   0.41593   0.41830   0.42433   0.45887
 Alpha virt. eigenvalues --    0.46995   0.50727   0.51249   0.52254   0.62229

 Mulliken charges:
               1
     1  Cl  -0.051844
     2  C   -0.434829
     3  Cl  -0.051656
     4  H    0.269178
     5  H    0.269151
 Sum of Mulliken charges =   0.00000

 Dipole moment (field-independent basis, Debye):
    X=              0.0024    Y=              2.3383    Z=              0.0004  Tot=              2.3383
 Quadrupole moment (field-independent basis, Debye-Ang):
   XX=            -34.6595   YY=            -29.1898   ZZ=            -31.0865
   XY=              0.0043   XZ=              0.0005   YZ=             -0.0005

 Normal termination of Gaussian 16 at Tue Mar  1 04:23:49 2022.
