 Gaussian 16, Revision A.03,

 ----------------------------------------------------------------------
 #p b3lyp/6-31G(d) opt=(MaxStep=10,MaxCycles=1000) freq scf=(MaxCycle=2
 000,NoVarAcc,NoIncFock) scrf=(iefpcm,read,solvent=water)
 ----------------------------------------------------------------------

 -------------
 211.n.pdb.xyz
 -------------
 Symbolic Z-matrix:
 Charge =  0 Multiplicity = 1

 SCF Done:  E(RB3LYP) =  -1503.62897699     A.U. after   13 cycles
 SCF Done:  E(RB3LYP) =  -1503.63434964     A.U. after   11 cycles
 SCF Done:  E(RB3LYP) =  -1503.63706230     A.U. after   12 cycles
 SCF Done:  E(RB3LYP) =  -1503.63838415     A.U. after   11 cycles
 SCF Done:  E(RB3LYP) =  -1503.63313879     A.U. after   12 cycles
 SCF Done:  E(RB3LYP) =  -1503.63902111     A.U. after   11 cycles
 SCF Done:  E(RB3LYP) =  -1503.63933445     A.U. after   11 cycles
 SCF Done:  E(RB3LYP) =  -1503.63933123     A.U. after   10 cycles
 SCF Done:  E(RB3LYP) =  -1503.63950174     A.U. after   11 cycles
 SCF Done:  E(RB3LYP) =  -1503.63949043     A.U. after   10 cycles
 SCF Done:  E(RB3LYP) =  -1503.63960187     A.U. after    9 cycles
 SCF Done:  E(RB3LYP) =  -1503.63960916     A.U. after    9 cycles
 SCF Done:  E(RB3LYP) =  -1503.63961098     A.U. after    8 cycles
 SCF Done:  E(RB3LYP) =  -1503.63961093     A.U. after    7 cycles
 SCF Done:  E(RB3LYP) =  -1503.63961099     A.U. after    7 cycles
 SCF Done:  E(RB3LYP) =  -1503.63961093     A.U. after    7 cycles
 SCF Done:  E(RB3LYP) =  -1503.63961109     A.U. after    7 cycles
 Optimization completed.
    -- Stationary point found.
 Normal termination of Gaussian 16 at Tue Mar  1 08:05:06 2022.

 --------------------------------------------------------------------
 #P Geom=AllCheck Guess=TCheck SCRF=Check GenChk RB3LYP/6-31G(d) Freq
 --------------------------------------------------------------------

 Structure from the checkpoint file:  "211.n.pdb.xyz.mst.wat.chk"
 -------------
 211.n.pdb.xyz
 -------------
 Charge =  0 Multiplicity = 1

 SCF Done:  E(RB3LYP) =  -1503.63961109     A.U. after    1 cycles

  Exact polarizability: 401.644   1.058 383.722   0.567  22.550 234.064
 Approx polarizability: 433.351  -3.647 455.873  -1.302  32.499 278.386

                      1                      2                      3
                      A                      A                      A
 Frequencies --     10.3549                11.5129                18.0043
 Red. masses --      6.0281                 6.5751                 4.2162
 Frc consts  --      0.0004                 0.0005                 0.0008
 IR Inten    --      4.9369                 0.0673                 1.9409

                      4                      5                      6
                      A                      A                      A
 Frequencies --     24.6175                29.3072                35.5955
 Red. masses --      5.3944                 3.7878                 5.0865
 Frc consts  --      0.0019                 0.0019                 0.0038
 IR Inten    --      0.5212                 0.6522                 0.8631

                      7                      8                      9
                      A                      A                      A
 Frequencies --     38.7406                59.1306                80.4201
 Red. masses --      4.9654                 5.7121                 7.7064
 Frc consts  --      0.0044                 0.0118                 0.0294
 IR Inten    --      0.9801                 0.2820                 4.5128

                     10                     11                     12
                      A                      A                      A
 Frequencies --     88.2190                90.0195               128.3589
 Red. masses --      6.2625                 5.2268                 2.5929
 Frc consts  --      0.0287                 0.0250                 0.0252
 IR Inten    --      3.0459                 3.6321                 9.9943

                     13                     14                     15
                      A                      A                      A
 Frequencies --    141.0786               148.3199               178.6206
 Red. masses --      4.8663                 8.0119                 4.9219
 Frc consts  --      0.0571                 0.1038                 0.0925
 IR Inten    --      2.8547                 9.8273                 6.8150

                     16                     17                     18
                      A                      A                      A
 Frequencies --    215.2007               230.0053               235.9879
 Red. masses --      4.8393                 4.9845                 5.2194
 Frc consts  --      0.1320                 0.1554                 0.1713
 IR Inten    --      0.1042                 1.5947                 6.4238

                     19                     20                     21
                      A                      A                      A
 Frequencies --    256.1516               298.4194               312.9014
 Red. masses --      5.3226                 4.5405                 2.0086
 Frc consts  --      0.2058                 0.2382                 0.1159
 IR Inten    --      2.2689                 2.4424                 0.8140

                     22                     23                     24
                      A                      A                      A
 Frequencies --    316.8893               332.3266               344.0035
 Red. masses --      6.8733                 2.4392                 7.7051
 Frc consts  --      0.4067                 0.1587                 0.5372
 IR Inten    --      1.7363                 5.6643                 2.2193

                     25                     26                     27
                      A                      A                      A
 Frequencies --    417.4303               418.8344               423.8961
 Red. masses --      3.5507                 2.9757                 4.4981
 Frc consts  --      0.3645                 0.3076                 0.4762
 IR Inten    --      7.4356                 0.0102                47.0421

                     28                     29                     30
                      A                      A                      A
 Frequencies --    464.9307               474.5420               495.0234
 Red. masses --      5.0494                 1.2416                 3.7307
 Frc consts  --      0.6431                 0.1647                 0.5386
 IR Inten    --     22.1574               237.8146                 8.1536

                     31                     32                     33
                      A                      A                      A
 Frequencies --    496.1016               505.4752               563.1268
 Red. masses --      3.6804                 1.2076                 5.5631
 Frc consts  --      0.5337                 0.1818                 1.0394
 IR Inten    --      7.6644                78.3606                 8.2342

                     34                     35                     36
                      A                      A                      A
 Frequencies --    596.9191               607.0483               634.3514
 Red. masses --      5.3820                 2.7537                 6.2923
 Frc consts  --      1.1299                 0.5979                 1.4918
 IR Inten    --      9.4997                 0.8867                 0.1547

                     37                     38                     39
                      A                      A                      A
 Frequencies --    640.7571               677.0018               688.3798
 Red. masses --      6.5345                 4.6707                 6.3686
 Frc consts  --      1.5807                 1.2613                 1.7781
 IR Inten    --      2.3113                 7.9255                 0.8253

                     40                     41                     42
                      A                      A                      A
 Frequencies --    691.6791               703.0380               719.2010
 Red. masses --      5.0782                 4.1274                 1.6520
 Frc consts  --      1.4314                 1.2019                 0.5035
 IR Inten    --      6.5000                27.3597                48.6349

                     43                     44                     45
                      A                      A                      A
 Frequencies --    739.5803               743.4708               754.1875
 Red. masses --      4.5251                 2.3655                 2.7633
 Frc consts  --      1.4583                 0.7704                 0.9260
 IR Inten    --      3.0296                 0.6174                56.9454

                     46                     47                     48
                      A                      A                      A
 Frequencies --    767.3520               782.8041               793.3788
 Red. masses --      1.7132                 2.2821                 1.5715
 Frc consts  --      0.5944                 0.8239                 0.5828
 IR Inten    --     19.1829                13.0659                13.4911

                     49                     50                     51
                      A                      A                      A
 Frequencies --    804.7053               818.5772               838.7450
 Red. masses --      3.9434                 2.5424                 3.8212
 Frc consts  --      1.5045                 1.0037                 1.5839
 IR Inten    --     33.6982                12.0820                 9.9604

                     52                     53                     54
                      A                      A                      A
 Frequencies --    849.3284               854.6254               866.9876
 Red. masses --      3.8165                 5.5473                 1.2506
 Frc consts  --      1.6221                 2.3872                 0.5539
 IR Inten    --      7.0253                21.1436                 0.0292

                     55                     56                     57
                      A                      A                      A
 Frequencies --    907.2442               920.7480               935.1768
 Red. masses --      1.5347                 1.3618                 1.5896
 Frc consts  --      0.7442                 0.6802                 0.8191
 IR Inten    --      0.3878                 1.0084                 1.9866

                     58                     59                     60
                      A                      A                      A
 Frequencies --    940.2400               978.2146               987.4575
 Red. masses --      1.7279                 1.3516                 1.4009
 Frc consts  --      0.9000                 0.7620                 0.8048
 IR Inten    --      1.2554                 0.0035                 0.1237

                     61                     62                     63
                      A                      A                      A
 Frequencies --   1006.5390              1013.0404              1017.4598
 Red. masses --      1.2492                 6.9879                 6.1787
 Frc consts  --      0.7457                 4.2252                 3.7686
 IR Inten    --      0.1836                15.1547                 1.1839

                     64                     65                     66
                      A                      A                      A
 Frequencies --   1022.4105              1029.6182              1053.2698
 Red. masses --      1.3023                 3.9094                 1.6202
 Frc consts  --      0.8020                 2.4418                 1.0590
 IR Inten    --      0.0070                11.3334                14.6873

                     67                     68                     69
                      A                      A                      A
 Frequencies --   1054.9125              1073.3228              1076.6984
 Red. masses --      2.1047                 3.0748                 2.2764
 Frc consts  --      1.3800                 2.0870                 1.5549
 IR Inten    --     10.6855                29.1848                12.4702

                     70                     71                     72
                      A                      A                      A
 Frequencies --   1089.9245              1107.3025              1112.9014
 Red. masses --      2.3906                 1.5418                 1.4698
 Frc consts  --      1.6732                 1.1138                 1.0726
 IR Inten    --    143.9716                10.7772                 4.6498

                     73                     74                     75
                      A                      A                      A
 Frequencies --   1130.7930              1161.9355              1169.6282
 Red. masses --      2.6583                 1.1711                 3.3403
 Frc consts  --      2.0027                 0.9316                 2.6924
 IR Inten    --     66.9053                 9.1418               336.9593

                     76                     77                     78
                      A                      A                      A
 Frequencies --   1181.7409              1185.8403              1202.8482
 Red. masses --      1.1053                 1.0922                 1.1451
 Frc consts  --      0.9094                 0.9049                 0.9761
 IR Inten    --      6.2602                 0.1393                 0.6627

                     79                     80                     81
                      A                      A                      A
 Frequencies --   1203.7615              1230.3814              1233.2409
 Red. masses --      1.1331                 2.2691                 1.1785
 Frc consts  --      0.9674                 2.0238                 1.0560
 IR Inten    --      1.6388                12.8005                43.5267

                     82                     83                     84
                      A                      A                      A
 Frequencies --   1248.1433              1267.0949              1292.0309
 Red. masses --      1.8499                 2.3709                 1.9601
 Frc consts  --      1.6980                 2.2428                 1.9278
 IR Inten    --     18.0001                27.8938                11.9118

                     85                     86                     87
                      A                      A                      A
 Frequencies --   1298.1945              1308.4724              1318.6984
 Red. masses --      1.5955                 1.9551                 3.1809
 Frc consts  --      1.5842                 1.9722                 3.2590
 IR Inten    --      6.4038                25.0512                 3.5839

                     88                     89                     90
                      A                      A                      A
 Frequencies --   1343.5147              1346.7099              1357.2264
 Red. masses --      1.2524                 1.3812                 1.7099
 Frc consts  --      1.3319                 1.4759                 1.8557
 IR Inten    --     20.6925                 1.1785                 0.6648

                     91                     92                     93
                      A                      A                      A
 Frequencies --   1360.0179              1360.4691              1389.6882
 Red. masses --      2.0283                 2.6879                 3.3614
 Frc consts  --      2.2104                 2.9312                 3.8247
 IR Inten    --     82.0753                37.0708               126.0707

                     94                     95                     96
                      A                      A                      A
 Frequencies --   1410.5108              1441.3210              1476.8944
 Red. masses --      3.1385                 1.7662                 2.2546
 Frc consts  --      3.6789                 2.1618                 2.8975
 IR Inten    --    620.0837               172.5539               160.2133

                     97                     98                     99
                      A                      A                      A
 Frequencies --   1478.0390              1479.8960              1484.0739
 Red. masses --      1.9297                 1.9291                 1.8932
 Frc consts  --      2.4838                 2.4893                 2.4568
 IR Inten    --     95.8468               224.4473               526.1735

                    100                    101                    102
                      A                      A                      A
 Frequencies --   1492.1967              1495.0496              1497.1080
 Red. masses --      1.2072                 1.1099                 2.1900
 Frc consts  --      1.5837                 1.4617                 2.8920
 IR Inten    --     10.9144                15.0533                 6.4768

                    103                    104                    105
                      A                      A                      A
 Frequencies --   1521.4824              1540.6628              1543.7972
 Red. masses --      2.2655                 1.1045                 2.2933
 Frc consts  --      3.0900                 1.5447                 3.2202
 IR Inten    --     47.2313                51.6843                14.5033

                    106                    107                    108
                      A                      A                      A
 Frequencies --   1559.4570              1629.8253              1642.6079
 Red. masses --      2.3253                 5.7620                 5.6042
 Frc consts  --      3.3318                 9.0179                 8.9091
 IR Inten    --    212.6013                32.0045                 1.2407

                    109                    110                    111
                      A                      A                      A
 Frequencies --   1646.3973              1648.4235              1664.0134
 Red. masses --      5.4266                 5.3751                 5.7884
 Frc consts  --      8.6665                 8.6055                 9.4432
 IR Inten    --     43.0913                71.2760                26.3319

                    112                    113                    114
                      A                      A                      A
 Frequencies --   1673.9705              3047.6863              3064.7909
 Red. masses --      5.0366                 1.0600                 1.0609
 Frc consts  --      8.3155                 5.8012                 5.8710
 IR Inten    --    935.1790                61.7131                32.5236

                    115                    116                    117
                      A                      A                      A
 Frequencies --   3088.8739              3091.8663              3096.9441
 Red. masses --      1.1012                 1.0600                 1.1017
 Frc consts  --      6.1902                 5.9701                 6.2254
 IR Inten    --     32.9673                36.6713                23.9459

                    118                    119                    120
                      A                      A                      A
 Frequencies --   3099.3828              3145.7904              3160.8210
 Red. masses --      1.0579                 1.1074                 1.1093
 Frc consts  --      5.9875                 6.4570                 6.5300
 IR Inten    --     28.9675                19.5959                11.9770

                    121                    122                    123
                      A                      A                      A
 Frequencies --   3192.0549              3193.1988              3194.8102
 Red. masses --      1.0897                 1.0858                 1.0876
 Frc consts  --      6.5418                 6.5231                 6.5407
 IR Inten    --     45.5075                12.9358                 8.3224

                    124                    125                    126
                      A                      A                      A
 Frequencies --   3204.7201              3212.5217              3218.2915
 Red. masses --      1.0902                 1.0941                 1.0879
 Frc consts  --      6.5967                 6.6528                 6.6387
 IR Inten    --     19.2423                77.1600                 5.8485

                    127                    128                    129
                      A                      A                      A
 Frequencies --   3223.7600              3230.5437              3242.6468
 Red. masses --      1.0979                 1.0932                 1.0975
 Frc consts  --      6.7225                 6.7221                 6.7990
 IR Inten    --     31.8274                27.2943                23.0078

                    130                    131                    132
                      A                      A                      A
 Frequencies --   3317.3380              3526.2005              3635.2247
 Red. masses --      1.0971                 1.0773                 1.0816
 Frc consts  --      7.1134                 7.8925                 8.4210
 IR Inten    --      2.2554               156.4701               215.3392

 - Thermochemistry -
 -------------------
 Temperature   298.150 Kelvin.  Pressure   1.00000 Atm.
 Atom     1 has atomic number  8 and mass  15.99491

 Molecular mass:   368.13070 amu.
 Principal axes and moments of inertia in atomic units:
                           1         2         3
     Eigenvalues --  5221.52667********************
           X            0.99999   0.00337   0.00092
           Y           -0.00337   0.99999   0.00045
           Z           -0.00092  -0.00045   1.00000
 This molecule is an asymmetric top.
 Rotational symmetry number  1.
 Warning -- assumption of classical behavior for rotation
           may cause significant error
 Rotational temperatures (Kelvin)      0.01659     0.00271     0.00240
 Rotational constants (GHZ):           0.34563     0.05648     0.05007
 Zero-point vibrational energy     968291.9 (Joules/Mol)
                                  231.42733 (Kcal/Mol)
 Warning -- explicit consideration of  35 degrees of freedom as
           vibrations may cause significant error
 Vibrational temperatures:     14.90    16.56    25.90    35.42    42.17
          (Kelvin)             51.21    55.74    85.08   115.71   126.93
                              129.52   184.68   202.98   213.40   257.00
                              309.63   330.93   339.53   368.54   429.36
                              450.20   455.93   478.14   494.94   600.59
                              602.61   609.89   668.93   682.76   712.23
                              713.78   727.27   810.21   858.83   873.41
                              912.69   921.91   974.05   990.43   995.17
                             1011.51  1034.77  1064.09  1069.69  1085.11
                             1104.05  1126.28  1141.50  1157.79  1177.75
                             1206.77  1221.99  1229.62  1247.40  1305.32
                             1324.75  1345.51  1352.80  1407.43  1420.73
                             1448.19  1457.54  1463.90  1471.02  1481.39
                             1515.42  1517.78  1544.27  1549.13  1568.16
                             1593.16  1601.22  1626.96  1671.77  1682.83
                             1700.26  1706.16  1730.63  1731.94  1770.24
                             1774.36  1795.80  1823.07  1858.94  1867.81
                             1882.60  1897.31  1933.02  1937.62  1952.75
                             1956.76  1957.41  1999.45  2029.41  2073.74
                             2124.92  2126.57  2129.24  2135.25  2146.94
                             2151.04  2154.00  2189.07  2216.67  2221.18
                             2243.71  2344.96  2363.35  2368.80  2371.71
                             2394.14  2408.47  4384.94  4409.55  4444.20
                             4448.51  4455.81  4459.32  4526.09  4547.72
                             4592.65  4594.30  4596.62  4610.88  4622.10
                             4630.40  4638.27  4648.03  4665.45  4772.91
                             5073.42  5230.28

 Zero-point correction=                           0.368803 (Hartree/Particle)
 Thermal correction to Energy=                    0.392905
 Thermal correction to Enthalpy=                  0.393849
 Thermal correction to Gibbs Free Energy=         0.307648
 Sum of electronic and zero-point Energies=          -1503.270808
 Sum of electronic and thermal Energies=             -1503.246706
 Sum of electronic and thermal Enthalpies=           -1503.245762
 Sum of electronic and thermal Free Energies=        -1503.331963

                     E (Thermal)             CV                S
                      KCal/Mol        Cal/Mol-Kelvin    Cal/Mol-Kelvin
 Total                  246.552             89.746            181.426
 Electronic               0.000              0.000              0.000
 Translational            0.889              2.981             43.603
 Rotational               0.889              2.981             37.040
 Vibrational            244.774             83.784            100.783
 Vibration     1          0.593              1.987              7.942
 Vibration     2          0.593              1.987              7.731
 Vibration     3          0.593              1.986              6.843
 Vibration     4          0.593              1.985              6.222
 Vibration     5          0.593              1.984              5.876
 Vibration     6          0.594              1.982              5.490
 Vibration     7          0.594              1.981              5.322
 Vibration     8          0.596              1.974              4.486
 Vibration     9          0.600              1.962              3.881
 Vibration    10          0.601              1.957              3.699
 Vibration    11          0.602              1.956              3.660
 Vibration    12          0.611              1.925              2.970
 Vibration    13          0.615              1.912              2.789
 Vibration    14          0.618              1.904              2.694
 Vibration    15          0.629              1.869              2.343
 Vibration    16          0.645              1.818              1.999
 Vibration    17          0.652              1.795              1.879
 Vibration    18          0.655              1.786              1.833
 Vibration    19          0.666              1.752              1.688
 Vibration    20          0.692              1.677              1.426
 Vibration    21          0.701              1.649              1.347
 Vibration    22          0.704              1.641              1.326
 Vibration    23          0.714              1.611              1.249
 Vibration    24          0.723              1.587              1.194
 Vibration    25          0.780              1.432              0.901
 Vibration    26          0.782              1.429              0.896
 Vibration    27          0.786              1.418              0.879
 Vibration    28          0.822              1.328              0.752
 Vibration    29          0.831              1.307              0.725
 Vibration    30          0.851              1.261              0.671
 Vibration    31          0.852              1.259              0.668
 Vibration    32          0.861              1.238              0.645
 Vibration    33          0.919              1.111              0.518
 Vibration    34          0.955              1.038              0.455
 Vibration    35          0.966              1.017              0.438

                           ! Non-Optimized Parameters !
 Normal termination of Gaussian 16 at Tue Mar  1 09:13:06 2022.

 ------------------------------------------
 #p b3lyp/6-31G(d) geom=allcheck guess=read
 ------------------------------------------

 Structure from the checkpoint file:  "211.n.pdb.xyz.mst.wat.chk"
 -------------
 211.n.pdb.xyz
 -------------
 Charge =  0 Multiplicity = 1

 SCF Done:  E(RB3LYP) =  -1503.60708801     A.U. after   12 cycles
 Normal termination of Gaussian 16 at Tue Mar  1 09:17:05 2022.
 Gaussian 16:  ES64L-G16RevA.03 25-Dec-2016

 ----------------------------------------------------------------------
 #p b3lyp/6-31G(d) scrf=(iefpcm,read,solvent=water) geom=allcheck guess
 =read
 ----------------------------------------------------------------------

 Structure from the checkpoint file:  "211.n.pdb.xyz.mst.wat.chk"
 -------------
 211.n.pdb.xyz
 -------------
 Charge =  0 Multiplicity = 1

                         Standard orientation:
 ---------------------------------------------------------------------
 Center     Atomic      Atomic             Coordinates (Angstroms)
 Number     Number       Type             X           Y           Z
 ---------------------------------------------------------------------
      1          8           0       -3.671062    3.299711    0.512044
      2          7           0       -2.512885    2.869850    0.303736
      3          8           0       -1.524442    3.656447    0.275089
      4          6           0       -2.306099    1.523825    0.103028
      5          6           0       -1.023109    0.951536   -0.143819
      6          7           0        0.177369    1.553539   -0.193384
      7          6           0        1.409066    0.880827   -0.584466
      8          6           0        2.584847    1.841491   -0.444922
      9         16           0        4.186576    1.083783   -0.880458
     10          6           0        4.464639    0.008807    0.598422
     11          6           0        5.749483   -0.757684    0.426209
     12          7           0        6.883673   -0.112668    0.753781
     13          6           0        8.042432   -0.767386    0.599754
     14          6           0        8.135939   -2.073384    0.119526
     15          6           0        6.957657   -2.735854   -0.219515
     16          6           0        5.745110   -2.067444   -0.065494
     17          7           0       -1.229102   -0.376713   -0.305025
     18          6           0       -2.590145   -0.678810   -0.169932
     19          6           0       -3.291776    0.459993    0.081601
     20          6           0       -4.778378    0.586931    0.297725
     21          6           0       -5.521954   -0.723027    0.150724
     22          6           0       -5.973783   -1.154763   -1.103373
     23          6           0       -6.653277   -2.366052   -1.241973
     24          6           0       -6.891799   -3.167453   -0.122914
     25          6           0       -6.446307   -2.747777    1.131650
     26          6           0       -5.767354   -1.535679    1.264538
     27          1           0        0.135511    2.569818   -0.172675
     28          1           0        1.348484    0.517314   -1.617761
     29          1           0        1.567351    0.012674    0.064188
     30          1           0        2.638747    2.240217    0.571456
     31          1           0        2.468848    2.687124   -1.127344
     32          1           0        4.523706    0.649919    1.480393
     33          1           0        3.619258   -0.672991    0.700880
     34          1           0        8.939888   -0.220436    0.877265
     35          1           0        9.102701   -2.551404    0.018726
     36          1           0        6.980594   -3.753086   -0.594597
     37          1           0        4.806611   -2.548948   -0.316474
     38          1           0       -0.514127   -1.062200   -0.513318
     39          1           0       -2.925270   -1.697429   -0.270829
     40          1           0       -5.179267    1.324485   -0.404712
     41          1           0       -4.962256    1.003540    1.293894
     42          1           0       -5.795292   -0.533413   -1.976385
     43          1           0       -6.999718   -2.681032   -2.221228
     44          1           0       -7.422959   -4.107971   -0.227405
     45          1           0       -6.630656   -3.361100    2.007821
     46          1           0       -5.427881   -1.211499    2.244000
 ---------------------------------------------------------------------

 SCF Done:  E(RB3LYP) =  -1503.63635433     A.U. after   12 cycles

 The electronic state is 1-A.
 Alpha  occ. eigenvalues --  -88.88148 -19.15472 -19.15312 -14.54878 -14.38951
 Alpha  occ. eigenvalues --  -14.37101 -14.33840 -10.28644 -10.23934 -10.23649
 Alpha  occ. eigenvalues --  -10.22729 -10.22434 -10.22434 -10.22119 -10.21507
 Alpha  occ. eigenvalues --  -10.21026 -10.20197 -10.20038 -10.19899 -10.19685
 Alpha  occ. eigenvalues --  -10.19362 -10.18986 -10.18966 -10.18866 -10.18805
 Alpha  occ. eigenvalues --  -10.18802  -7.94256  -5.90782  -5.90406  -5.89706
 Alpha  occ. eigenvalues --   -1.18985  -1.01529  -1.00786  -0.94920  -0.93738
 Alpha  occ. eigenvalues --   -0.85743  -0.83492  -0.82338  -0.80613  -0.79262
 Alpha  occ. eigenvalues --   -0.78151  -0.74558  -0.74338  -0.73347  -0.69654
 Alpha  occ. eigenvalues --   -0.68780  -0.66836  -0.63528  -0.62222  -0.60400
 Alpha  occ. eigenvalues --   -0.59663  -0.59422  -0.57608  -0.56023  -0.55545
 Alpha  occ. eigenvalues --   -0.51909  -0.51283  -0.51163  -0.50854  -0.49560
 Alpha  occ. eigenvalues --   -0.49353  -0.49095  -0.48230  -0.46867  -0.46140
 Alpha  occ. eigenvalues --   -0.46039  -0.45380  -0.43619  -0.43403  -0.42628
 Alpha  occ. eigenvalues --   -0.42265  -0.41833  -0.41491  -0.40669  -0.40217
 Alpha  occ. eigenvalues --   -0.39673  -0.39323  -0.38822  -0.38495  -0.37659
 Alpha  occ. eigenvalues --   -0.35805  -0.35740  -0.33872  -0.33690  -0.32271
 Alpha  occ. eigenvalues --   -0.30635  -0.29733  -0.29129  -0.29000  -0.27185
 Alpha  occ. eigenvalues --   -0.26767  -0.26074  -0.26056  -0.25159  -0.24535
 Alpha  occ. eigenvalues --   -0.23485  -0.19686
 Alpha virt. eigenvalues --   -0.05932  -0.03280  -0.01895  -0.00271  -0.00208
 Alpha virt. eigenvalues --    0.03006   0.04677   0.07566   0.08489   0.08910
 Alpha virt. eigenvalues --    0.09627   0.09739   0.10465   0.11488   0.12379

 Mulliken charges:
               1
     1  O   -0.509168
     2  N    0.288551
     3  O   -0.529273
     4  C    0.196443
     5  C    0.634187
     6  N   -0.679014
     7  C   -0.111005
     8  C   -0.460719
     9  S    0.063645
    10  C   -0.479768
    11  C    0.288091
    12  N   -0.503894
    13  C    0.030461
    14  C   -0.148308
    15  C   -0.109061
    16  C   -0.164199
    17  N   -0.674389
    18  C   -0.033385
    19  C    0.123935
    20  C   -0.409884
    21  C    0.141558
    22  C   -0.189491
    23  C   -0.150672
    24  C   -0.151192
    25  C   -0.149814
    26  C   -0.192279
    27  H    0.385602
    28  H    0.181407
    29  H    0.179275
    30  H    0.201783
    31  H    0.208759
    32  H    0.201459
    33  H    0.202254
    34  H    0.161369
    35  H    0.165296
    36  H    0.172142
    37  H    0.164474
    38  H    0.404726
    39  H    0.179920
    40  H    0.169354
    41  H    0.167458
    42  H    0.144703
    43  H    0.148376
    44  H    0.147725
    45  H    0.148264
    46  H    0.144303
 Sum of Mulliken charges =  -0.00000

 Dipole moment (field-independent basis, Debye):
    X=              5.3517    Y=            -11.1321    Z=             -1.5825  Tot=             12.4526
 Quadrupole moment (field-independent basis, Debye-Ang):
   XX=           -167.3969   YY=           -169.6619   ZZ=           -155.6049
   XY=              3.8072   XZ=              5.0423   YZ=             -2.7960

 Normal termination of Gaussian 16 at Tue Mar  1 09:22:19 2022.
