 Gaussian 16, Revision A.03,

 ----------------------------------------------------------------------
 #p b3lyp/6-31G(d) opt=(MaxStep=10,MaxCycles=1000) freq scf=(MaxCycle=2
 000,NoVarAcc,NoIncFock) scrf=(iefpcm,read,solvent=water)
 ----------------------------------------------------------------------

 -------------
 212.n.pdb.xyz
 -------------
 Symbolic Z-matrix:
 Charge =  0 Multiplicity = 1

 SCF Done:  E(RB3LYP) =  -731.685842219     A.U. after   12 cycles
 SCF Done:  E(RB3LYP) =  -731.687818187     A.U. after   10 cycles
 SCF Done:  E(RB3LYP) =  -731.685220698     A.U. after   10 cycles
 SCF Done:  E(RB3LYP) =  -731.687929851     A.U. after   10 cycles
 SCF Done:  E(RB3LYP) =  -731.687905633     A.U. after   10 cycles
 SCF Done:  E(RB3LYP) =  -731.688072167     A.U. after   10 cycles
 SCF Done:  E(RB3LYP) =  -731.687846053     A.U. after   10 cycles
 SCF Done:  E(RB3LYP) =  -731.687943278     A.U. after    9 cycles
 SCF Done:  E(RB3LYP) =  -731.687974943     A.U. after    8 cycles
 SCF Done:  E(RB3LYP) =  -731.687887948     A.U. after    9 cycles
 SCF Done:  E(RB3LYP) =  -731.687934103     A.U. after    8 cycles
 SCF Done:  E(RB3LYP) =  -731.687943205     A.U. after    8 cycles
 Optimization completed.
    -- Stationary point found.
 Normal termination of Gaussian 16 at Tue Mar  1 16:05:36 2022.

 --------------------------------------------------------------------
 #P Geom=AllCheck Guess=TCheck SCRF=Check GenChk RB3LYP/6-31G(d) Freq
 --------------------------------------------------------------------

 Structure from the checkpoint file:  "212.n.pdb.xyz.mst.wat.chk"
 -------------
 212.n.pdb.xyz
 -------------
 Charge =  0 Multiplicity = 1

 SCF Done:  E(RB3LYP) =  -731.687943205     A.U. after    1 cycles

  Exact polarizability: 266.250   0.267 186.407 -37.979  -0.203 199.643
 Approx polarizability: 286.156   0.352 214.186 -43.994  -0.271 236.148

                      1                      2                      3
                      A                      A                      A
 Frequencies --     36.0683                42.2146                49.8395
 Red. masses --      4.1388                 4.2172                 4.6650
 Frc consts  --      0.0032                 0.0044                 0.0068
 IR Inten    --      1.3378                 1.1116                 0.5615

                      4                      5                      6
                      A                      A                      A
 Frequencies --    103.0748               161.2048               180.3733
 Red. masses --      4.4960                 5.6259                 4.2580
 Frc consts  --      0.0281                 0.0861                 0.0816
 IR Inten    --      0.5541                 0.0556                 0.5507

                      7                      8                      9
                      A                      A                      A
 Frequencies --    227.3250               276.9782               280.0901
 Red. masses --      3.3591                 3.4068                 4.0622
 Frc consts  --      0.1023                 0.1540                 0.1878
 IR Inten    --      0.3566                 0.4965                 0.9518

                     10                     11                     12
                      A                      A                      A
 Frequencies --    309.5519               319.9886               331.9425
 Red. masses --      1.2460                 1.3496                 2.1000
 Frc consts  --      0.0703                 0.0814                 0.1363
 IR Inten    --      0.2753                 0.1670                 0.7268

                     13                     14                     15
                      A                      A                      A
 Frequencies --    347.3639               370.8072               384.9329
 Red. masses --      2.3157                 4.1263                 1.1031
 Frc consts  --      0.1646                 0.3343                 0.0963
 IR Inten    --      0.8954                 0.1890               202.9195

                     16                     17                     18
                      A                      A                      A
 Frequencies --    391.4820               413.3898               423.7698
 Red. masses --      1.0850                 4.0121                 3.1948
 Frc consts  --      0.0980                 0.4040                 0.3380
 IR Inten    --    204.6896                13.1497                 2.0706

                     19                     20                     21
                      A                      A                      A
 Frequencies --    425.0586               438.6281               480.9400
 Red. masses --      3.1994                 4.0155                 3.6241
 Frc consts  --      0.3406                 0.4552                 0.4939
 IR Inten    --      1.9529                11.6296                 1.9959

                     22                     23                     24
                      A                      A                      A
 Frequencies --    487.9029               536.8392               562.4398
 Red. masses --      3.5849                 4.0627                 2.5592
 Frc consts  --      0.5028                 0.6899                 0.4770
 IR Inten    --      0.0571                 6.0612                28.8778

                     25                     26                     27
                      A                      A                      A
 Frequencies --    577.0563               647.1996               655.8705
 Red. masses --      2.4791                 5.3573                 7.0512
 Frc consts  --      0.4864                 1.3221                 1.7871
 IR Inten    --     27.7172                 1.8418                 1.4190

                     28                     29                     30
                      A                      A                      A
 Frequencies --    656.6807               732.2963               747.1882
 Red. masses --      6.8091                 4.5786                 4.5434
 Frc consts  --      1.7300                 1.4466                 1.4945
 IR Inten    --      1.0086                 6.4022                 7.9354

                     31                     32                     33
                      A                      A                      A
 Frequencies --    767.0098               829.8260               830.0530
 Red. masses --      2.8711                 1.2774                 1.2766
 Frc consts  --      0.9952                 0.5183                 0.5182
 IR Inten    --      9.3384                 7.7055                10.7479

                     34                     35                     36
                      A                      A                      A
 Frequencies --    844.3719               844.9097               849.2192
 Red. masses --      1.9841                 1.8247                 3.4124
 Frc consts  --      0.8334                 0.7675                 1.4499
 IR Inten    --     28.5612                54.6537                55.2709

                     37                     38                     39
                      A                      A                      A
 Frequencies --    857.0921               930.3896               952.2894
 Red. masses --      4.8803                 2.0150                 1.3336
 Frc consts  --      2.1123                 1.0277                 0.7125
 IR Inten    --     11.9950                 2.0469                 0.2231

                     40                     41                     42
                      A                      A                      A
 Frequencies --    956.4417               960.0500               963.8626
 Red. masses --      1.4293                 1.3808                 1.3478
 Frc consts  --      0.7703                 0.7498                 0.7377
 IR Inten    --      2.5959                 1.5547                 0.4699

                     43                     44                     45
                      A                      A                      A
 Frequencies --    964.9816              1031.0632              1032.8756
 Red. masses --      1.3460                 2.7905                 2.6799
 Frc consts  --      0.7385                 1.7478                 1.6845
 IR Inten    --      0.2444                 8.1026                 4.3957

                     46                     47                     48
                      A                      A                      A
 Frequencies --   1044.7696              1115.4281              1130.3243
 Red. masses --      1.3838                 2.0572                 1.7389
 Frc consts  --      0.8899                 1.5081                 1.3090
 IR Inten    --      2.6326                25.2051                21.9406

                     49                     50                     51
                      A                      A                      A
 Frequencies --   1137.2123              1142.9021              1177.9495
 Red. masses --      2.1903                 1.3694                 1.9749
 Frc consts  --      1.6689                 1.0539                 1.6145
 IR Inten    --      1.1853                 0.3660                14.2352

                     52                     53                     54
                      A                      A                      A
 Frequencies --   1211.1340              1213.2403              1220.6679
 Red. masses --      1.5135                 1.5356                 1.2052
 Frc consts  --      1.3080                 1.3318                 1.0580
 IR Inten    --    318.7378               323.4728                57.7758

                     55                     56                     57
                      A                      A                      A
 Frequencies --   1224.6727              1262.6097              1271.0364
 Red. masses --      1.2084                 3.3234                 2.9486
 Frc consts  --      1.0678                 3.1215                 2.8066
 IR Inten    --     65.4199                12.3861                 6.0865

                     58                     59                     60
                      A                      A                      A
 Frequencies --   1308.2488              1308.7195              1346.4908
 Red. masses --      3.2590                 3.1831                 2.1981
 Frc consts  --      3.2863                 3.2122                 2.3480
 IR Inten    --    177.8962                89.3197                 6.8858

                     61                     62                     63
                      A                      A                      A
 Frequencies --   1350.7103              1384.7644              1386.9274
 Red. masses --      2.5183                 1.9833                 1.8283
 Frc consts  --      2.7069                 2.2408                 2.0721
 IR Inten    --     23.6100                84.4200                69.5783

                     64                     65                     66
                      A                      A                      A
 Frequencies --   1422.9026              1438.1907              1478.6886
 Red. masses --      1.2242                 1.2239                 2.5495
 Frc consts  --      1.4604                 1.4915                 3.2845
 IR Inten    --     19.1152                 4.5255                26.7705

                     67                     68                     69
                      A                      A                      A
 Frequencies --   1479.7450              1515.0171              1520.5020
 Red. masses --      2.5438                 1.0648                 1.0667
 Frc consts  --      3.2818                 1.4399                 1.4530
 IR Inten    --     57.1551                 1.5905                 3.2205

                     70                     71                     72
                      A                      A                      A
 Frequencies --   1527.8749              1531.4879              1563.5424
 Red. masses --      1.0559                 1.0615                 2.3620
 Frc consts  --      1.4523                 1.4668                 3.4022
 IR Inten    --     14.8457                 6.9999               190.9795

                     73                     74                     75
                      A                      A                      A
 Frequencies --   1566.3793              1641.8790              1642.8739
 Red. masses --      2.3739                 5.7967                 5.8597
 Frc consts  --      3.4317                 9.2070                 9.3183
 IR Inten    --     86.7048                41.3548                41.5982

                     76                     77                     78
                      A                      A                      A
 Frequencies --   1670.1295              1672.2946              3061.4149
 Red. masses --      5.7019                 5.7263                 1.0353
 Frc consts  --      9.3707                 9.4352                 5.7171
 IR Inten    --    100.6153                35.5057                38.5194

                     79                     80                     81
                      A                      A                      A
 Frequencies --   3067.0158              3129.6910              3134.0774
 Red. masses --      1.0360                 1.1014                 1.1018
 Frc consts  --      5.7417                 6.3563                 6.3763
 IR Inten    --     44.2087                14.9413               106.2291

                     82                     83                     84
                      A                      A                      A
 Frequencies --   3141.6684              3144.2980              3196.8383
 Red. masses --      1.1028                 1.1029                 1.0890
 Frc consts  --      6.4133                 6.4244                 6.5574
 IR Inten    --     50.2269                50.8685                46.8465

                     85                     86                     87
                      A                      A                      A
 Frequencies --   3197.4959              3198.4537              3199.0905
 Red. masses --      1.0888                 1.0885                 1.0885
 Frc consts  --      6.5585                 6.5607                 6.5633
 IR Inten    --     41.4566                 0.8344                 0.4933

                     88                     89                     90
                      A                      A                      A
 Frequencies --   3219.0629              3219.9966              3234.9791
 Red. masses --      1.0936                 1.0935                 1.0904
 Frc consts  --      6.6769                 6.6801                 6.7230
 IR Inten    --     28.7589                28.4456                19.5945

                     91                     92                     93
                      A                      A                      A
 Frequencies --   3236.3043              3704.5837              3713.5400
 Red. masses --      1.0904                 1.0663                 1.0663
 Frc consts  --      6.7289                 8.6220                 8.6639
 IR Inten    --     17.2503               190.7636               186.1110

 - Thermochemistry -
 -------------------
 Temperature   298.150 Kelvin.  Pressure   1.00000 Atm.
 Atom     1 has atomic number  6 and mass  12.00000

 Molecular mass:   228.11503 amu.
 Principal axes and moments of inertia in atomic units:
                           1         2         3
     Eigenvalues --  2123.766606954.141317775.23628
           X            0.99996   0.00010  -0.00848
           Y           -0.00010   1.00000  -0.00014
           Z            0.00848   0.00014   0.99996
 This molecule is an asymmetric top.
 Rotational symmetry number  1.
 Warning -- assumption of classical behavior for rotation
           may cause significant error
 Rotational temperatures (Kelvin)      0.04078     0.01246     0.01114
 Rotational constants (GHZ):           0.84978     0.25952     0.23211
 Zero-point vibrational energy     723266.8 (Joules/Mol)
                                  172.86490 (Kcal/Mol)
 Warning -- explicit consideration of  25 degrees of freedom as
           vibrations may cause significant error
 Vibrational temperatures:     51.89    60.74    71.71   148.30   231.94
          (Kelvin)            259.52   327.07   398.51   402.99   445.38
                              460.39   477.59   499.78   533.51   553.83
                              563.26   594.78   609.71   611.56   631.09
                              691.97   701.98   772.39   809.23   830.26
                              931.18   943.65   944.82  1053.61  1075.04
                             1103.56  1193.93  1194.26  1214.86  1215.64
                             1221.84  1233.16  1338.62  1370.13  1376.11
                             1381.30  1386.78  1388.39  1483.47  1486.08
                             1503.19  1604.85  1626.28  1636.19  1644.38
                             1694.81  1742.55  1745.58  1756.27  1762.03
                             1816.61  1828.74  1882.28  1882.96  1937.30
                             1943.37  1992.37  1995.48  2047.24  2069.24
                             2127.50  2129.02  2179.77  2187.66  2198.27
                             2203.47  2249.59  2253.67  2362.30  2363.73
                             2402.94  2406.06  4404.69  4412.75  4502.93
                             4509.24  4520.16  4523.94  4599.54  4600.48
                             4601.86  4602.78  4631.51  4632.86  4654.41
                             4656.32  5330.07  5342.96

 Zero-point correction=                           0.275478 (Hartree/Particle)
 Thermal correction to Energy=                    0.290673
 Thermal correction to Enthalpy=                  0.291618
 Thermal correction to Gibbs Free Energy=         0.233069
 Sum of electronic and zero-point Energies=           -731.412465
 Sum of electronic and thermal Energies=              -731.397270
 Sum of electronic and thermal Enthalpies=            -731.396326
 Sum of electronic and thermal Free Energies=         -731.454874

                     E (Thermal)             CV                S
                      KCal/Mol        Cal/Mol-Kelvin    Cal/Mol-Kelvin
 Total                  182.400             61.530            123.225
 Electronic               0.000              0.000              0.000
 Translational            0.889              2.981             42.176
 Rotational               0.889              2.981             33.107
 Vibrational            180.623             55.568             47.943
 Vibration     1          0.594              1.982              5.464
 Vibration     2          0.595              1.980              5.152
 Vibration     3          0.595              1.978              4.824
 Vibration     4          0.605              1.947              3.395
 Vibration     5          0.622              1.890              2.536
 Vibration     6          0.629              1.866              2.325
 Vibration     7          0.651              1.799              1.900
 Vibration     8          0.678              1.716              1.552
 Vibration     9          0.680              1.710              1.533
 Vibration    10          0.699              1.656              1.365
 Vibration    11          0.706              1.635              1.310
 Vibration    12          0.714              1.612              1.251
 Vibration    13          0.725              1.581              1.178
 Vibration    14          0.743              1.532              1.076
 Vibration    15          0.754              1.502              1.020
 Vibration    16          0.759              1.488              0.994
 Vibration    17          0.777              1.441              0.915
 Vibration    18          0.786              1.419              0.879
 Vibration    19          0.787              1.416              0.875
 Vibration    20          0.799              1.386              0.831
 Vibration    21          0.837              1.292              0.708
 Vibration    22          0.844              1.277              0.689
 Vibration    23          0.892              1.169              0.572
 Vibration    24          0.918              1.113              0.519
 Vibration    25          0.934              1.081              0.491

                           ! Non-Optimized Parameters !
 Normal termination of Gaussian 16 at Tue Mar  1 16:39:12 2022.

 ------------------------------------------
 #p b3lyp/6-31G(d) geom=allcheck guess=read
 ------------------------------------------

 Structure from the checkpoint file:  "212.n.pdb.xyz.mst.wat.chk"
 -------------
 212.n.pdb.xyz
 -------------
 Charge =  0 Multiplicity = 1

 SCF Done:  E(RB3LYP) =  -731.666934903     A.U. after   11 cycles
 Normal termination of Gaussian 16 at Tue Mar  1 16:41:40 2022.
 Gaussian 16:  ES64L-G16RevA.03 25-Dec-2016

 ----------------------------------------------------------------------
 #p b3lyp/6-31G(d) scrf=(iefpcm,read,solvent=water) geom=allcheck guess
 =read
 ----------------------------------------------------------------------

 Structure from the checkpoint file:  "212.n.pdb.xyz.mst.wat.chk"
 -------------
 212.n.pdb.xyz
 -------------
 Charge =  0 Multiplicity = 1

                         Standard orientation:
 ---------------------------------------------------------------------
 Center     Atomic      Atomic             Coordinates (Angstroms)
 Number     Number       Type             X           Y           Z
 ---------------------------------------------------------------------
      1          6           0       -0.044835    2.380227   -1.241401
      2          6           0        0.000911    1.466350    0.001869
      3          6           0        0.052972    2.374138    1.249119
      4          6           0        1.255552    0.575742    0.007510
      5          6           0        2.251387    0.652565   -0.971223
      6          6           0        3.395046   -0.150378   -0.923516
      7          6           0        3.566434   -1.057006    0.124615
      8          8           0        4.656477   -1.870014    0.242448
      9          6           0        2.579515   -1.153344    1.115071
     10          6           0        1.448692   -0.348675    1.048304
     11          6           0       -1.256386    0.578948   -0.006541
     12          6           0       -1.454916   -0.336502   -1.055009
     13          6           0       -2.586536   -1.140181   -1.123925
     14          6           0       -3.569037   -1.052826   -0.127930
     15          8           0       -4.660166   -1.864432   -0.248288
     16          6           0       -3.391295   -0.156897    0.928434
     17          6           0       -2.246930    0.645158    0.978496
     18          1           0        0.822851    3.046635   -1.272714
     19          1           0       -0.946707    2.998067   -1.210484
     20          1           0       -0.062858    1.801917   -2.168982
     21          1           0        0.964419    2.977897    1.225151
     22          1           0        0.059339    1.790427    2.173109
     23          1           0       -0.804209    3.055286    1.280558
     24          1           0        2.145404    1.348134   -1.794552
     25          1           0        4.147744   -0.068614   -1.702553
     26          1           0        5.264759   -1.708199   -0.500082
     27          1           0        2.713763   -1.861730    1.925762
     28          1           0        0.693187   -0.443049    1.822249
     29          1           0       -0.702751   -0.425391   -1.833217
     30          1           0       -2.724686   -1.841033   -1.940546
     31          1           0       -5.267512   -1.705845    0.496348
     32          1           0       -4.139396   -0.083075    1.712755
     33          1           0       -2.137276    1.330221    1.810677
 ---------------------------------------------------------------------

 SCF Done:  E(RB3LYP) =  -731.686771749     A.U. after   10 cycles

 The electronic state is 1-A.
 Alpha  occ. eigenvalues --  -19.17322 -19.17322 -10.24741 -10.24734 -10.20618
 Alpha  occ. eigenvalues --  -10.18831 -10.18813 -10.18775 -10.18759 -10.18749
 Alpha  occ. eigenvalues --  -10.18732 -10.18580 -10.18576 -10.18458 -10.18449
 Alpha  occ. eigenvalues --  -10.17273 -10.17272  -1.05286  -1.05262  -0.86368
 Alpha  occ. eigenvalues --   -0.84505  -0.80422  -0.74729  -0.74523  -0.73067
 Alpha  occ. eigenvalues --   -0.71745  -0.68580  -0.62572  -0.62013  -0.61514
 Alpha  occ. eigenvalues --   -0.59225  -0.55343  -0.53931  -0.53901  -0.49916
 Alpha  occ. eigenvalues --   -0.46967  -0.46207  -0.45704  -0.44467  -0.44331
 Alpha  occ. eigenvalues --   -0.42097  -0.41900  -0.40791  -0.40663  -0.40443
 Alpha  occ. eigenvalues --   -0.40121  -0.39344  -0.38394  -0.37368  -0.37210
 Alpha  occ. eigenvalues --   -0.35330  -0.34791  -0.33681  -0.33283  -0.31929
 Alpha  occ. eigenvalues --   -0.31830  -0.31457  -0.25259  -0.25153  -0.22378
 Alpha  occ. eigenvalues --   -0.20887
 Alpha virt. eigenvalues --   -0.00482  -0.00228   0.00872   0.02068   0.09346
 Alpha virt. eigenvalues --    0.09828   0.09891   0.10953   0.12667   0.13191
 Alpha virt. eigenvalues --    0.14479   0.14500   0.15804   0.15819   0.15992

 Mulliken charges:
               1
     1  C   -0.467961
     2  C   -0.054529
     3  C   -0.467151
     4  C    0.166687
     5  C   -0.224215
     6  C   -0.215684
     7  C    0.343959
     8  O   -0.682253
     9  C   -0.188917
    10  C   -0.208572
    11  C    0.166147
    12  C   -0.208706
    13  C   -0.188853
    14  C    0.344109
    15  O   -0.682364
    16  C   -0.215485
    17  C   -0.224451
    18  H    0.152038
    19  H    0.151605
    20  H    0.155705
    21  H    0.151597
    22  H    0.155683
    23  H    0.151544
    24  H    0.146132
    25  H    0.150585
    26  H    0.459170
    27  H    0.144762
    28  H    0.144148
    29  H    0.144307
    30  H    0.144815
    31  H    0.459320
    32  H    0.150615
    33  H    0.146211
 Sum of Mulliken charges =  -0.00000

 Dipole moment (field-independent basis, Debye):
    X=              0.0020    Y=              1.5380    Z=              0.0100  Tot=              1.5380
 Quadrupole moment (field-independent basis, Debye-Ang):
   XX=            -78.2237   YY=           -102.7295   ZZ=            -93.6507
   XY=              0.0849   XZ=            -20.3065   YZ=             -0.0339

 Normal termination of Gaussian 16 at Tue Mar  1 16:44:23 2022.
