 Gaussian 16, Revision A.03,

 ----------------------------------------------------------------------
 #p b3lyp/6-31G(d) opt=(MaxStep=10,MaxCycles=1000) freq scf=(MaxCycle=2
 000,NoVarAcc,NoIncFock) scrf=(iefpcm,read,solvent=water)
 ----------------------------------------------------------------------

 -------------
 213.n.pdb.xyz
 -------------
 Symbolic Z-matrix:
 Charge =  0 Multiplicity = 1

 SCF Done:  E(RB3LYP) =  -613.354440750     A.U. after   13 cycles
 SCF Done:  E(RB3LYP) =  -613.359041008     A.U. after   10 cycles
 SCF Done:  E(RB3LYP) =  -613.359895762     A.U. after   10 cycles
 SCF Done:  E(RB3LYP) =  -613.360483527     A.U. after   10 cycles
 SCF Done:  E(RB3LYP) =  -613.360575583     A.U. after    9 cycles
 SCF Done:  E(RB3LYP) =  -613.360718974     A.U. after   10 cycles
 SCF Done:  E(RB3LYP) =  -613.356744165     A.U. after   12 cycles
 SCF Done:  E(RB3LYP) =  -613.360911680     A.U. after   10 cycles
 SCF Done:  E(RB3LYP) =  -613.360973000     A.U. after    9 cycles
 SCF Done:  E(RB3LYP) =  -613.361055529     A.U. after    9 cycles
 SCF Done:  E(RB3LYP) =  -613.361095500     A.U. after    8 cycles
 SCF Done:  E(RB3LYP) =  -613.361094120     A.U. after    7 cycles
 SCF Done:  E(RB3LYP) =  -613.361097644     A.U. after    8 cycles
 SCF Done:  E(RB3LYP) =  -613.361094356     A.U. after    8 cycles
 SCF Done:  E(RB3LYP) =  -613.361094602     A.U. after    7 cycles
 SCF Done:  E(RB3LYP) =  -613.361097755     A.U. after    8 cycles
 SCF Done:  E(RB3LYP) =  -613.361094340     A.U. after    8 cycles
 Optimization completed.
    -- Stationary point found.
 Normal termination of Gaussian 16 at Tue Mar  1 18:09:42 2022.

 --------------------------------------------------------------------
 #P Geom=AllCheck Guess=TCheck SCRF=Check GenChk RB3LYP/6-31G(d) Freq
 --------------------------------------------------------------------

 Structure from the checkpoint file:  "213.n.pdb.xyz.mst.wat.chk"
 -------------
 213.n.pdb.xyz
 -------------
 Charge =  0 Multiplicity = 1

 SCF Done:  E(RB3LYP) =  -613.361094340     A.U. after    1 cycles

  Exact polarizability: 304.215  -3.374 240.607   1.599   3.931  96.314
 Approx polarizability: 321.829   0.023 283.765   2.279   6.604 111.493

                      1                      2                      3
                      A                      A                      A
 Frequencies --     64.8137                98.2595               127.3352
 Red. masses --      3.3206                 3.0454                 2.8105
 Frc consts  --      0.0082                 0.0173                 0.0268
 IR Inten    --      0.1956                 0.3961                 1.6478

                      4                      5                      6
                      A                      A                      A
 Frequencies --    168.0873               237.4784               285.9596
 Red. masses --      3.4278                 4.2846                 2.6668
 Frc consts  --      0.0571                 0.1424                 0.1285
 IR Inten    --      8.3280                 1.7114                 1.3609

                      7                      8                      9
                      A                      A                      A
 Frequencies --    306.8211               320.7983               342.7909
 Red. masses --      2.5191                 2.6724                 3.8237
 Frc consts  --      0.1397                 0.1620                 0.2647
 IR Inten    --      6.4712                 0.3813                 1.7619

                     10                     11                     12
                      A                      A                      A
 Frequencies --    381.5482               383.7772               435.6025
 Red. masses --      3.2207                 1.3354                 3.8721
 Frc consts  --      0.2762                 0.1159                 0.4329
 IR Inten    --     10.1811                35.3239                 5.9332

                     13                     14                     15
                      A                      A                      A
 Frequencies --    467.1068               486.9546               502.1409
 Red. masses --      2.2312                 2.2110                 1.9749
 Frc consts  --      0.2868                 0.3089                 0.2934
 IR Inten    --    102.3571               276.0217               218.0437

                     16                     17                     18
                      A                      A                      A
 Frequencies --    513.2783               547.7706               569.2485
 Red. masses --      2.8619                 3.8061                 4.3288
 Frc consts  --      0.4442                 0.6729                 0.8265
 IR Inten    --     77.1769                14.2922                18.3038

                     19                     20                     21
                      A                      A                      A
 Frequencies --    606.1710               636.2570               662.6050
 Red. masses --      3.7817                 4.7465                 4.2119
 Frc consts  --      0.8187                 1.1321                 1.0895
 IR Inten    --      4.7559                13.0209                 7.5963

                     22                     23                     24
                      A                      A                      A
 Frequencies --    694.7224               705.9196               776.8754
 Red. masses --      3.7408                 4.0850                 1.5299
 Frc consts  --      1.0637                 1.1994                 0.5440
 IR Inten    --     17.2741                 3.6078                71.2405

                     25                     26                     27
                      A                      A                      A
 Frequencies --    797.5262               821.5969               845.8177
 Red. masses --      2.7593                 3.5499                 1.6492
 Frc consts  --      1.0340                 1.4118                 0.6952
 IR Inten    --      1.2447                 0.1634                 7.0074

                     28                     29                     30
                      A                      A                      A
 Frequencies --    882.5180               885.2129               898.3633
 Red. masses --      2.1732                 2.6249                 2.5927
 Frc consts  --      0.9972                 1.2119                 1.2328
 IR Inten    --      6.3883                 2.9518                 1.7503

                     31                     32                     33
                      A                      A                      A
 Frequencies --    924.9279               947.4601               957.6140
 Red. masses --      1.5103                 2.3797                 1.3324
 Frc consts  --      0.7613                 1.2586                 0.7199
 IR Inten    --      0.6300                16.1123                 1.2722

                     34                     35                     36
                      A                      A                      A
 Frequencies --    991.7879              1003.4303              1055.5691
 Red. masses --      2.3607                 1.2750                 2.2255
 Frc consts  --      1.3681                 0.7564                 1.4610
 IR Inten    --     11.6563                 0.2872                13.9202

                     37                     38                     39
                      A                      A                      A
 Frequencies --   1083.4318              1105.3836              1122.5144
 Red. masses --      1.6686                 1.8578                 3.5070
 Frc consts  --      1.1540                 1.3374                 2.6036
 IR Inten    --      0.0652                 2.6762                33.3541

                     40                     41                     42
                      A                      A                      A
 Frequencies --   1138.9720              1160.6104              1165.2085
 Red. masses --      2.4683                 1.2930                 1.3641
 Frc consts  --      1.8865                 1.0261                 1.0912
 IR Inten    --     10.5261                 7.6962                 6.1401

                     43                     44                     45
                      A                      A                      A
 Frequencies --   1183.4002              1197.5219              1219.3282
 Red. masses --      1.2840                 1.5159                 1.6216
 Frc consts  --      1.0594                 1.2809                 1.4205
 IR Inten    --     11.5118                14.9050                 4.5221

                     46                     47                     48
                      A                      A                      A
 Frequencies --   1271.3483              1282.1682              1296.9440
 Red. masses --      2.0888                 1.4875                 1.3403
 Frc consts  --      1.9892                 1.4408                 1.3283
 IR Inten    --      3.8921                13.8388                 4.1527

                     49                     50                     51
                      A                      A                      A
 Frequencies --   1316.4892              1350.4046              1377.3449
 Red. masses --      1.6121                 2.4612                 1.7084
 Frc consts  --      1.6462                 2.6444                 1.9096
 IR Inten    --     13.6968                53.3673                10.8554

                     52                     53                     54
                      A                      A                      A
 Frequencies --   1383.8603              1388.6608              1400.9204
 Red. masses --      1.5870                 1.8342                 2.0637
 Frc consts  --      1.7907                 2.0839                 2.3863
 IR Inten    --     28.3011                 1.2484                28.0140

                     55                     56                     57
                      A                      A                      A
 Frequencies --   1415.4470              1440.5929              1471.9111
 Red. masses --      3.2184                 4.2527                 3.2122
 Frc consts  --      3.7990                 5.1999                 4.1003
 IR Inten    --     86.0985                64.5485               173.1317

                     58                     59                     60
                      A                      A                      A
 Frequencies --   1487.9185              1497.9896              1504.6946
 Red. masses --      1.1884                 2.0271                 1.2366
 Frc consts  --      1.5502                 2.6800                 1.6496
 IR Inten    --      2.5715                 4.1307                 6.4152

                     61                     62                     63
                      A                      A                      A
 Frequencies --   1511.8174              1521.2936              1547.1166
 Red. masses --      1.1043                 1.1091                 3.0748
 Frc consts  --      1.4871                 1.5123                 4.3362
 IR Inten    --      4.5407                 0.2581               233.2276

                     64                     65                     66
                      A                      A                      A
 Frequencies --   1609.0346              1621.6856              1671.8865
 Red. masses --      7.3342                 6.7669                 5.2320
 Frc consts  --     11.1876                10.4851                 8.6164
 IR Inten    --    124.0959               152.3913                34.0379

                     67                     68                     69
                      A                      A                      A
 Frequencies --   1683.5221              3014.7674              3030.4652
 Red. masses --      1.1929                 1.0660                 1.0711
 Frc consts  --      1.9920                 5.7083                 5.7954
 IR Inten    --    331.3363                59.4746                30.2283

                     70                     71                     72
                      A                      A                      A
 Frequencies --   3040.3577              3045.2915              3055.2812
 Red. masses --      1.0772                 1.0661                 1.0800
 Frc consts  --      5.8666                 5.8253                 5.9400
 IR Inten    --     34.1320                39.8971               115.9999

                     73                     74                     75
                      A                      A                      A
 Frequencies --   3090.6955              3096.3451              3099.5938
 Red. masses --      1.0982                 1.0990                 1.0952
 Frc consts  --      6.1808                 6.2077                 6.1994
 IR Inten    --    112.4469                89.3466                63.9420

                     76                     77                     78
                      A                      A                      A
 Frequencies --   3202.7822              3209.4070              3219.4884
 Red. masses --      1.0854                 1.0882                 1.0934
 Frc consts  --      6.5596                 6.6038                 6.6775
 IR Inten    --      1.5559                 5.3819                72.1085

                     79                     80                     81
                      A                      A                      A
 Frequencies --   3229.0073              3567.0802              3659.4214
 Red. masses --      1.0973                 1.0483                 1.0999
 Frc consts  --      6.7410                 7.8592                 8.6780
 IR Inten    --     53.9104               100.0860                71.7481

 - Thermochemistry -
 -------------------
 Temperature   298.150 Kelvin.  Pressure   1.00000 Atm.
 Atom     1 has atomic number  7 and mass  14.00307

 Molecular mass:   198.11570 amu.
 Principal axes and moments of inertia in atomic units:
                           1         2         3
     Eigenvalues --  1337.174824156.368055415.40424
           X            1.00000   0.00315   0.00007
           Y           -0.00315   0.99999  -0.00377
           Z           -0.00008   0.00377   0.99999
 This molecule is an asymmetric top.
 Rotational symmetry number  1.
 Warning -- assumption of classical behavior for rotation
           may cause significant error
 Rotational temperatures (Kelvin)      0.06477     0.02084     0.01599
 Rotational constants (GHZ):           1.34967     0.43421     0.33326
 Zero-point vibrational energy     647918.7 (Joules/Mol)
                                  154.85629 (Kcal/Mol)
 Warning -- explicit consideration of  19 degrees of freedom as
           vibrations may cause significant error
 Vibrational temperatures:     93.25   141.37   183.21   241.84   341.68
          (Kelvin)            411.43   441.45   461.56   493.20   548.96
                              552.17   626.73   672.06   700.62   722.47
                              738.49   788.12   819.02   872.14   915.43
                              953.34   999.55  1015.66  1117.75  1147.46
                             1182.09  1216.94  1269.75  1273.62  1292.54
                             1330.76  1363.18  1377.79  1426.96  1443.71
                             1518.73  1558.82  1590.40  1615.05  1638.73
                             1669.86  1676.48  1702.65  1722.97  1754.34
                             1829.19  1844.75  1866.01  1894.13  1942.93
                             1981.69  1991.07  1997.97  2015.61  2036.51
                             2072.69  2117.75  2140.78  2155.27  2164.92
                             2175.17  2188.80  2225.96  2315.04  2333.24
                             2405.47  2422.21  4337.58  4360.16  4374.40
                             4381.50  4395.87  4446.82  4454.95  4459.62
                             4608.09  4617.62  4632.13  4645.82  5132.23
                             5265.09

 Zero-point correction=                           0.246779 (Hartree/Particle)
 Thermal correction to Energy=                    0.258481
 Thermal correction to Enthalpy=                  0.259425
 Thermal correction to Gibbs Free Energy=         0.209490
 Sum of electronic and zero-point Energies=           -613.114315
 Sum of electronic and thermal Energies=              -613.102613
 Sum of electronic and thermal Enthalpies=            -613.101669
 Sum of electronic and thermal Free Energies=         -613.151605

                     E (Thermal)             CV                S
                      KCal/Mol        Cal/Mol-Kelvin    Cal/Mol-Kelvin
 Total                  162.199             49.026            105.098
 Electronic               0.000              0.000              0.000
 Translational            0.889              2.981             41.756
 Rotational               0.889              2.981             31.776
 Vibrational            160.422             43.064             31.566
 Vibration     1          0.597              1.971              4.305
 Vibration     2          0.604              1.950              3.489
 Vibration     3          0.611              1.926              2.986
 Vibration     4          0.625              1.882              2.457
 Vibration     5          0.656              1.783              1.822
 Vibration     6          0.684              1.700              1.498
 Vibration     7          0.697              1.661              1.379
 Vibration     8          0.706              1.634              1.306
 Vibration     9          0.722              1.590              1.199
 Vibration    10          0.751              1.510              1.033
 Vibration    11          0.753              1.505              1.024
 Vibration    12          0.796              1.393              0.841
 Vibration    13          0.824              1.323              0.746
 Vibration    14          0.843              1.279              0.692
 Vibration    15          0.857              1.245              0.653
 Vibration    16          0.868              1.221              0.626
 Vibration    17          0.903              1.145              0.549
 Vibration    18          0.925              1.098              0.506
 Vibration    19          0.965              1.019              0.439

 Optimization completed.
    -- Stationary point found.
 Normal termination of Gaussian 16 at Tue Mar  1 18:33:34 2022.

 ------------------------------------------
 #p b3lyp/6-31G(d) geom=allcheck guess=read
 ------------------------------------------

 Structure from the checkpoint file:  "213.n.pdb.xyz.mst.wat.chk"
 -------------
 213.n.pdb.xyz
 -------------
 Charge =  0 Multiplicity = 1

 SCF Done:  E(RB3LYP) =  -613.346401240     A.U. after   12 cycles
 Normal termination of Gaussian 16 at Tue Mar  1 18:35:34 2022.
 Gaussian 16:  ES64L-G16RevA.03 25-Dec-2016

 ----------------------------------------------------------------------
 #p b3lyp/6-31G(d) scrf=(iefpcm,read,solvent=water) geom=allcheck guess
 =read
 ----------------------------------------------------------------------

 Structure from the checkpoint file:  "213.n.pdb.xyz.mst.wat.chk"
 -------------
 213.n.pdb.xyz
 -------------
 Charge =  0 Multiplicity = 1

                         Standard orientation:
 ---------------------------------------------------------------------
 Center     Atomic      Atomic             Coordinates (Angstroms)
 Number     Number       Type             X           Y           Z
 ---------------------------------------------------------------------
      1          7           0        0.129572    2.614276    0.098011
      2          6           0        0.125786    1.244013    0.007239
      3          6           0        1.364652    0.516400    0.005507
      4          6           0        2.639224    1.137190    0.051495
      5          6           0        3.795989    0.386489    0.040582
      6          6           0        3.724932   -1.024775   -0.013330
      7          6           0        2.500709   -1.654365   -0.046400
      8          6           0        1.291076   -0.908176   -0.033375
      9          7           0        0.112681   -1.593640   -0.047966
     10          6           0       -1.016377   -0.890526   -0.036690
     11          6           0       -1.077019    0.525242   -0.020811
     12          6           0       -2.399639    1.267140    0.005916
     13          6           0       -3.614933    0.389890   -0.316721
     14          6           0       -3.526452   -0.950549    0.412137
     15          6           0       -2.290482   -1.714091   -0.066383
     16          1           0        0.951280    3.106143   -0.229230
     17          1           0       -0.725983    3.095791   -0.147815
     18          1           0        2.716019    2.216977    0.108760
     19          1           0        4.761899    0.878859    0.077218
     20          1           0        4.638554   -1.610272   -0.022987
     21          1           0        2.423369   -2.736173   -0.079767
     22          1           0       -2.534562    1.721240    0.998559
     23          1           0       -2.370975    2.108646   -0.698313
     24          1           0       -4.530907    0.926035   -0.048511
     25          1           0       -3.659918    0.205525   -1.397531
     26          1           0       -4.425811   -1.550900    0.236463
     27          1           0       -3.464392   -0.778026    1.494460
     28          1           0       -2.124028   -2.620800    0.523038
     29          1           0       -2.455103   -2.050790   -1.099655
 ---------------------------------------------------------------------

 SCF Done:  E(RB3LYP) =  -613.359747291     A.U. after   11 cycles

 The electronic state is 1-A.
 Alpha  occ. eigenvalues --  -14.34507 -14.31026 -10.24098 -10.22246 -10.21894
 Alpha  occ. eigenvalues --  -10.19745 -10.19456 -10.19199 -10.18994 -10.18758
 Alpha  occ. eigenvalues --  -10.18682 -10.18641 -10.17937 -10.17878 -10.17764
 Alpha  occ. eigenvalues --   -0.94176  -0.91577  -0.84645  -0.81727  -0.77304
 Alpha  occ. eigenvalues --   -0.75211  -0.74067  -0.71632  -0.65497  -0.62424
 Alpha  occ. eigenvalues --   -0.60201  -0.59339  -0.56642  -0.54237  -0.51563
 Alpha  occ. eigenvalues --   -0.49964  -0.47746  -0.45647  -0.44751  -0.44244
 Alpha  occ. eigenvalues --   -0.42833  -0.42732  -0.42254  -0.41506  -0.38862
 Alpha  occ. eigenvalues --   -0.38331  -0.37322  -0.36089  -0.35360  -0.34850
 Alpha  occ. eigenvalues --   -0.32797  -0.32169  -0.31809  -0.31348  -0.25772
 Alpha  occ. eigenvalues --   -0.25087  -0.23872  -0.20440
 Alpha virt. eigenvalues --   -0.03937  -0.00768   0.03201   0.08211   0.09261
 Alpha virt. eigenvalues --    0.10238   0.11592   0.12979   0.13169   0.14879
 Alpha virt. eigenvalues --    0.16455   0.17126   0.17441   0.17749   0.18580

 Mulliken charges:
               1
     1  N   -0.830654
     2  C    0.222005
     3  C    0.115584
     4  C   -0.221479
     5  C   -0.159246
     6  C   -0.153077
     7  C   -0.180920
     8  C    0.229398
     9  N   -0.655553
    10  C    0.246372
    11  C    0.086978
    12  C   -0.365500
    13  C   -0.269012
    14  C   -0.269887
    15  C   -0.331422
    16  H    0.378714
    17  H    0.376119
    18  H    0.151548
    19  H    0.149594
    20  H    0.150033
    21  H    0.138632
    22  H    0.160470
    23  H    0.153924
    24  H    0.141280
    25  H    0.142518
    26  H    0.140572
    27  H    0.141208
    28  H    0.151782
    29  H    0.160019
 Sum of Mulliken charges =  -0.00000

 Dipole moment (field-independent basis, Debye):
    X=             -1.1065    Y=              5.5369    Z=             -1.0277  Tot=              5.7392
 Quadrupole moment (field-independent basis, Debye-Ang):
   XX=            -74.7027   YY=            -78.0000   ZZ=            -91.1732
   XY=              1.0417   XZ=              0.0182   YZ=             -3.1614

 Normal termination of Gaussian 16 at Tue Mar  1 18:37:40 2022.
