 Gaussian 16, Revision A.03,

 ----------------------------------------------------------------------
 #p b3lyp/6-31G(d) opt=(MaxStep=10,MaxCycles=1000) freq scf=(MaxCycle=2
 000,NoVarAcc,NoIncFock) scrf=(iefpcm,read,solvent=water)
 ----------------------------------------------------------------------

 -------------
 214.n.pdb.xyz
 -------------
 Symbolic Z-matrix:
 Charge =  0 Multiplicity = 1

 SCF Done:  E(RB3LYP) =  -888.692466537     A.U. after   12 cycles
 SCF Done:  E(RB3LYP) =  -888.696041405     A.U. after    9 cycles
 SCF Done:  E(RB3LYP) =  -888.696456640     A.U. after   10 cycles
 SCF Done:  E(RB3LYP) =  -888.697785700     A.U. after    9 cycles
 SCF Done:  E(RB3LYP) =  -888.697756610     A.U. after    9 cycles
 SCF Done:  E(RB3LYP) =  -888.697857124     A.U. after    9 cycles
 SCF Done:  E(RB3LYP) =  -888.697861568     A.U. after    8 cycles
 SCF Done:  E(RB3LYP) =  -888.697897517     A.U. after    8 cycles
 SCF Done:  E(RB3LYP) =  -888.697904320     A.U. after    8 cycles
 SCF Done:  E(RB3LYP) =  -888.697909141     A.U. after    8 cycles
 SCF Done:  E(RB3LYP) =  -888.697908095     A.U. after    7 cycles
 SCF Done:  E(RB3LYP) =  -888.697907561     A.U. after    6 cycles
 SCF Done:  E(RB3LYP) =  -888.697907420     A.U. after    7 cycles
 SCF Done:  E(RB3LYP) =  -888.697907557     A.U. after    6 cycles
 Optimization completed.
    -- Stationary point found.
 Normal termination of Gaussian 16 at Tue Mar  1 20:59:24 2022.

 --------------------------------------------------------------------
 #P Geom=AllCheck Guess=TCheck SCRF=Check GenChk RB3LYP/6-31G(d) Freq
 --------------------------------------------------------------------

 Structure from the checkpoint file:  "214.n.pdb.xyz.mst.wat.chk"
 -------------
 214.n.pdb.xyz
 -------------
 Charge =  0 Multiplicity = 1

 SCF Done:  E(RB3LYP) =  -888.697907557     A.U. after    1 cycles

  Exact polarizability: 335.394  -6.285 255.498 -10.738 -28.947 225.945
 Approx polarizability: 329.960 -10.469 277.921 -10.448 -38.503 247.507

                      1                      2                      3
                      A                      A                      A
 Frequencies --     11.8930                16.6131                30.5912
 Red. masses --      3.3733                 3.5546                 3.6961
 Frc consts  --      0.0003                 0.0006                 0.0020
 IR Inten    --      0.8107                 0.3526                 0.1388

                      4                      5                      6
                      A                      A                      A
 Frequencies --     39.1636                49.2857                55.9105
 Red. masses --      3.2538                 3.2882                 3.2404
 Frc consts  --      0.0029                 0.0047                 0.0060
 IR Inten    --      0.4044                 0.0513                 0.8749

                      7                      8                      9
                      A                      A                      A
 Frequencies --     73.0410                97.3606               114.7852
 Red. masses --      3.9628                 2.9415                 1.9013
 Frc consts  --      0.0125                 0.0164                 0.0148
 IR Inten    --      1.3930                 2.6388                 1.4482

                     10                     11                     12
                      A                      A                      A
 Frequencies --    136.6727               144.9813               166.0766
 Red. masses --      3.0180                 2.9606                 2.1567
 Frc consts  --      0.0332                 0.0367                 0.0350
 IR Inten    --      3.2771                 1.5987                 2.0195

                     13                     14                     15
                      A                      A                      A
 Frequencies --    170.8763               184.5058               227.2350
 Red. masses --      3.9915                 2.1803                 1.0851
 Frc consts  --      0.0687                 0.0437                 0.0330
 IR Inten    --      0.5769                 0.8869                 1.1993

                     16                     17                     18
                      A                      A                      A
 Frequencies --    233.1166               246.3833               253.8038
 Red. masses --      3.2824                 4.9690                 2.0197
 Frc consts  --      0.1051                 0.1777                 0.0767
 IR Inten    --      1.2805                 1.3912                 1.3583

                     19                     20                     21
                      A                      A                      A
 Frequencies --    263.1352               268.8431               293.3270
 Red. masses --      1.7484                 1.9391                 2.3599
 Frc consts  --      0.0713                 0.0826                 0.1196
 IR Inten    --      1.2304                 0.7061                 1.5089

                     22                     23                     24
                      A                      A                      A
 Frequencies --    339.6929               368.8145               390.8360
 Red. masses --      2.7492                 2.5135                 1.8487
 Frc consts  --      0.1869                 0.2014                 0.1664
 IR Inten    --      3.0792                 1.0715                 9.0833

                     25                     26                     27
                      A                      A                      A
 Frequencies --    421.1932               451.1378               462.4802
 Red. masses --      2.7013                 3.3770                 3.0886
 Frc consts  --      0.2824                 0.4049                 0.3892
 IR Inten    --      1.9612                 1.3620                 3.0531

                     28                     29                     30
                      A                      A                      A
 Frequencies --    476.0958               479.3778               490.7336
 Red. masses --      2.9703                 2.9876                 3.2818
 Frc consts  --      0.3967                 0.4045                 0.4656
 IR Inten    --      4.8858                 1.7788                 4.0101

                     31                     32                     33
                      A                      A                      A
 Frequencies --    528.3493               558.3580               575.6554
 Red. masses --      3.3729                 2.2361                 2.6721
 Frc consts  --      0.5547                 0.4107                 0.5217
 IR Inten    --      3.0861                 3.6765                 0.4352

                     34                     35                     36
                      A                      A                      A
 Frequencies --    621.7089               645.8820               708.7663
 Red. masses --      5.8682                 4.9364                 2.5990
 Frc consts  --      1.3364                 1.2133                 0.7692
 IR Inten    --      8.7968                 0.1832                 8.8515

                     37                     38                     39
                      A                      A                      A
 Frequencies --    773.6163               776.7612               780.1393
 Red. masses --      1.5857                 3.3327                 1.9191
 Frc consts  --      0.5591                 1.1848                 0.6882
 IR Inten    --     12.8192                20.1053                26.2013

                     40                     41                     42
                      A                      A                      A
 Frequencies --    788.6862               794.3554               806.3385
 Red. masses --      1.2421                 1.8534                 1.7306
 Frc consts  --      0.4552                 0.6891                 0.6629
 IR Inten    --     38.4222                75.5506                44.2049

                     43                     44                     45
                      A                      A                      A
 Frequencies --    854.6653               860.5190               877.4333
 Red. masses --      2.7467                 1.5977                 1.5114
 Frc consts  --      1.1821                 0.6971                 0.6856
 IR Inten    --      3.3196                50.4956                 6.6942

                     46                     47                     48
                      A                      A                      A
 Frequencies --    889.3680               895.5947               902.8543
 Red. masses --      1.3964                 1.4261                 2.2142
 Frc consts  --      0.6508                 0.6739                 1.0634
 IR Inten    --      9.7395                23.1227                10.7768

                     49                     50                     51
                      A                      A                      A
 Frequencies --    916.7891               930.1660               933.2732
 Red. masses --      1.3303                 2.6914                 1.2811
 Frc consts  --      0.6588                 1.3720                 0.6574
 IR Inten    --     10.3984                16.6930                 9.5543

                     52                     53                     54
                      A                      A                      A
 Frequencies --    952.8187               961.8299               979.0352
 Red. masses --      1.4369                 1.7976                 1.2642
 Frc consts  --      0.7686                 0.9798                 0.7140
 IR Inten    --      2.8391                 0.6401                 1.3166

                     55                     56                     57
                      A                      A                      A
 Frequencies --    992.0086              1000.4592              1010.6733
 Red. masses --      1.4281                 2.1360                 4.0675
 Frc consts  --      0.8280                 1.2596                 2.4479
 IR Inten    --      1.9091                17.9706                 7.5057

                     58                     59                     60
                      A                      A                      A
 Frequencies --   1011.6379              1046.3436              1057.4705
 Red. masses --      2.6349                 2.0008                 3.2797
 Frc consts  --      1.5888                 1.2906                 2.1608
 IR Inten    --     12.0735                10.2450                99.1873

                     61                     62                     63
                      A                      A                      A
 Frequencies --   1073.4188              1090.6953              1092.6085
 Red. masses --      2.6908                 2.2617                 1.7122
 Frc consts  --      1.8267                 1.5852                 1.2043
 IR Inten    --    125.3053                 2.2104                 7.3522

                     64                     65                     66
                      A                      A                      A
 Frequencies --   1107.6214              1119.2550              1130.2045
 Red. masses --      2.0083                 2.7796                 2.1467
 Frc consts  --      1.4517                 2.0516                 1.6156
 IR Inten    --     38.7064                 3.8924                 9.8710

                     67                     68                     69
                      A                      A                      A
 Frequencies --   1134.7265              1135.2111              1158.8838
 Red. masses --      2.0551                 2.1953                 2.1425
 Frc consts  --      1.5591                 1.6668                 1.6953
 IR Inten    --     22.7067                59.0447                36.6004

                     70                     71                     72
                      A                      A                      A
 Frequencies --   1166.3136              1181.6283              1200.1362
 Red. masses --      2.0750                 1.7121                 1.9525
 Frc consts  --      1.6630                 1.4084                 1.6570
 IR Inten    --     32.8731                87.5841                40.1931

                     73                     74                     75
                      A                      A                      A
 Frequencies --   1208.6569              1211.6033              1216.4712
 Red. masses --      1.2144                 1.5850                 1.4413
 Frc consts  --      1.0452                 1.3709                 1.2567
 IR Inten    --      1.3504                20.2206                13.7105

                     76                     77                     78
                      A                      A                      A
 Frequencies --   1231.9266              1260.6391              1264.0699
 Red. masses --      1.3539                 1.5266                 1.2681
 Frc consts  --      1.2106                 1.4294                 1.1939
 IR Inten    --      6.0063                 2.5752                 8.7122

                     79                     80                     81
                      A                      A                      A
 Frequencies --   1288.6629              1296.4629              1300.5114
 Red. masses --      2.6941                 1.1945                 1.3773
 Frc consts  --      2.6360                 1.1830                 1.3725
 IR Inten    --    196.2697                 5.3034                 8.7283

                     82                     83                     84
                      A                      A                      A
 Frequencies --   1306.2464              1321.3891              1332.5062
 Red. masses --      2.0239                 1.1721                 1.0751
 Frc consts  --      2.0347                 1.2058                 1.1247
 IR Inten    --    222.3092                 0.9449                 0.3639

                     85                     86                     87
                      A                      A                      A
 Frequencies --   1336.3331              1341.3966              1356.5534
 Red. masses --      1.3761                 1.3359                 1.3441
 Frc consts  --      1.4479                 1.4162                 1.4573
 IR Inten    --     19.1539                14.9427                 1.4496

                     88                     89                     90
                      A                      A                      A
 Frequencies --   1363.1743              1366.6047              1375.9599
 Red. masses --      1.5043                 3.0916                 1.3886
 Frc consts  --      1.6470                 3.4019                 1.5489
 IR Inten    --     20.4553                 8.4378                 7.0225

                     91                     92                     93
                      A                      A                      A
 Frequencies --   1378.1374              1389.5719              1393.6119
 Red. masses --      1.2715                 1.4044                 1.5006
 Frc consts  --      1.4229                 1.5977                 1.7171
 IR Inten    --     10.4388                73.4800                54.0245

                     94                     95                     96
                      A                      A                      A
 Frequencies --   1409.5085              1410.2802              1423.5974
 Red. masses --      1.3021                 1.3205                 1.3343
 Frc consts  --      1.5241                 1.5474                 1.5932
 IR Inten    --     14.2069                11.0306                 2.0441

                     97                     98                     99
                      A                      A                      A
 Frequencies --   1432.5580              1434.7688              1449.7308
 Red. masses --      1.2745                 1.4954                 1.5102
 Frc consts  --      1.5410                 1.8137                 1.8701
 IR Inten    --      9.6252                 4.8857                61.3036

                    100                    101                    102
                      A                      A                      A
 Frequencies --   1495.3445              1498.4120              1499.3373
 Red. masses --      2.5682                 1.1260                 1.0904
 Frc consts  --      3.3834                 1.4896                 1.4442
 IR Inten    --     49.3638                34.6834                 1.9945

                    103                    104                    105
                      A                      A                      A
 Frequencies --   1503.2111              1504.2267              1506.1154
 Red. masses --      1.0708                 1.0947                 1.0477
 Frc consts  --      1.4256                 1.4594                 1.4003
 IR Inten    --      5.4930                 3.6703                 2.0378

                    106                    107                    108
                      A                      A                      A
 Frequencies --   1508.8340              1515.9056              1517.7293
 Red. masses --      1.1044                 1.1011                 1.1055
 Frc consts  --      1.4814                 1.4908                 1.5004
 IR Inten    --      4.2467                 0.7874                 1.8503

                    109                    110                    111
                      A                      A                      A
 Frequencies --   1523.6511              1526.9196              1531.4690
 Red. masses --      1.0537                 1.1260                 2.0250
 Frc consts  --      1.4412                 1.5467                 2.7983
 IR Inten    --     13.3754                13.8236               104.8391

                    112                    113                    114
                      A                      A                      A
 Frequencies --   1536.3315              1541.3374              1542.5267
 Red. masses --      1.0889                 1.1329                 1.0935
 Frc consts  --      1.5143                 1.5858                 1.5330
 IR Inten    --      1.1117                 0.6498                 5.9313

                    115                    116                    117
                      A                      A                      A
 Frequencies --   1555.4957              1638.5577              1664.4324
 Red. masses --      1.1520                 5.4686                 6.1339
 Frc consts  --      1.6422                 8.6506                10.0119
 IR Inten    --      0.5092               108.2569               105.6787

                    118                    119                    120
                      A                      A                      A
 Frequencies --   2940.1662              2951.4820              2976.1341
 Red. masses --      1.0740                 1.0721                 1.0708
 Frc consts  --      5.4702                 5.5025                 5.5880
 IR Inten    --    118.6203               170.1751               111.2551

                    121                    122                    123
                      A                      A                      A
 Frequencies --   3031.4896              3035.1530              3042.8451
 Red. masses --      1.0726                 1.0835                 1.0554
 Frc consts  --      5.8077                 5.8808                 5.7575
 IR Inten    --     62.4970                43.2566                49.3197

                    124                    125                    126
                      A                      A                      A
 Frequencies --   3045.9584              3050.9878              3052.5374
 Red. masses --      1.0373                 1.0644                 1.0851
 Frc consts  --      5.6701                 5.8379                 5.9574
 IR Inten    --     42.5383                11.7354                46.6355

                    127                    128                    129
                      A                      A                      A
 Frequencies --   3052.9504              3054.7056              3060.0019
 Red. masses --      1.0675                 1.0377                 1.0716
 Frc consts  --      5.8622                 5.7048                 5.9121
 IR Inten    --     74.4401                43.8726               135.1395

                    130                    131                    132
                      A                      A                      A
 Frequencies --   3061.2162              3066.7256              3067.5855
 Red. masses --      1.0773                 1.0767                 1.0721
 Frc consts  --      5.9480                 5.9660                 5.9438
 IR Inten    --     22.1045                58.1507                86.5539

                    133                    134                    135
                      A                      A                      A
 Frequencies --   3080.8825              3085.4356              3099.9067
 Red. masses --      1.1056                 1.1006                 1.1005
 Frc consts  --      6.1832                 6.1730                 6.2307
 IR Inten    --     35.8793                33.9445                66.1586

                    136                    137                    138
                      A                      A                      A
 Frequencies --   3108.9719              3111.2177              3115.0912
 Red. masses --      1.1029                 1.1008                 1.0933
 Frc consts  --      6.2811                 6.2778                 6.2508
 IR Inten    --    156.6977                37.6395                40.4928

                    139                    140                    141
                      A                      A                      A
 Frequencies --   3115.5302              3119.3319              3124.3775
 Red. masses --      1.1050                 1.0995                 1.1022
 Frc consts  --      6.3196                 6.3033                 6.3391
 IR Inten    --    115.6764                92.7228                69.1713

                    142                    143                    144
                      A                      A                      A
 Frequencies --   3135.3092              3201.3906              3205.8079
 Red. masses --      1.1032                 1.0877                 1.0902
 Frc consts  --      6.3897                 6.5681                 6.6012
 IR Inten    --     61.7829                24.6769                12.0908

                    145                    146                    147
                      A                      A                      A
 Frequencies --   3224.2198              3244.6601              3464.9896
 Red. masses --      1.0926                 1.0918                 1.0738
 Frc consts  --      6.6920                 6.7720                 7.5958
 IR Inten    --     27.6059                14.7408                 0.5278

 - Thermochemistry -
 -------------------
 Temperature   298.150 Kelvin.  Pressure   1.00000 Atm.
 Atom     1 has atomic number  6 and mass  12.00000

 Molecular mass:   290.23581 amu.
 Principal axes and moments of inertia in atomic units:
                           1         2         3
     Eigenvalues --  2001.80499********************
           X            1.00000   0.00274  -0.00012
           Y           -0.00274   0.99998  -0.00559
           Z            0.00011   0.00559   0.99998
 This molecule is an asymmetric top.
 Rotational symmetry number  1.
 Warning -- assumption of classical behavior for rotation
           may cause significant error
 Rotational temperatures (Kelvin)      0.04327     0.00340     0.00324
 Rotational constants (GHZ):           0.90156     0.07079     0.06753
 Zero-point vibrational energy    1211925.1 (Joules/Mol)
                                  289.65705 (Kcal/Mol)
 Warning -- explicit consideration of  33 degrees of freedom as
           vibrations may cause significant error
 Vibrational temperatures:     17.11    23.90    44.01    56.35    70.91
          (Kelvin)             80.44   105.09   140.08   165.15   196.64
                              208.60   238.95   245.85   265.46   326.94
                              335.40   354.49   365.17   378.59   386.81
                              422.03   488.74   530.64   562.33   606.00
                              649.09   665.41   685.00   689.72   706.06
                              760.18   803.35   828.24   894.50   929.28
                             1019.76  1113.06  1117.59  1122.45  1134.74
                             1142.90  1160.14  1229.67  1238.09  1262.43
                             1279.60  1288.56  1299.01  1319.06  1338.30
                             1342.77  1370.89  1383.86  1408.61  1427.28
                             1439.44  1454.13  1455.52  1505.46  1521.46
                             1544.41  1569.27  1572.02  1593.62  1610.36
                             1626.11  1632.62  1633.32  1667.38  1678.07
                             1700.10  1726.73  1738.99  1743.23  1750.23
                             1772.47  1813.78  1818.71  1854.10  1865.32
                             1871.15  1879.40  1901.18  1917.18  1922.69
                             1929.97  1951.78  1961.30  1966.24  1979.70
                             1982.83  1999.28  2005.10  2027.97  2029.08
                             2048.24  2061.13  2064.31  2085.84  2151.47
                             2155.88  2157.21  2162.79  2164.25  2166.96
                             2170.88  2181.05  2183.67  2192.19  2196.90
                             2203.44  2210.44  2217.64  2219.35  2238.01
                             2357.52  2394.75  4230.24  4246.52  4281.99
                             4361.64  4366.91  4377.98  4382.45  4389.69
                             4391.92  4392.51  4395.04  4402.66  4404.41
                             4412.33  4413.57  4432.70  4439.25  4460.07
                             4473.12  4476.35  4481.92  4482.55  4488.02
                             4495.28  4511.01  4606.09  4612.44  4638.93
                             4668.34  4985.35

 Zero-point correction=                           0.461598 (Hartree/Particle)
 Thermal correction to Energy=                    0.483815
 Thermal correction to Enthalpy=                  0.484759
 Thermal correction to Gibbs Free Energy=         0.406546
 Sum of electronic and zero-point Energies=           -888.236310
 Sum of electronic and thermal Energies=              -888.214093
 Sum of electronic and thermal Enthalpies=            -888.213149
 Sum of electronic and thermal Free Energies=         -888.291362

                     E (Thermal)             CV                S
                      KCal/Mol        Cal/Mol-Kelvin    Cal/Mol-Kelvin
 Total                  303.598             84.056            164.613
 Electronic               0.000              0.000              0.000
 Translational            0.889              2.981             42.894
 Rotational               0.889              2.981             35.565
 Vibrational            301.821             78.094             86.153
 Vibration     1          0.593              1.987              7.667
 Vibration     2          0.593              1.986              7.003
 Vibration     3          0.594              1.984              5.791
 Vibration     4          0.594              1.981              5.301
 Vibration     5          0.595              1.978              4.846
 Vibration     6          0.596              1.975              4.597
 Vibration     7          0.599              1.967              4.070
 Vibration     8          0.603              1.951              3.506
 Vibration     9          0.608              1.937              3.186
 Vibration    10          0.614              1.917              2.850
 Vibration    11          0.616              1.908              2.737
 Vibration    12          0.624              1.884              2.479
 Vibration    13          0.626              1.878              2.426
 Vibration    14          0.631              1.861              2.282
 Vibration    15          0.651              1.800              1.901
 Vibration    16          0.654              1.790              1.855
 Vibration    17          0.661              1.769              1.756
 Vibration    18          0.665              1.756              1.704
 Vibration    19          0.670              1.740              1.641
 Vibration    20          0.673              1.730              1.604
 Vibration    21          0.688              1.686              1.455
 Vibration    22          0.720              1.596              1.214
 Vibration    23          0.741              1.536              1.085
 Vibration    24          0.759              1.490              0.997
 Vibration    25          0.784              1.424              0.888
 Vibration    26          0.810              1.358              0.792
 Vibration    27          0.820              1.333              0.759
 Vibration    28          0.833              1.303              0.721
 Vibration    29          0.836              1.296              0.712
 Vibration    30          0.847              1.271              0.682
 Vibration    31          0.883              1.187              0.591
 Vibration    32          0.914              1.121              0.527
 Vibration    33          0.932              1.084              0.493

                           ! Non-Optimized Parameters !
 Normal termination of Gaussian 16 at Tue Mar  1 21:55:10 2022.

 ------------------------------------------
 #p b3lyp/6-31G(d) geom=allcheck guess=read
 ------------------------------------------

 Structure from the checkpoint file:  "214.n.pdb.xyz.mst.wat.chk"
 -------------
 214.n.pdb.xyz
 -------------
 Charge =  0 Multiplicity = 1

 SCF Done:  E(RB3LYP) =  -888.688626708     A.U. after   11 cycles
 Normal termination of Gaussian 16 at Tue Mar  1 21:58:13 2022.
 Gaussian 16:  ES64L-G16RevA.03 25-Dec-2016

 ----------------------------------------------------------------------
 #p b3lyp/6-31G(d) scrf=(iefpcm,read,solvent=water) geom=allcheck guess
 =read
 ----------------------------------------------------------------------

 Structure from the checkpoint file:  "214.n.pdb.xyz.mst.wat.chk"
 -------------
 214.n.pdb.xyz
 -------------
 Charge =  0 Multiplicity = 1

                         Standard orientation:
 ---------------------------------------------------------------------
 Center     Atomic      Atomic             Coordinates (Angstroms)
 Number     Number       Type             X           Y           Z
 ---------------------------------------------------------------------
      1          6           0        7.936927    0.657077    0.090352
      2          6           0        7.307841   -0.669319   -0.362869
      3          6           0        8.222360   -1.850501   -0.034265
      4          7           0        5.972764   -0.931380    0.200155
      5          6           0        4.945661    0.026236   -0.212474
      6          6           0        3.570353   -0.407434    0.297360
      7          6           0        2.471465    0.554116   -0.122168
      8          8           0        1.235512    0.058645    0.406117
      9          6           0        0.098923    0.768409    0.145852
     10          6           0       -1.089268    0.238222    0.672839
     11          6           0       -2.311165    0.877270    0.471595
     12          6           0       -3.571689    0.308506    1.095753
     13          7           0       -4.700053    0.218718    0.168925
     14          6           0       -5.959712    0.029131    0.911523
     15          6           0       -7.067765   -0.465573   -0.015910
     16          6           0       -6.748907   -1.882842   -0.543915
     17          6           0       -5.224050   -2.111850   -0.624180
     18          6           0       -4.500743   -0.789778   -0.900514
     19          6           0       -2.343888    2.066020   -0.276698
     20          6           0       -1.166195    2.588687   -0.801617
     21          6           0        0.063469    1.951553   -0.598069
     22          1           0        8.100975    0.651515    1.174652
     23          1           0        7.295996    1.510850   -0.150585
     24          1           0        8.904518    0.817886   -0.395732
     25          1           0        7.172174   -0.629081   -1.452160
     26          1           0        7.788853   -2.788833   -0.392202
     27          1           0        9.207419   -1.724122   -0.493812
     28          1           0        8.368038   -1.935620    1.049192
     29          1           0        6.046338   -0.909638    1.218683
     30          1           0        5.150222    1.057311    0.121524
     31          1           0        4.941996    0.051801   -1.309026
     32          1           0        3.341138   -1.408662   -0.080576
     33          1           0        3.584013   -0.469915    1.391745
     34          1           0        2.658344    1.562814    0.265740
     35          1           0        2.401859    0.623214   -1.214425
     36          1           0       -1.040522   -0.684325    1.242937
     37          1           0       -3.889958    0.967436    1.913673
     38          1           0       -3.330379   -0.663621    1.562608
     39          1           0       -5.837551   -0.697125    1.736604
     40          1           0       -6.232158    0.983895    1.377033
     41          1           0       -8.023900   -0.455482    0.515897
     42          1           0       -7.165260    0.239271   -0.849871
     43          1           0       -7.202291   -2.015174   -1.532122
     44          1           0       -7.199626   -2.637006    0.110137
     45          1           0       -4.854617   -2.530427    0.319108
     46          1           0       -4.979676   -2.840831   -1.403830
     47          1           0       -4.860698   -0.379111   -1.853070
     48          1           0       -3.426351   -0.950324   -1.020135
     49          1           0       -3.290676    2.566708   -0.445718
     50          1           0       -1.193003    3.507548   -1.379311
     51          1           0        0.970006    2.370948   -1.015024
 ---------------------------------------------------------------------

 SCF Done:  E(RB3LYP) =  -888.695970940     A.U. after   10 cycles

 The electronic state is 1-A.
 Alpha  occ. eigenvalues --  -19.17765 -14.31713 -14.31189 -10.24818 -10.23777
 Alpha  occ. eigenvalues --  -10.20809 -10.20690 -10.20459 -10.19948 -10.19755
 Alpha  occ. eigenvalues --  -10.19512 -10.19077 -10.18568 -10.18364 -10.18283
 Alpha  occ. eigenvalues --  -10.17941 -10.17577 -10.17504 -10.17406 -10.16835
 Alpha  occ. eigenvalues --  -10.16721  -1.06297  -0.91605  -0.90027  -0.85145
 Alpha  occ. eigenvalues --   -0.79428  -0.78811  -0.75577  -0.75465  -0.74190
 Alpha  occ. eigenvalues --   -0.72573  -0.68211  -0.68048  -0.66223  -0.62715
 Alpha  occ. eigenvalues --   -0.61558  -0.60455  -0.59309  -0.57868  -0.56703
 Alpha  occ. eigenvalues --   -0.52832  -0.52014  -0.49350  -0.49203  -0.48807
 Alpha  occ. eigenvalues --   -0.48567  -0.47097  -0.46436  -0.45299  -0.44272
 Alpha  occ. eigenvalues --   -0.43552  -0.42723  -0.42211  -0.41865  -0.41057
 Alpha  occ. eigenvalues --   -0.40093  -0.39819  -0.39144  -0.38672  -0.38078
 Alpha  occ. eigenvalues --   -0.37789  -0.37240  -0.36947  -0.36268  -0.36055
 Alpha  occ. eigenvalues --   -0.35354  -0.35121  -0.34339  -0.33797  -0.33109
 Alpha  occ. eigenvalues --   -0.32704  -0.32400  -0.32094  -0.31356  -0.30691
 Alpha  occ. eigenvalues --   -0.30502  -0.24805  -0.22264  -0.22018  -0.20215
 Alpha virt. eigenvalues --   -0.00242   0.00805   0.08151   0.08675   0.09872
 Alpha virt. eigenvalues --    0.10712   0.11128   0.11452   0.12363   0.12979
 Alpha virt. eigenvalues --    0.13353   0.13665   0.14149   0.15002   0.15205

 Mulliken charges:
               1
     1  C   -0.459278
     2  C    0.051318
     3  C   -0.451653
     4  N   -0.601996
     5  C   -0.123228
     6  C   -0.290605
     7  C   -0.041278
     8  O   -0.546463
     9  C    0.382290
    10  C   -0.266822
    11  C    0.152313
    12  C   -0.207358
    13  N   -0.407533
    14  C   -0.121025
    15  C   -0.286537
    16  C   -0.263860
    17  C   -0.277542
    18  C   -0.142232
    19  C   -0.191380
    20  C   -0.162836
    21  C   -0.218753
    22  H    0.142106
    23  H    0.151191
    24  H    0.146179
    25  H    0.133283
    26  H    0.145240
    27  H    0.147348
    28  H    0.143335
    29  H    0.319310
    30  H    0.128957
    31  H    0.145709
    32  H    0.151504
    33  H    0.151882
    34  H    0.155188
    35  H    0.155177
    36  H    0.140027
    37  H    0.159219
    38  H    0.129106
    39  H    0.117199
    40  H    0.140703
    41  H    0.143733
    42  H    0.143706
    43  H    0.138920
    44  H    0.138458
    45  H    0.142562
    46  H    0.139859
    47  H    0.136961
    48  H    0.144462
    49  H    0.135719
    50  H    0.148764
    51  H    0.158650
 Sum of Mulliken charges =  -0.00000

 Dipole moment (field-independent basis, Debye):
    X=              1.4439    Y=              0.8402    Z=              0.2427  Tot=              1.6881
 Quadrupole moment (field-independent basis, Debye-Ang):
   XX=           -107.8331   YY=           -130.5802   ZZ=           -126.7907
   XY=             12.4660   XZ=             -0.8058   YZ=             -2.3956

 Normal termination of Gaussian 16 at Tue Mar  1 22:02:09 2022.
