 Gaussian 16, Revision A.03,

 ----------------------------------------------------------------------
 #p b3lyp/6-31G(d) opt=(MaxStep=10,MaxCycles=1000) freq scf=(MaxCycle=2
 000,NoVarAcc,NoIncFock) scrf=(iefpcm,read,solvent=water)
 ----------------------------------------------------------------------

 -------------
 215.n.pdb.xyz
 -------------
 Symbolic Z-matrix:
 Charge =  0 Multiplicity = 1

 SCF Done:  E(RB3LYP) =  -268.392624828     A.U. after   12 cycles
 SCF Done:  E(RB3LYP) =  -268.394076468     A.U. after    9 cycles
 SCF Done:  E(RB3LYP) =  -268.394168152     A.U. after    9 cycles
 SCF Done:  E(RB3LYP) =  -268.394176342     A.U. after    8 cycles
 SCF Done:  E(RB3LYP) =  -268.394179600     A.U. after    7 cycles
 SCF Done:  E(RB3LYP) =  -268.394179933     A.U. after    7 cycles
 Optimization completed.
    -- Stationary point found.
 Normal termination of Gaussian 16 at Tue Mar  1 21:06:20 2022.

 --------------------------------------------------------------------
 #P Geom=AllCheck Guess=TCheck SCRF=Check GenChk RB3LYP/6-31G(d) Freq
 --------------------------------------------------------------------

 Structure from the checkpoint file:  "215.n.pdb.xyz.mst.wat.chk"
 -------------
 215.n.pdb.xyz
 -------------
 Charge =  0 Multiplicity = 1

 SCF Done:  E(RB3LYP) =  -268.394179933     A.U. after    1 cycles

  Exact polarizability:  52.678  -0.770  48.837  -0.002  -0.001  35.335
 Approx polarizability:  50.666  -1.651  61.160  -0.001  -0.001  38.349

 ******    1 imaginary frequencies (negative Signs) ******

                      1                      2                      3
                      A                      A                      A
 Frequencies --    -31.4870                97.3878               179.5514
 Red. masses --      1.0817                 1.0746                 2.9592
 Frc consts  --      0.0006                 0.0060                 0.0562
 IR Inten    --      0.8509                 0.0811                10.5228

                      4                      5                      6
                      A                      A                      A
 Frequencies --    272.0769               420.0044               609.0241
 Red. masses --      3.1304                 3.1603                 2.6976
 Frc consts  --      0.1365                 0.3285                 0.5895
 IR Inten    --     20.2313                 9.4821                11.3889

                      7                      8                      9
                      A                      A                      A
 Frequencies --    643.1387               869.1039               991.8263
 Red. masses --      4.4337                 3.8134                 2.2937
 Frc consts  --      1.0805                 1.6971                 1.3294
 IR Inten    --     10.2208                27.0301                 2.7521

                     10                     11                     12
                      A                      A                      A
 Frequencies --   1071.2000              1079.8531              1180.8256
 Red. masses --      1.7695                 3.1923                 1.2725
 Frc consts  --      1.1963                 2.1932                 1.0454
 IR Inten    --     15.9991                99.0748                 2.2219

                     13                     14                     15
                      A                      A                      A
 Frequencies --   1214.7416              1283.0374              1416.4815
 Red. masses --      1.5022                 3.7924                 1.3278
 Frc consts  --      1.3060                 3.6782                 1.5697
 IR Inten    --      1.6258               493.1974                65.5580

                     16                     17                     18
                      A                      A                      A
 Frequencies --   1484.5485              1490.0292              1492.8979
 Red. masses --      1.0527                 1.0451                 1.2194
 Frc consts  --      1.3670                 1.3671                 1.6012
 IR Inten    --     21.6472                10.4883                24.3803

                     19                     20                     21
                      A                      A                      A
 Frequencies --   1506.4896              1519.4587              1791.3121
 Red. masses --      1.0536                 1.0511                10.3125
 Frc consts  --      1.4088                 1.4298                19.4965
 IR Inten    --     10.4646                11.8077               415.3326

                     22                     23                     24
                      A                      A                      A
 Frequencies --   3087.7783              3097.4561              3152.3722
 Red. masses --      1.0370                 1.0298                 1.1012
 Frc consts  --      5.8255                 5.8215                 6.4474
 IR Inten    --      1.9320                35.4372                 6.8639

                     25                     26                     27
                      A                      A                      A
 Frequencies --   3174.5651              3196.0847              3209.3633
 Red. masses --      1.1081                 1.1039                 1.1066
 Frc consts  --      6.5796                 6.6438                 6.7156
 IR Inten    --     34.7827                12.9094                23.7549

 - Thermochemistry -
 -------------------
 Temperature   298.150 Kelvin.  Pressure   1.00000 Atm.
 Atom     1 has atomic number  6 and mass  12.00000

 Molecular mass:    74.03678 amu.
 Principal axes and moments of inertia in atomic units:
                           1         2         3
     Eigenvalues --   177.20624 435.30250 589.90256
           X            0.99915   0.04121  -0.00000
           Y           -0.04121   0.99915  -0.00000
           Z            0.00000   0.00000   1.00000
 This molecule is an asymmetric top.
 Rotational symmetry number  1.
 Rotational temperatures (Kelvin)      0.48877     0.19897     0.14683
 Rotational constants (GHZ):          10.18441     4.14595     3.05939
    1 imaginary frequencies ignored.
 Zero-point vibrational energy     236445.5 (Joules/Mol)
                                   56.51184 (Kcal/Mol)
 Warning -- explicit consideration of   5 degrees of freedom as
           vibrations may cause significant error
 Vibrational temperatures:    140.12   258.33   391.46   604.29   876.25
          (Kelvin)            925.33  1250.45  1427.02  1541.22  1553.67
                             1698.94  1747.74  1846.00  2038.00  2135.93
                             2143.82  2147.95  2167.50  2186.16  2577.30
                             4442.62  4456.55  4535.56  4567.49  4598.45
                             4617.56

 Zero-point correction=                           0.090057 (Hartree/Particle)
 Thermal correction to Energy=                    0.095495
 Thermal correction to Enthalpy=                  0.096439
 Thermal correction to Gibbs Free Energy=         0.061346
 Sum of electronic and zero-point Energies=           -268.304123
 Sum of electronic and thermal Energies=              -268.298685
 Sum of electronic and thermal Enthalpies=            -268.297741
 Sum of electronic and thermal Free Energies=         -268.332834

                     E (Thermal)             CV                S
                      KCal/Mol        Cal/Mol-Kelvin    Cal/Mol-Kelvin
 Total                   59.924             17.492             73.860
 Electronic               0.000              0.000              0.000
 Translational            0.889              2.981             38.822
 Rotational               0.889              2.981             25.323
 Vibrational             58.147             11.531              9.714
 Vibration     1          0.603              1.951              3.506
 Vibration     2          0.629              1.867              2.333
 Vibration     3          0.675              1.725              1.583
 Vibration     4          0.783              1.427              0.892
 Vibration     5          0.968              1.013              0.434

 Optimization completed.
    -- Stationary point found.
 Normal termination of Gaussian 16 at Tue Mar  1 21:07:36 2022.

 ------------------------------------------
 #p b3lyp/6-31G(d) geom=allcheck guess=read
 ------------------------------------------

 Structure from the checkpoint file:  "215.n.pdb.xyz.mst.wat.chk"
 -------------
 215.n.pdb.xyz
 -------------
 Charge =  0 Multiplicity = 1

 SCF Done:  E(RB3LYP) =  -268.388339621     A.U. after   11 cycles

 1\1\GINC-PIRINEUS17\SP\RB3LYP\6-31G(d)\C3H6O2\UBATOR01\01-Mar-2022\0\\
 #p b3lyp/6-31G(d) geom=allcheck guess=read\\215.n.pdb.xyz\\0,1\C,0,-1.
 8474328444,-0.2514956292,0.1332803428\O,0,-0.451242949,-0.6020543714,0
 .1009874833\C,0,0.412214504,0.421887946,0.2349425007\C,0,1.839534565,-
 0.0560688639,0.1870610348\O,0,0.0565696735,1.5774129362,0.375437699\H,
 0,-2.101852344,0.2138508265,1.0868055632\H,0,-2.3866389775,-1.18856716
 04,0.0119807497\H,0,-2.0873403344,0.4342900403,-0.6806784857\H,0,2.033
 099975,-0.5620352083,-0.7625190924\H,0,2.5151129313,0.7908642405,0.297

 Normal termination of Gaussian 16 at Tue Mar  1 21:07:47 2022.
 Gaussian 16:  ES64L-G16RevA.03 25-Dec-2016

 ----------------------------------------------------------------------
 #p b3lyp/6-31G(d) scrf=(iefpcm,read,solvent=water) geom=allcheck guess
 =read
 ----------------------------------------------------------------------

 Structure from the checkpoint file:  "215.n.pdb.xyz.mst.wat.chk"
 -------------
 215.n.pdb.xyz
 -------------
 Charge =  0 Multiplicity = 1

                         Standard orientation:
 ---------------------------------------------------------------------
 Center     Atomic      Atomic             Coordinates (Angstroms)
 Number     Number       Type             X           Y           Z
 ---------------------------------------------------------------------
      1          6           0        1.874442   -0.163312    0.000008
      2          8           0        0.546471   -0.719885   -0.000013
      3          6           0       -0.461638    0.172122   -0.000011
      4          6           0       -1.801210   -0.516009   -0.000001
      5          8           0       -0.283931    1.376232    0.000013
      6          1           0        2.032453    0.446358   -0.890959
      7          1           0        2.548820   -1.016995    0.000720
      8          1           0        2.031930    0.447428    0.890278
      9          1           0       -1.893170   -1.155975    0.881565
     10          1           0       -2.596862    0.227538   -0.000068
     11          1           0       -1.893062   -1.155932   -0.881505
 ---------------------------------------------------------------------

 SCF Done:  E(RB3LYP) =  -268.394022706     A.U. after   10 cycles

 The electronic state is 1-A.
 Alpha  occ. eigenvalues --  -19.19407 -19.14004 -10.32065 -10.23475 -10.19074
 Alpha  occ. eigenvalues --   -1.10377  -1.01494  -0.76612  -0.69858  -0.56508
 Alpha  occ. eigenvalues --   -0.49542  -0.48566  -0.47899  -0.42746  -0.41769
 Alpha  occ. eigenvalues --   -0.39790  -0.36838  -0.35682  -0.30513  -0.27806
 Alpha virt. eigenvalues --    0.00972   0.11000   0.12557   0.13682   0.16551
 Alpha virt. eigenvalues --    0.16745   0.17305   0.19190   0.23659   0.29950
 Alpha virt. eigenvalues --    0.34603   0.50520   0.52089   0.55768   0.56019

 Mulliken charges:
               1
     1  C   -0.224201
     2  O   -0.445258
     3  C    0.617545
     4  C   -0.525182
     5  O   -0.527616
     6  H    0.175000
     7  H    0.179613
     8  H    0.175010
     9  H    0.196179
    10  H    0.182726
    11  H    0.196184
 Sum of Mulliken charges =   0.00000

 Dipole moment (field-independent basis, Debye):
    X=              0.4565    Y=             -2.2987    Z=              0.0000  Tot=              2.3436
 Quadrupole moment (field-independent basis, Debye-Ang):
   XX=            -22.8317   YY=            -34.8667   ZZ=            -28.6312
   XY=              1.5698   XZ=              0.0004   YZ=             -0.0003

 1\1\GINC-PIRINEUS17\SP\RB3LYP\6-31G(d)\C3H6O2\UBATOR01\01-Mar-2022\0\\
 #p b3lyp/6-31G(d) scrf=(iefpcm,read,solvent=water) geom=allcheck guess
 =read\\215.n.pdb.xyz\\0,1\C,0,-1.8474328444,-0.2514956292,0.1332803428
 \O,0,-0.451242949,-0.6020543714,0.1009874833\C,0,0.412214504,0.4218879
 46,0.2349425007\C,0,1.839534565,-0.0560688639,0.1870610348\O,0,0.05656
 96735,1.5774129362,0.375437699\H,0,-2.101852344,0.2138508265,1.0868055
 632\H,0,-2.3866389775,-1.1885671604,0.0119807497\H,0,-2.0873403344,0.4
 342900403,-0.6806784857\H,0,2.033099975,-0.5620352083,-0.7625190924\H,

 Normal termination of Gaussian 16 at Tue Mar  1 21:08:00 2022.
