 Gaussian 16, Revision A.03,

 ----------------------------------------------------------------------
 #p b3lyp/6-31G(d) opt=(MaxStep=10,MaxCycles=1000) freq scf=(MaxCycle=2
 000,NoVarAcc,NoIncFock) scrf=(iefpcm,read,solvent=water)
 ----------------------------------------------------------------------

 -------------
 216.n.pdb.xyz
 -------------
 Symbolic Z-matrix:
 Charge =  0 Multiplicity = 1

 SCF Done:  E(RB3LYP) =  -1208.36586050     A.U. after   13 cycles
 SCF Done:  E(RB3LYP) =  -1208.37114548     A.U. after   10 cycles
 SCF Done:  E(RB3LYP) =  -1208.37254470     A.U. after   11 cycles
 SCF Done:  E(RB3LYP) =  -1208.37393992     A.U. after   11 cycles
 SCF Done:  E(RB3LYP) =  -1208.37402266     A.U. after   10 cycles
 SCF Done:  E(RB3LYP) =  -1208.37439729     A.U. after   10 cycles
 SCF Done:  E(RB3LYP) =  -1208.37449078     A.U. after   10 cycles
 SCF Done:  E(RB3LYP) =  -1208.37451612     A.U. after    8 cycles
 SCF Done:  E(RB3LYP) =  -1208.37452265     A.U. after    8 cycles
 SCF Done:  E(RB3LYP) =  -1208.37452197     A.U. after    7 cycles
 SCF Done:  E(RB3LYP) =  -1208.37452235     A.U. after    7 cycles
 SCF Done:  E(RB3LYP) =  -1208.37447700     A.U. after    9 cycles
 SCF Done:  E(RB3LYP) =  -1208.37451996     A.U. after    9 cycles
 SCF Done:  E(RB3LYP) =  -1208.37452258     A.U. after    7 cycles
 SCF Done:  E(RB3LYP) =  -1208.37452340     A.U. after    7 cycles
 Optimization completed.
    -- Stationary point found.
 Normal termination of Gaussian 16 at Wed Mar  2 01:15:48 2022.

 --------------------------------------------------------------------
 #P Geom=AllCheck Guess=TCheck SCRF=Check GenChk RB3LYP/6-31G(d) Freq
 --------------------------------------------------------------------

 Structure from the checkpoint file:  "216.n.pdb.xyz.mst.wat.chk"
 -------------
 216.n.pdb.xyz
 -------------
 Charge =  0 Multiplicity = 1

 SCF Done:  E(RB3LYP) =  -1208.37452340     A.U. after    1 cycles

  Exact polarizability: 361.937 -13.900 278.370  -0.802   3.811 151.091
 Approx polarizability: 385.177  -7.149 318.578  -3.043   4.650 179.634

                      1                      2                      3
                      A                      A                      A
 Frequencies --     24.1249                34.9987                41.5185
 Red. masses --      4.7368                 7.6527                 4.5933
 Frc consts  --      0.0016                 0.0055                 0.0047
 IR Inten    --      0.7216                 0.0768                 0.9844

                      4                      5                      6
                      A                      A                      A
 Frequencies --     51.7313                59.2226                71.5518
 Red. masses --      6.7320                 4.2877                 5.5802
 Frc consts  --      0.0106                 0.0089                 0.0168
 IR Inten    --      0.6252                 0.8132                 3.7712

                      7                      8                      9
                      A                      A                      A
 Frequencies --     83.4642                97.9862               108.8916
 Red. masses --      4.5354                 3.5672                 2.7420
 Frc consts  --      0.0186                 0.0202                 0.0192
 IR Inten    --      6.2659                 5.2957                 4.4545

                     10                     11                     12
                      A                      A                      A
 Frequencies --    130.3456               153.8271               161.0907
 Red. masses --      3.1484                 6.1710                 5.4585
 Frc consts  --      0.0315                 0.0860                 0.0835
 IR Inten    --      0.9277                 6.6495                 4.5144

                     13                     14                     15
                      A                      A                      A
 Frequencies --    191.9313               199.1409               235.8174
 Red. masses --      5.6186                 6.6347                 6.4968
 Frc consts  --      0.1219                 0.1550                 0.2129
 IR Inten    --      5.7576                 0.1346                 0.9865

                     16                     17                     18
                      A                      A                      A
 Frequencies --    259.2786               280.6144               288.6463
 Red. masses --      1.6033                 3.7531                 4.1741
 Frc consts  --      0.0635                 0.1741                 0.2049
 IR Inten    --      2.1004                 7.8612                 5.2640

                     19                     20                     21
                      A                      A                      A
 Frequencies --    296.3529               312.5659               322.6875
 Red. masses --      4.7877                 4.4747                 6.1850
 Frc consts  --      0.2477                 0.2576                 0.3794
 IR Inten    --      1.2219                10.9627                14.5501

                     22                     23                     24
                      A                      A                      A
 Frequencies --    380.9437               385.6556               406.4176
 Red. masses --      4.2301                 4.5906                 6.0061
 Frc consts  --      0.3617                 0.4023                 0.5845
 IR Inten    --      9.2490                 8.1178                14.4610

                     25                     26                     27
                      A                      A                      A
 Frequencies --    414.8871               440.5811               455.7329
 Red. masses --      4.8011                 3.5335                 5.2276
 Frc consts  --      0.4869                 0.4041                 0.6397
 IR Inten    --     13.8371                16.9972                 1.6288

                     28                     29                     30
                      A                      A                      A
 Frequencies --    481.6715               507.4075               540.2618
 Red. masses --      5.5985                 6.5026                 4.0643
 Frc consts  --      0.7653                 0.9864                 0.6989
 IR Inten    --      2.5410                 8.7385                18.6502

                     31                     32                     33
                      A                      A                      A
 Frequencies --    573.7574               611.7105               641.7264
 Red. masses --      5.5311                 4.2042                 6.0619
 Frc consts  --      1.0728                 0.9269                 1.4708
 IR Inten    --     17.1840                14.3443                20.8775

                     34                     35                     36
                      A                      A                      A
 Frequencies --    663.2743               675.0417               684.3157
 Red. masses --      7.7684                 4.3397                 6.4950
 Frc consts  --      2.0136                 1.1651                 1.7920
 IR Inten    --      5.0017                28.9138                19.4452

                     37                     38                     39
                      A                      A                      A
 Frequencies --    708.8818               742.6984               763.6384
 Red. masses --      5.3670                 4.9504                 7.6105
 Frc consts  --      1.5890                 1.6089                 2.6148
 IR Inten    --      6.0594                47.3152                22.3502

                     40                     41                     42
                      A                      A                      A
 Frequencies --    780.4358               796.4694               805.7148
 Red. masses --      5.5215                 2.4038                 1.6609
 Frc consts  --      1.9814                 0.8984                 0.6353
 IR Inten    --     17.5680                13.9684                 4.8630

                     43                     44                     45
                      A                      A                      A
 Frequencies --    818.0062               839.4027               846.8889
 Red. masses --      1.1329                 1.5398                 1.5330
 Frc consts  --      0.4466                 0.6392                 0.6478
 IR Inten    --      0.3490                27.8462                37.6478

                     46                     47                     48
                      A                      A                      A
 Frequencies --    857.8683               888.5388               892.2405
 Red. masses --      6.2668                 3.4022                 2.7252
 Frc consts  --      2.7173                 1.5826                 1.2782
 IR Inten    --     37.7290                16.2873                 4.9617

                     49                     50                     51
                      A                      A                      A
 Frequencies --    902.5767               949.4569               968.0902
 Red. masses --      1.7403                 2.8308                 1.3048
 Frc consts  --      0.8353                 1.5035                 0.7205
 IR Inten    --     21.0045                58.3732                 0.7927

                     52                     53                     54
                      A                      A                      A
 Frequencies --    995.6135              1009.7857              1040.8786
 Red. masses --      4.7982                 2.6942                 2.9929
 Frc consts  --      2.8023                 1.6186                 1.9105
 IR Inten    --     78.4207                12.0200                27.6235

                     55                     56                     57
                      A                      A                      A
 Frequencies --   1052.5867              1071.3140              1087.1849
 Red. masses --      6.7499                 3.7905                 3.3684
 Frc consts  --      4.4062                 2.5632                 2.3458
 IR Inten    --    171.6625                16.0321               164.7223

                     58                     59                     60
                      A                      A                      A
 Frequencies --   1114.0126              1132.1524              1143.0607
 Red. masses --      1.9046                 2.2974                 2.1384
 Frc consts  --      1.3926                 1.7350                 1.6462
 IR Inten    --     23.1160               175.4645                14.2433

                     61                     62                     63
                      A                      A                      A
 Frequencies --   1167.7125              1186.3515              1208.0287
 Red. masses --      1.5482                 1.5193                 2.2320
 Frc consts  --      1.2438                 1.2599                 1.9191
 IR Inten    --     19.0938                 8.3175                94.8161

                     64                     65                     66
                      A                      A                      A
 Frequencies --   1224.9459              1228.1463              1254.5286
 Red. masses --      3.9864                 1.8420                 1.8934
 Frc consts  --      3.5242                 1.6370                 1.7557
 IR Inten    --    300.6960                58.4438               222.1929

                     67                     68                     69
                      A                      A                      A
 Frequencies --   1268.3041              1293.3767              1295.6575
 Red. masses --      1.8583                 1.8054                 1.1527
 Frc consts  --      1.7612                 1.7794                 1.1401
 IR Inten    --     74.4286               246.8359                12.8443

                     70                     71                     72
                      A                      A                      A
 Frequencies --   1298.9913              1308.8604              1336.4392
 Red. masses --      2.8125                 1.6185                 3.8295
 Frc consts  --      2.7961                 1.6336                 4.0298
 IR Inten    --     17.3925               280.6005                55.7043

                     73                     74                     75
                      A                      A                      A
 Frequencies --   1346.9656              1358.8051              1367.6085
 Red. masses --      1.5726                 3.0309                 1.2930
 Frc consts  --      1.6810                 3.2972                 1.4249
 IR Inten    --     90.1995                70.6829                22.8044

                     76                     77                     78
                      A                      A                      A
 Frequencies --   1377.6312              1385.9106              1418.2554
 Red. masses --      2.6468                 1.5800                 2.0468
 Frc consts  --      2.9597                 1.7881                 2.4256
 IR Inten    --     55.8161               147.4606               182.2430

                     79                     80                     81
                      A                      A                      A
 Frequencies --   1435.9160              1445.1672              1446.5190
 Red. masses --      2.8666                 1.7712                 2.3368
 Frc consts  --      3.4823                 2.1795                 2.8809
 IR Inten    --     22.9079                35.5659                 5.1063

                     82                     83                     84
                      A                      A                      A
 Frequencies --   1453.9379              1478.7115              1496.2155
 Red. masses --      1.7263                 2.8726                 1.0986
 Frc consts  --      2.1500                 3.7007                 1.4491
 IR Inten    --      7.3440               173.0901                34.2134

                     85                     86                     87
                      A                      A                      A
 Frequencies --   1506.7081              1513.7424              1525.0336
 Red. masses --      1.0400                 1.0544                 1.3494
 Frc consts  --      1.3911                 1.4236                 1.8490
 IR Inten    --      8.6106                 1.7060               103.6831

                     88                     89                     90
                      A                      A                      A
 Frequencies --   1536.8298              1538.0851              1538.8310
 Red. masses --      2.7288                 1.1667                 1.1455
 Frc consts  --      3.7972                 1.6262                 1.5982
 IR Inten    --    347.4473                43.5078                47.7168

                     91                     92                     93
                      A                      A                      A
 Frequencies --   1546.0756              1619.0015              1640.5738
 Red. masses --      3.5167                 9.1785                 7.6871
 Frc consts  --      4.9528                14.1748                12.1901
 IR Inten    --    122.9570               237.4412                27.4644

                     94                     95                     96
                      A                      A                      A
 Frequencies --   1668.4765              1697.4714              1740.9672
 Red. masses --      7.2564                10.0402                12.0206
 Frc consts  --     11.9018                17.0451                21.4663
 IR Inten    --     86.9056               541.6989               478.9768

                     97                     98                     99
                      A                      A                      A
 Frequencies --   3076.2035              3083.4243              3086.1546
 Red. masses --      1.0353                 1.0701                 1.0588
 Frc consts  --      5.7724                 5.9943                 5.9415
 IR Inten    --     24.1156                12.5820                50.7559

                    100                    101                    102
                      A                      A                      A
 Frequencies --   3093.4560              3109.1883              3133.6878
 Red. masses --      1.0576                 1.0606                 1.1075
 Frc consts  --      5.9627                 6.0408                 6.4075
 IR Inten    --     31.6675                33.7429                 5.0452

                    103                    104                    105
                      A                      A                      A
 Frequencies --   3143.4928              3149.4093              3156.3632
 Red. masses --      1.1069                 1.1023                 1.1067
 Frc consts  --      6.4442                 6.4420                 6.4961
 IR Inten    --     35.5630                37.5337                73.5630

                    106                    107                    108
                      A                      A                      A
 Frequencies --   3172.6743              3198.1746              3238.2423
 Red. masses --      1.1082                 1.0949                 1.0897
 Frc consts  --      6.5726                 6.5982                 6.7326
 IR Inten    --     26.0401                 2.0097                 5.5473

                    109                    110                    111
                      A                      A                      A
 Frequencies --   3253.6839              3261.5233              3302.0797
 Red. masses --      1.0954                 1.0914                 1.0976
 Frc consts  --      6.8324                 6.8406                 7.0512
 IR Inten    --      3.8078                 4.5341                 0.0419

 - Thermochemistry -
 -------------------
 Temperature   298.150 Kelvin.  Pressure   1.00000 Atm.
 Atom     1 has atomic number  6 and mass  12.00000

 Molecular mass:   335.10815 amu.
 Principal axes and moments of inertia in atomic units:
                           1         2         3
     Eigenvalues --  5653.31993********************
           X            0.99988   0.01518   0.00160
           Y           -0.01519   0.99987   0.00521
           Z           -0.00152  -0.00523   0.99999
 This molecule is an asymmetric top.
 Rotational symmetry number  1.
 Warning -- assumption of classical behavior for rotation
           may cause significant error
 Rotational temperatures (Kelvin)      0.01532     0.00710     0.00503
 Rotational constants (GHZ):           0.31924     0.14789     0.10491
 Zero-point vibrational energy     790068.9 (Joules/Mol)
                                  188.83101 (Kcal/Mol)
 Warning -- explicit consideration of  32 degrees of freedom as
           vibrations may cause significant error
 Vibrational temperatures:     34.71    50.36    59.74    74.43    85.21
          (Kelvin)            102.95   120.09   140.98   156.67   187.54
                              221.32   231.77   276.15   286.52   339.29
                              373.04   403.74   415.30   426.39   449.71
                              464.28   548.09   554.87   584.74   596.93
                              633.90   655.70   693.02   730.05   777.32
                              825.51   880.11   923.30   954.30   971.23
                              984.58  1019.92  1068.58  1098.71  1122.87
                             1145.94  1159.24  1176.93  1207.71  1218.48
                             1234.28  1278.41  1283.74  1298.61  1366.06
                             1392.87  1432.47  1452.86  1497.59  1514.44
                             1541.38  1564.22  1602.82  1628.91  1644.61
                             1680.08  1706.90  1738.08  1762.42  1767.03
                             1804.99  1824.81  1860.88  1864.16  1868.96
                             1883.16  1922.84  1937.98  1955.02  1967.68
                             1982.10  1994.02  2040.55  2065.96  2079.27
                             2081.22  2091.89  2127.54  2152.72  2167.82
                             2177.94  2194.18  2211.16  2212.96  2214.03
                             2224.46  2329.38  2360.42  2400.57  2442.28
                             2504.86  4425.97  4436.36  4440.29  4450.79
                             4473.43  4508.68  4522.78  4531.30  4541.30
                             4564.77  4601.46  4659.11  4681.33  4692.60
                             4750.96

 Zero-point correction=                           0.300921 (Hartree/Particle)
 Thermal correction to Energy=                    0.322056
 Thermal correction to Enthalpy=                  0.323000
 Thermal correction to Gibbs Free Energy=         0.248604
 Sum of electronic and zero-point Energies=          -1208.073602
 Sum of electronic and thermal Energies=             -1208.052467
 Sum of electronic and thermal Enthalpies=           -1208.051523
 Sum of electronic and thermal Free Energies=        -1208.125919

                     E (Thermal)             CV                S
                      KCal/Mol        Cal/Mol-Kelvin    Cal/Mol-Kelvin
 Total                  202.093             78.693            156.580
 Electronic               0.000              0.000              0.000
 Translational            0.889              2.981             43.323
 Rotational               0.889              2.981             35.427
 Vibrational            200.316             72.732             77.830
 Vibration     1          0.593              1.985              6.262
 Vibration     2          0.594              1.982              5.524
 Vibration     3          0.594              1.981              5.185
 Vibration     4          0.596              1.977              4.750
 Vibration     5          0.597              1.974              4.483
 Vibration     6          0.598              1.968              4.110
 Vibration     7          0.600              1.961              3.808
 Vibration     8          0.603              1.951              3.494
 Vibration     9          0.606              1.942              3.289
 Vibration    10          0.612              1.923              2.941
 Vibration    11          0.619              1.898              2.624
 Vibration    12          0.622              1.890              2.537
 Vibration    13          0.634              1.851              2.209
 Vibration    14          0.637              1.841              2.141
 Vibration    15          0.655              1.786              1.834
 Vibration    16          0.668              1.747              1.667
 Vibration    17          0.680              1.709              1.530
 Vibration    18          0.685              1.695              1.482
 Vibration    19          0.690              1.681              1.437
 Vibration    20          0.701              1.650              1.349
 Vibration    21          0.708              1.630              1.296
 Vibration    22          0.751              1.511              1.035
 Vibration    23          0.754              1.501              1.017
 Vibration    24          0.771              1.456              0.939
 Vibration    25          0.778              1.438              0.910
 Vibration    26          0.800              1.382              0.825
 Vibration    27          0.814              1.348              0.779
 Vibration    28          0.838              1.291              0.706
 Vibration    29          0.863              1.234              0.640
 Vibration    30          0.895              1.161              0.565
 Vibration    31          0.930              1.088              0.497
 Vibration    32          0.971              1.007              0.430

                           ! Non-Optimized Parameters !
 Normal termination of Gaussian 16 at Wed Mar  2 02:11:49 2022.

 ------------------------------------------
 #p b3lyp/6-31G(d) geom=allcheck guess=read
 ------------------------------------------

 Structure from the checkpoint file:  "216.n.pdb.xyz.mst.wat.chk"
 -------------
 216.n.pdb.xyz
 -------------
 Charge =  0 Multiplicity = 1

 SCF Done:  E(RB3LYP) =  -1208.35883233     A.U. after   12 cycles
 Normal termination of Gaussian 16 at Wed Mar  2 02:15:28 2022.
 Gaussian 16:  ES64L-G16RevA.03 25-Dec-2016

 ----------------------------------------------------------------------
 #p b3lyp/6-31G(d) scrf=(iefpcm,read,solvent=water) geom=allcheck guess
 =read
 ----------------------------------------------------------------------

 Structure from the checkpoint file:  "216.n.pdb.xyz.mst.wat.chk"
 -------------
 216.n.pdb.xyz
 -------------
 Charge =  0 Multiplicity = 1

                         Standard orientation:
 ---------------------------------------------------------------------
 Center     Atomic      Atomic             Coordinates (Angstroms)
 Number     Number       Type             X           Y           Z
 ---------------------------------------------------------------------
      1          6           0       -6.542885   -1.460203   -0.355042
      2          6           0       -5.505270   -0.488236    0.165571
      3          8           0       -4.200081   -1.070428   -0.083787
      4          6           0       -3.144986   -0.341736    0.308833
      5          8           0       -3.243916    0.752595    0.851090
      6          6           0       -1.864593   -0.998053    0.015725
      7          6           0       -0.615219   -0.497887    0.325486
      8          6           0       -0.120515    0.751225    0.965391
      9          7           0        0.620007    1.571224   -0.003361
     10          6           0        0.034918    2.832929   -0.451923
     11          6           0        0.461964    4.007852    0.421078
     12          9           0       -0.150792    5.160220   -0.081115
     13          6           0        1.827817    1.199069   -0.507564
     14          8           0        2.482392    1.946932   -1.242741
     15          6           0        2.398378   -0.150017   -0.139762
     16          6           0        1.694537   -1.364747   -0.007025
     17          6           0        2.384104   -2.557818    0.239424
     18          6           0        3.768595   -2.570732    0.350211
     19          6           0        4.451909   -1.368227    0.215703
     20          9           0        5.795628   -1.362009    0.326864
     21          6           0        3.794912   -0.176849   -0.032775
     22          7           0        0.280673   -1.432243   -0.138874
     23          6           0       -0.460385   -2.449315   -0.702229
     24          7           0       -1.747272   -2.220519   -0.624830
     25          1           0       -6.471376   -2.422447    0.158948
     26          1           0       -6.419875   -1.626926   -1.428459
     27          1           0       -7.542394   -1.051633   -0.182674
     28          1           0       -5.556584    0.478200   -0.341327
     29          1           0       -5.607815   -0.313906    1.239246
     30          1           0        0.517665    0.521825    1.824862
     31          1           0       -0.975647    1.323293    1.316515
     32          1           0        0.357149    3.015707   -1.477121
     33          1           0       -1.052160    2.733625   -0.433791
     34          1           0        0.148077    3.877776    1.460736
     35          1           0        1.543947    4.145636    0.382349
     36          1           0        1.825904   -3.478601    0.355907
     37          1           0        4.308956   -3.488073    0.547572
     38          1           0        4.352043    0.741163   -0.164017
     39          1           0        0.007881   -3.305084   -1.164137
 ---------------------------------------------------------------------

 SCF Done:  E(RB3LYP) =  -1208.37283472     A.U. after   11 cycles

 The electronic state is 1-A.
 Alpha  occ. eigenvalues --  -24.71836 -24.67836 -19.19479 -19.14120 -19.12897
 Alpha  occ. eigenvalues --  -14.42180 -14.38491 -14.33939 -10.32543 -10.30729
 Alpha  occ. eigenvalues --  -10.28759 -10.26427 -10.25984 -10.25953 -10.24691
 Alpha  occ. eigenvalues --  -10.24529 -10.24188 -10.23195 -10.22794 -10.22680
 Alpha  occ. eigenvalues --  -10.21902 -10.21513 -10.21320 -10.18002  -1.23025
 Alpha  occ. eigenvalues --   -1.18274  -1.10593  -1.05286  -1.04446  -1.01602
 Alpha  occ. eigenvalues --   -0.95437  -0.92384  -0.87368  -0.80808  -0.79048
 Alpha  occ. eigenvalues --   -0.78066  -0.76852  -0.75242  -0.72054  -0.68452
 Alpha  occ. eigenvalues --   -0.66239  -0.65876  -0.63700  -0.61781  -0.59545
 Alpha  occ. eigenvalues --   -0.58552  -0.57060  -0.55655  -0.54126  -0.52161
 Alpha  occ. eigenvalues --   -0.51092  -0.50208  -0.49876  -0.49337  -0.48744
 Alpha  occ. eigenvalues --   -0.48405  -0.47884  -0.47234  -0.46596  -0.46238
 Alpha  occ. eigenvalues --   -0.45494  -0.44880  -0.44043  -0.43087  -0.42483
 Alpha  occ. eigenvalues --   -0.41747  -0.41435  -0.40631  -0.40169  -0.40061
 Alpha  occ. eigenvalues --   -0.39047  -0.38979  -0.37618  -0.36881  -0.36146
 Alpha  occ. eigenvalues --   -0.35306  -0.34689  -0.33443  -0.31530  -0.30480
 Alpha  occ. eigenvalues --   -0.30178  -0.28705  -0.28232  -0.26603  -0.26286
 Alpha  occ. eigenvalues --   -0.25318  -0.24293
 Alpha virt. eigenvalues --   -0.05365  -0.04081  -0.02039   0.01847   0.03741
 Alpha virt. eigenvalues --    0.08531   0.09088   0.10496   0.10695   0.10991
 Alpha virt. eigenvalues --    0.12349   0.12606   0.12688   0.14142   0.14729

 Mulliken charges:
               1
     1  C   -0.468381
     2  C   -0.034046
     3  O   -0.475747
     4  C    0.622106
     5  O   -0.559658
     6  C    0.094005
     7  C    0.356453
     8  C   -0.270870
     9  N   -0.421410
    10  C   -0.197825
    11  C    0.049529
    12  F   -0.335615
    13  C    0.578900
    14  O   -0.576615
    15  C    0.062156
    16  C    0.283949
    17  C   -0.165103
    18  C   -0.201374
    19  C    0.395917
    20  F   -0.299828
    21  C   -0.254942
    22  N   -0.564181
    23  C    0.218099
    24  N   -0.550755
    25  H    0.165102
    26  H    0.165189
    27  H    0.166337
    28  H    0.167293
    29  H    0.167121
    30  H    0.210128
    31  H    0.220180
    32  H    0.187226
    33  H    0.182878
    34  H    0.157634
    35  H    0.160933
    36  H    0.190069
    37  H    0.186003
    38  H    0.182520
    39  H    0.206620
 Sum of Mulliken charges =  -0.00000

 Dipole moment (field-independent basis, Debye):
    X=              0.7126    Y=             -4.6720    Z=              3.2631  Tot=              5.7431
 Quadrupole moment (field-independent basis, Debye-Ang):
   XX=           -133.1234   YY=           -142.8406   ZZ=           -136.2034
   XY=            -12.1300   XZ=              6.3414   YZ=              3.9524

 Normal termination of Gaussian 16 at Wed Mar  2 02:19:34 2022.
