 Gaussian 16, Revision A.03,

 ----------------------------------------------------------------------
 #p b3lyp/6-31G(d) opt=(MaxStep=10,MaxCycles=1000) freq scf=(MaxCycle=2
 000,NoVarAcc,NoIncFock) scrf=(iefpcm,read,solvent=water)
 ----------------------------------------------------------------------

 -------------
 217.n.pdb.xyz
 -------------
 Symbolic Z-matrix:
 Charge =  0 Multiplicity = 1

 SCF Done:  E(RB3LYP) =  -805.482091362     A.U. after   12 cycles
 SCF Done:  E(RB3LYP) =  -805.485221827     A.U. after   10 cycles
 SCF Done:  E(RB3LYP) =  -805.482957807     A.U. after   10 cycles
 SCF Done:  E(RB3LYP) =  -805.486195637     A.U. after    9 cycles
 SCF Done:  E(RB3LYP) =  -805.486218560     A.U. after   10 cycles
 SCF Done:  E(RB3LYP) =  -805.486355896     A.U. after    9 cycles
 SCF Done:  E(RB3LYP) =  -805.486401052     A.U. after    9 cycles
 SCF Done:  E(RB3LYP) =  -805.486410306     A.U. after    9 cycles
 SCF Done:  E(RB3LYP) =  -805.486401579     A.U. after    8 cycles
 SCF Done:  E(RB3LYP) =  -805.486399394     A.U. after    8 cycles
 SCF Done:  E(RB3LYP) =  -805.486409827     A.U. after    8 cycles
 SCF Done:  E(RB3LYP) =  -805.486402243     A.U. after    8 cycles
 SCF Done:  E(RB3LYP) =  -805.486409823     A.U. after    8 cycles
 SCF Done:  E(RB3LYP) =  -805.486409846     A.U. after    6 cycles
 Optimization completed.
    -- Stationary point found.
 Normal termination of Gaussian 16 at Wed Mar  2 03:35:55 2022.

 --------------------------------------------------------------------
 #P Geom=AllCheck Guess=TCheck SCRF=Check GenChk RB3LYP/6-31G(d) Freq
 --------------------------------------------------------------------

 Structure from the checkpoint file:  "217.n.pdb.xyz.mst.wat.chk"
 -------------
 217.n.pdb.xyz
 -------------
 Charge =  0 Multiplicity = 1

 SCF Done:  E(RB3LYP) =  -805.486409846     A.U. after    1 cycles

  Exact polarizability: 280.876 -15.301 259.760  -0.435  16.240 132.301
 Approx polarizability: 296.195 -15.856 291.482  -0.490  20.271 147.875

                      1                      2                      3
                      A                      A                      A
 Frequencies --     24.3178                39.9662                47.1215
 Red. masses --      5.0813                 4.5442                 3.1283
 Frc consts  --      0.0018                 0.0043                 0.0041
 IR Inten    --      1.0833                 0.0736                 0.1871

                      4                      5                      6
                      A                      A                      A
 Frequencies --     63.7683                67.3536               111.8760
 Red. masses --      4.0711                 3.3051                 3.4311
 Frc consts  --      0.0098                 0.0088                 0.0253
 IR Inten    --      2.2760                 1.3874                10.5636

                      7                      8                      9
                      A                      A                      A
 Frequencies --    129.7361               149.6438               180.9815
 Red. masses --      3.5635                 2.3740                 4.7898
 Frc consts  --      0.0353                 0.0313                 0.0924
 IR Inten    --      6.9627                 0.9217                 0.5972

                     10                     11                     12
                      A                      A                      A
 Frequencies --    187.7280               217.4363               231.8211
 Red. masses --      4.9065                 2.0896                 3.4999
 Frc consts  --      0.1019                 0.0582                 0.1108
 IR Inten    --      5.9121                66.4016                 6.1944

                     13                     14                     15
                      A                      A                      A
 Frequencies --    241.4910               263.6669               276.0885
 Red. masses --      1.1651                 1.3331                 1.4162
 Frc consts  --      0.0400                 0.0546                 0.0636
 IR Inten    --     30.9142                44.8091                28.9586

                     16                     17                     18
                      A                      A                      A
 Frequencies --    286.5335               303.8973               353.4776
 Red. masses --      4.2501                 2.2082                 3.2502
 Frc consts  --      0.2056                 0.1202                 0.2393
 IR Inten    --      6.3717                76.9566                 2.2140

                     19                     20                     21
                      A                      A                      A
 Frequencies --    398.3746               447.7870               456.9253
 Red. masses --      2.5383                 1.3269                 3.0142
 Frc consts  --      0.2373                 0.1568                 0.3708
 IR Inten    --      4.2182               143.5435                 7.4400

                     22                     23                     24
                      A                      A                      A
 Frequencies --    481.2284               488.7058               505.5475
 Red. masses --      2.7630                 2.9525                 4.5386
 Frc consts  --      0.3770                 0.4155                 0.6834
 IR Inten    --      8.8244                12.4219                11.2216

                     25                     26                     27
                      A                      A                      A
 Frequencies --    543.8573               549.2659               578.5959
 Red. masses --      3.0000                 3.3964                 3.9192
 Frc consts  --      0.5228                 0.6037                 0.7730
 IR Inten    --      7.1330                 3.9279                 6.7107

                     28                     29                     30
                      A                      A                      A
 Frequencies --    606.3095               635.9394               642.1465
 Red. masses --      3.9033                 5.3308                 3.4171
 Frc consts  --      0.8454                 1.2702                 0.8302
 IR Inten    --      0.1540                 9.0059                 3.5003

                     31                     32                     33
                      A                      A                      A
 Frequencies --    730.2994               737.5829               755.2730
 Red. masses --      1.4448                 5.8979                 1.2875
 Frc consts  --      0.4540                 1.8905                 0.4327
 IR Inten    --     16.9051                20.0071               145.6210

                     34                     35                     36
                      A                      A                      A
 Frequencies --    793.0021               825.3203               848.0886
 Red. masses --      3.4984                 1.8079                 3.6448
 Frc consts  --      1.2962                 0.7255                 1.5446
 IR Inten    --      7.7981                90.4197                20.0210

                     37                     38                     39
                      A                      A                      A
 Frequencies --    850.7381               853.2551               864.8240
 Red. masses --      1.3924                 2.0062                 1.2932
 Frc consts  --      0.5937                 0.8606                 0.5698
 IR Inten    --      1.8206                46.9210                 0.5511

                     40                     41                     42
                      A                      A                      A
 Frequencies --    901.6187               913.3154               941.0470
 Red. masses --      2.7551                 4.2826                 1.4213
 Frc consts  --      1.3196                 2.1047                 0.7416
 IR Inten    --     43.7261                22.1533                 5.0948

                     43                     44                     45
                      A                      A                      A
 Frequencies --    946.9073               948.6110               969.1546
 Red. masses --      1.2430                 1.3145                 1.4073
 Frc consts  --      0.6566                 0.6969                 0.7788
 IR Inten    --      3.2710                 0.2758                 3.1736

                     46                     47                     48
                      A                      A                      A
 Frequencies --    989.4225              1001.3971              1056.7077
 Red. masses --      2.7640                 2.3083                 1.9857
 Frc consts  --      1.5942                 1.3638                 1.3064
 IR Inten    --     15.8292                22.5853                46.4554

                     49                     50                     51
                      A                      A                      A
 Frequencies --   1086.2877              1094.4398              1105.6051
 Red. masses --      1.8951                 1.9409                 2.3542
 Frc consts  --      1.3175                 1.3697                 1.6955
 IR Inten    --     98.6000                22.4029                80.7373

                     52                     53                     54
                      A                      A                      A
 Frequencies --   1113.3594              1122.5192              1129.4756
 Red. masses --      2.0788                 2.7914                 2.2986
 Frc consts  --      1.5182                 2.0723                 1.7277
 IR Inten    --    127.9438                90.4530                18.0045

                     55                     56                     57
                      A                      A                      A
 Frequencies --   1153.0910              1171.2238              1199.8875
 Red. masses --      1.6604                 1.9054                 1.5605
 Frc consts  --      1.3008                 1.5400                 1.3237
 IR Inten    --     88.5087                26.6698                18.6782

                     58                     59                     60
                      A                      A                      A
 Frequencies --   1200.6330              1210.0696              1236.4373
 Red. masses --      2.1652                 1.9110                 1.3187
 Frc consts  --      1.8390                 1.6486                 1.1878
 IR Inten    --      7.4932                51.5925                23.6849

                     61                     62                     63
                      A                      A                      A
 Frequencies --   1241.8499              1262.4373              1277.0946
 Red. masses --      2.1841                 1.1201                 1.9968
 Frc consts  --      1.9846                 1.0517                 1.9188
 IR Inten    --     46.3855                47.4460               242.3569

                     64                     65                     66
                      A                      A                      A
 Frequencies --   1305.1335              1321.8762              1324.5375
 Red. masses --      1.1635                 1.9887                 1.4722
 Frc consts  --      1.1677                 2.0474                 1.5218
 IR Inten    --     45.4238               166.2809                29.2042

                     67                     68                     69
                      A                      A                      A
 Frequencies --   1366.7277              1388.8078              1391.5351
 Red. masses --      1.3081                 2.5934                 1.3354
 Frc consts  --      1.4396                 2.9472                 1.5235
 IR Inten    --      5.9153                19.7969                42.6126

                     70                     71                     72
                      A                      A                      A
 Frequencies --   1399.7057              1405.5509              1427.6209
 Red. masses --      2.1916                 1.9050                 1.3744
 Frc consts  --      2.5298                 2.2173                 1.6504
 IR Inten    --    120.2442                40.5403                 2.5914

                     73                     74                     75
                      A                      A                      A
 Frequencies --   1428.9788              1438.8903              1461.3404
 Red. masses --      1.3223                 1.2490                 1.8541
 Frc consts  --      1.5908                 1.5236                 2.3329
 IR Inten    --     14.2761                17.9243                15.9875

                     76                     77                     78
                      A                      A                      A
 Frequencies --   1465.6083              1476.8199              1497.1303
 Red. masses --      2.9446                 2.9497                 1.1176
 Frc consts  --      3.7266                 3.7904                 1.4759
 IR Inten    --     34.0689                61.2553                18.4822

                     79                     80                     81
                      A                      A                      A
 Frequencies --   1512.4130              1516.9354              1518.5389
 Red. masses --      1.0529                 1.1303                 1.0564
 Frc consts  --      1.4190                 1.5325                 1.4353
 IR Inten    --      1.2104                59.9486                 3.7554

                     82                     83                     84
                      A                      A                      A
 Frequencies --   1527.1843              1532.2548              1539.9795
 Red. masses --      1.0948                 1.0766                 1.1436
 Frc consts  --      1.5044                 1.4893                 1.5979
 IR Inten    --      7.4408                 6.2358                25.8997

                     85                     86                     87
                      A                      A                      A
 Frequencies --   1550.8123              1556.8323              1634.8831
 Red. masses --      3.1441                 3.2822                 5.4607
 Frc consts  --      4.4551                 4.6870                 8.5994
 IR Inten    --     93.2542                55.9029               119.7682

                     88                     89                     90
                      A                      A                      A
 Frequencies --   1665.7422              2938.2105              2956.0768
 Red. masses --      7.0857                 1.0812                 1.0728
 Frc consts  --     11.5837                 5.4994                 5.5234
 IR Inten    --     35.8508               148.9269               115.2147

                     91                     92                     93
                      A                      A                      A
 Frequencies --   3028.1246              3045.6639              3053.9389
 Red. masses --      1.0832                 1.0554                 1.0364
 Frc consts  --      5.8523                 5.7679                 5.6953
 IR Inten    --     77.4940                62.0499                44.8770

                     94                     95                     96
                      A                      A                      A
 Frequencies --   3060.3369              3093.0478              3102.5632
 Red. masses --      1.0371                 1.1058                 1.0902
 Frc consts  --      5.7230                 6.2332                 6.1829
 IR Inten    --     22.8703                36.2035                96.0845

                     97                     98                     99
                      A                      A                      A
 Frequencies --   3116.0104              3126.2533              3134.2560
 Red. masses --      1.1026                 1.1013                 1.1016
 Frc consts  --      6.3077                 6.3418                 6.3759
 IR Inten    --     60.5862                52.8370                54.5365

                    100                    101                    102
                      A                      A                      A
 Frequencies --   3140.1716              3204.0098              3224.7844
 Red. masses --      1.1006                 1.0872                 1.0938
 Frc consts  --      6.3942                 6.5756                 6.7019
 IR Inten    --     73.8094                14.1844                34.0830

                    103                    104                    105
                      A                      A                      A
 Frequencies --   3242.1585              3277.0184              3296.1872
 Red. masses --      1.0914                 1.0904                 1.1030
 Frc consts  --      6.7592                 6.8990                 7.0606
 IR Inten    --     18.6795                 2.5612                 7.4918

                    106                    107                    108
                      A                      A                      A
 Frequencies --   3479.5086              3637.3864              3724.4361
 Red. masses --      1.0737                 1.0819                 1.0660
 Frc consts  --      7.6588                 8.4333                 8.7119
 IR Inten    --      4.8883               230.0440                91.7228

 - Thermochemistry -
 -------------------
 Temperature   298.150 Kelvin.  Pressure   1.00000 Atm.
 Atom     1 has atomic number  6 and mass  12.00000

 Molecular mass:   248.15248 amu.
 Principal axes and moments of inertia in atomic units:
                           1         2         3
     Eigenvalues --  1468.21716********************
           X            1.00000  -0.00136   0.00162
           Y            0.00137   1.00000  -0.00142
           Z           -0.00162   0.00142   1.00000
 This molecule is an asymmetric top.
 Rotational symmetry number  1.
 Warning -- assumption of classical behavior for rotation
           may cause significant error
 Rotational temperatures (Kelvin)      0.05899     0.00647     0.00598
 Rotational constants (GHZ):           1.22921     0.13484     0.12452
 Zero-point vibrational energy     858790.4 (Joules/Mol)
                                  205.25584 (Kcal/Mol)
 Warning -- explicit consideration of  28 degrees of freedom as
           vibrations may cause significant error
 Vibrational temperatures:     34.99    57.50    67.80    91.75    96.91
          (Kelvin)            160.96   186.66   215.30   260.39   270.10
                              312.84   333.54   347.45   379.36   397.23
                              412.26   437.24   508.58   573.17   644.27
                              657.41   692.38   703.14   727.37   782.49
                              790.27   832.47   872.34   914.97   923.91
                             1050.74  1061.22  1086.67  1140.95  1187.45
                             1220.21  1224.02  1227.64  1244.29  1297.23
                             1314.06  1353.96  1362.39  1364.84  1394.40
                             1423.56  1440.79  1520.37  1562.93  1574.65
                             1590.72  1601.88  1615.05  1625.06  1659.04
                             1685.13  1726.37  1727.44  1741.02  1778.96
                             1786.74  1816.37  1837.45  1877.80  1901.89
                             1905.71  1966.42  1998.18  2002.11  2013.86
                             2022.27  2054.03  2055.98  2070.24  2102.54
                             2108.68  2124.81  2154.04  2176.02  2182.53
                             2184.84  2197.28  2204.57  2215.69  2231.27
                             2239.93  2352.23  2396.63  4227.43  4253.14
                             4356.80  4382.03  4393.94  4403.14  4450.21
                             4463.90  4483.24  4497.98  4509.50  4518.01
                             4609.86  4639.75  4664.74  4714.90  4742.48
                             5006.24  5233.39  5358.63

 Zero-point correction=                           0.327096 (Hartree/Particle)
 Thermal correction to Energy=                    0.345045
 Thermal correction to Enthalpy=                  0.345989
 Thermal correction to Gibbs Free Energy=         0.279917
 Sum of electronic and zero-point Energies=           -805.159314
 Sum of electronic and thermal Energies=              -805.141365
 Sum of electronic and thermal Enthalpies=            -805.140421
 Sum of electronic and thermal Free Energies=         -805.206493

                     E (Thermal)             CV                S
                      KCal/Mol        Cal/Mol-Kelvin    Cal/Mol-Kelvin
 Total                  216.519             68.583            139.060
 Electronic               0.000              0.000              0.000
 Translational            0.889              2.981             42.427
 Rotational               0.889              2.981             34.009
 Vibrational            214.741             62.621             62.623
 Vibration     1          0.593              1.985              6.246
 Vibration     2          0.594              1.981              5.261
 Vibration     3          0.595              1.979              4.935
 Vibration     4          0.597              1.972              4.337
 Vibration     5          0.598              1.970              4.229
 Vibration     6          0.607              1.940              3.236
 Vibration     7          0.612              1.924              2.950
 Vibration     8          0.618              1.903              2.677
 Vibration     9          0.630              1.866              2.318
 Vibration    10          0.632              1.857              2.250
 Vibration    11          0.646              1.814              1.980
 Vibration    12          0.653              1.792              1.865
 Vibration    13          0.658              1.777              1.792
 Vibration    14          0.670              1.739              1.637
 Vibration    15          0.678              1.718              1.558
 Vibration    16          0.684              1.699              1.494
 Vibration    17          0.695              1.666              1.395
 Vibration    18          0.730              1.568              1.151
 Vibration    19          0.765              1.474              0.969
 Vibration    20          0.807              1.366              0.802
 Vibration    21          0.815              1.346              0.775
 Vibration    22          0.838              1.292              0.707
 Vibration    23          0.845              1.275              0.687
 Vibration    24          0.861              1.238              0.644
 Vibration    25          0.899              1.153              0.557
 Vibration    26          0.905              1.141              0.546
 Vibration    27          0.935              1.078              0.488
 Vibration    28          0.965              1.018              0.439

                           ! Non-Optimized Parameters !
 Normal termination of Gaussian 16 at Wed Mar  2 04:08:03 2022.

 ------------------------------------------
 #p b3lyp/6-31G(d) geom=allcheck guess=read
 ------------------------------------------

 Structure from the checkpoint file:  "217.n.pdb.xyz.mst.wat.chk"
 -------------
 217.n.pdb.xyz
 -------------
 Charge =  0 Multiplicity = 1

 SCF Done:  E(RB3LYP) =  -805.465002597     A.U. after   11 cycles
 Normal termination of Gaussian 16 at Wed Mar  2 04:10:20 2022.
 Gaussian 16:  ES64L-G16RevA.03 25-Dec-2016

 ----------------------------------------------------------------------
 #p b3lyp/6-31G(d) scrf=(iefpcm,read,solvent=water) geom=allcheck guess
 =read
 ----------------------------------------------------------------------

 Structure from the checkpoint file:  "217.n.pdb.xyz.mst.wat.chk"
 -------------
 217.n.pdb.xyz
 -------------
 Charge =  0 Multiplicity = 1

                         Standard orientation:
 ---------------------------------------------------------------------
 Center     Atomic      Atomic             Coordinates (Angstroms)
 Number     Number       Type             X           Y           Z
 ---------------------------------------------------------------------
      1          6           0       -6.428274   -0.944478    0.325193
      2          6           0       -5.375814    0.151489    0.152598
      3          6           0       -5.754512    1.099066   -0.989022
      4          7           0       -4.067459   -0.474591   -0.105646
      5          6           0       -2.940173    0.442258    0.060780
      6          6           0       -1.620898   -0.308446   -0.068210
      7          8           0       -1.573320   -1.268117    0.986618
      8          6           0       -0.425844    0.630908    0.011762
      9          8           0        0.741398   -0.181205   -0.132370
     10          6           0        1.963127    0.423372   -0.016522
     11          6           0        3.087206   -0.423456   -0.131112
     12          6           0        3.258328   -1.831333   -0.349147
     13          6           0        4.612395   -2.063543   -0.364096
     14          7           0        5.288431   -0.878801   -0.166428
     15          6           0        4.383507    0.147511   -0.020437
     16          6           0        4.590891    1.519262    0.198040
     17          6           0        3.461140    2.316174    0.303124
     18          6           0        2.155040    1.784441    0.198130
     19          1           0       -6.183956   -1.602120    1.167247
     20          1           0       -6.495399   -1.559370   -0.579362
     21          1           0       -7.411918   -0.507483    0.515501
     22          1           0       -5.339522    0.743563    1.086028
     23          1           0       -5.845893    0.546755   -1.930986
     24          1           0       -6.711987    1.585957   -0.779896
     25          1           0       -5.006353    1.884730   -1.128359
     26          1           0       -3.938957   -1.223710    0.575101
     27          1           0       -2.961504    0.961062    1.036639
     28          1           0       -2.983839    1.214078   -0.713492
     29          1           0       -1.596976   -0.818499   -1.041764
     30          1           0       -0.747214   -1.769941    0.879585
     31          1           0       -0.462508    1.383555   -0.784496
     32          1           0       -0.405033    1.143463    0.980343
     33          1           0        2.482594   -2.571059   -0.478668
     34          1           0        5.158770   -2.984671   -0.500343
     35          1           0        6.294711   -0.780521   -0.135221
     36          1           0        5.589848    1.933164    0.279911
     37          1           0        3.573137    3.382469    0.471243
     38          1           0        1.303843    2.447549    0.285046
 ---------------------------------------------------------------------

 SCF Done:  E(RB3LYP) =  -805.484798938     A.U. after   11 cycles

 The electronic state is 1-A.
 Alpha  occ. eigenvalues --  -19.18119 -19.14573 -14.37205 -14.31199 -10.24666
 Alpha  occ. eigenvalues --  -10.23759 -10.23735 -10.21780 -10.21499 -10.20867
 Alpha  occ. eigenvalues --  -10.20504 -10.18651 -10.18310 -10.18299 -10.17889
 Alpha  occ. eigenvalues --  -10.17460 -10.17025 -10.16805  -1.06710  -1.01782
 Alpha  occ. eigenvalues --   -0.97390  -0.90009  -0.83734  -0.78644  -0.77487
 Alpha  occ. eigenvalues --   -0.75013  -0.73048  -0.71116  -0.68424  -0.66862
 Alpha  occ. eigenvalues --   -0.61306  -0.59917  -0.58512  -0.58022  -0.56638
 Alpha  occ. eigenvalues --   -0.54814  -0.52394  -0.49960  -0.48501  -0.47484
 Alpha  occ. eigenvalues --   -0.47236  -0.46197  -0.45771  -0.44560  -0.43942
 Alpha  occ. eigenvalues --   -0.42193  -0.41673  -0.41028  -0.39674  -0.38971
 Alpha  occ. eigenvalues --   -0.38524  -0.38072  -0.37686  -0.37302  -0.36153
 Alpha  occ. eigenvalues --   -0.35650  -0.34888  -0.33994  -0.33518  -0.33026
 Alpha  occ. eigenvalues --   -0.31974  -0.31228  -0.27355  -0.25973  -0.22601
 Alpha  occ. eigenvalues --   -0.22406  -0.19494
 Alpha virt. eigenvalues --   -0.00291   0.02828   0.07152   0.08068   0.09645
 Alpha virt. eigenvalues --    0.10160   0.10994   0.11820   0.12348   0.13159
 Alpha virt. eigenvalues --    0.13778   0.14777   0.15131   0.15519   0.15973

 Mulliken charges:
               1
     1  C   -0.465342
     2  C    0.071461
     3  C   -0.450083
     4  N   -0.614108
     5  C   -0.127638
     6  C    0.100842
     7  O   -0.675597
     8  C   -0.044679
     9  O   -0.552124
    10  C    0.297453
    11  C    0.044480
    12  C   -0.262707
    13  C    0.032128
    14  N   -0.665977
    15  C    0.289607
    16  C   -0.191648
    17  C   -0.187894
    18  C   -0.238637
    19  H    0.148425
    20  H    0.147299
    21  H    0.151078
    22  H    0.110816
    23  H    0.143646
    24  H    0.146545
    25  H    0.150586
    26  H    0.327068
    27  H    0.124317
    28  H    0.154998
    29  H    0.137203
    30  H    0.435668
    31  H    0.157348
    32  H    0.155869
    33  H    0.144321
    34  H    0.174617
    35  H    0.389969
    36  H    0.146083
    37  H    0.142751
    38  H    0.151855
 Sum of Mulliken charges =  -0.00000

 Dipole moment (field-independent basis, Debye):
    X=              3.5267    Y=              0.4157    Z=              0.1945  Tot=              3.5564
 Quadrupole moment (field-independent basis, Debye-Ang):
   XX=            -72.4760   YY=            -99.4434   ZZ=           -113.6088
   XY=            -10.7629   XZ=             -2.9960   YZ=              0.5952

 Normal termination of Gaussian 16 at Wed Mar  2 04:13:19 2022.
