 Gaussian 16, Revision A.03,

 ----------------------------------------------------------------------
 #p b3lyp/6-31G(d) opt=(MaxStep=10,MaxCycles=1000) freq scf=(MaxCycle=2
 000,NoVarAcc,NoIncFock) scrf=(iefpcm,read,solvent=water)
 ----------------------------------------------------------------------

 -------------
 218.n.pdb.xyz
 -------------
 Symbolic Z-matrix:
 Charge =  0 Multiplicity = 1

 SCF Done:  E(RB3LYP) =  -1088.20727945     A.U. after   13 cycles
 SCF Done:  E(RB3LYP) =  -1088.20996816     A.U. after   11 cycles
 SCF Done:  E(RB3LYP) =  -1088.21027609     A.U. after   12 cycles
 SCF Done:  E(RB3LYP) =  -1088.21124505     A.U. after   11 cycles
 SCF Done:  E(RB3LYP) =  -1088.21103562     A.U. after   11 cycles
 SCF Done:  E(RB3LYP) =  -1088.21127322     A.U. after   11 cycles
 SCF Done:  E(RB3LYP) =  -1088.21247129     A.U. after   11 cycles
 SCF Done:  E(RB3LYP) =  -1088.21282546     A.U. after   11 cycles
 SCF Done:  E(RB3LYP) =  -1088.21272835     A.U. after   14 cycles
 SCF Done:  E(RB3LYP) =  -1088.21421016     A.U. after   12 cycles
 SCF Done:  E(RB3LYP) =  -1088.21689611     A.U. after    8 cycles
 SCF Done:  E(RB3LYP) =  -1088.21691926     A.U. after    9 cycles
 SCF Done:  E(RB3LYP) =  -1088.21689491     A.U. after    9 cycles
 SCF Done:  E(RB3LYP) =  -1088.21689761     A.U. after    7 cycles
 SCF Done:  E(RB3LYP) =  -1088.21691778     A.U. after    9 cycles
 SCF Done:  E(RB3LYP) =  -1088.21691946     A.U. after    8 cycles
 SCF Done:  E(RB3LYP) =  -1088.21689823     A.U. after    9 cycles
 Optimization completed.
    -- Stationary point found.
 Normal termination of Gaussian 16 at Wed Mar  2 05:05:34 2022.

 --------------------------------------------------------------------
 #P Geom=AllCheck Guess=TCheck SCRF=Check GenChk RB3LYP/6-31G(d) Freq
 --------------------------------------------------------------------

 Structure from the checkpoint file:  "218.n.pdb.xyz.mst.wat.chk"
 -------------
 218.n.pdb.xyz
 -------------
 Charge =  0 Multiplicity = 1

 SCF Done:  E(RB3LYP) =  -1088.21689823     A.U. after    1 cycles

  Exact polarizability: 250.901  38.759 207.124  28.188  -7.296 173.613
 Approx polarizability: 261.739  43.396 230.721  36.100 -12.355 197.181

                      1                      2                      3
                      A                      A                      A
 Frequencies --     37.0002                66.1394                81.1300
 Red. masses --      7.0443                 3.6420                 1.6970
 Frc consts  --      0.0057                 0.0094                 0.0066
 IR Inten    --      0.0570                 0.2006                 0.2598

                      4                      5                      6
                      A                      A                      A
 Frequencies --     97.7776               116.5110               135.3276
 Red. masses --      3.5445                 3.8572                 4.0387
 Frc consts  --      0.0200                 0.0309                 0.0436
 IR Inten    --      0.0597                 5.8883                 8.9439

                      7                      8                      9
                      A                      A                      A
 Frequencies --    146.8270               166.6558               177.7190
 Red. masses --      5.3745                 2.6604                 2.7099
 Frc consts  --      0.0683                 0.0435                 0.0504
 IR Inten    --      3.1654                 0.5801                 0.2619

                     10                     11                     12
                      A                      A                      A
 Frequencies --    198.7852               213.5986               227.2425
 Red. masses --      2.0456                 3.7344                 1.5391
 Frc consts  --      0.0476                 0.1004                 0.0468
 IR Inten    --      0.3513                 2.0944                 2.1589

                     13                     14                     15
                      A                      A                      A
 Frequencies --    255.9895               261.0677               271.6796
 Red. masses --      2.3401                 1.3355                 3.1442
 Frc consts  --      0.0904                 0.0536                 0.1367
 IR Inten    --      4.9593                 4.3138                23.7493

                     16                     17                     18
                      A                      A                      A
 Frequencies --    312.5784               314.6607               335.0635
 Red. masses --      2.5660                 1.8996                 3.8112
 Frc consts  --      0.1477                 0.1108                 0.2521
 IR Inten    --      8.6259                 3.1888                16.0962

                     19                     20                     21
                      A                      A                      A
 Frequencies --    358.0600               387.7468               403.6324
 Red. masses --      3.6075                 3.9811                 3.8161
 Frc consts  --      0.2725                 0.3527                 0.3663
 IR Inten    --     15.3202                 2.4820                 5.2274

                     22                     23                     24
                      A                      A                      A
 Frequencies --    453.2749               515.4025               556.2776
 Red. masses --      2.7025                 8.8174                 6.0454
 Frc consts  --      0.3271                 1.3800                 1.1022
 IR Inten    --      2.5836                28.2158                22.6510

                     25                     26                     27
                      A                      A                      A
 Frequencies --    569.5803               641.9707               644.9384
 Red. masses --      4.6566                 1.5557                 4.0015
 Frc consts  --      0.8901                 0.3778                 0.9806
 IR Inten    --     40.6801                22.9874                15.6156

                     28                     29                     30
                      A                      A                      A
 Frequencies --    645.3208               685.8086               696.6357
 Red. masses --      5.6002                 1.8726                 2.0343
 Frc consts  --      1.3741                 0.5189                 0.5817
 IR Inten    --     26.6684               117.3124                81.7621

                     31                     32                     33
                      A                      A                      A
 Frequencies --    727.6686               746.2644               755.0703
 Red. masses --      2.6240                 5.6451                 1.1208
 Frc consts  --      0.8186                 1.8523                 0.3765
 IR Inten    --    119.1780                 7.4995                 8.5970

                     34                     35                     36
                      A                      A                      A
 Frequencies --    780.6868               866.9830               892.8157
 Red. masses --      1.3487                 1.4629                 1.8472
 Frc consts  --      0.4843                 0.6479                 0.8675
 IR Inten    --     41.9322                 0.0253                 6.8054

                     37                     38                     39
                      A                      A                      A
 Frequencies --    929.8617               947.9398               964.4999
 Red. masses --      2.5420                 2.1399                 2.7832
 Frc consts  --      1.2950                 1.1330                 1.5255
 IR Inten    --     25.4507                 2.8072                 6.5527

                     40                     41                     42
                      A                      A                      A
 Frequencies --    977.3674              1025.3970              1031.0099
 Red. masses --      1.9765                 1.7045                 3.8451
 Frc consts  --      1.1124                 1.0559                 2.4081
 IR Inten    --     16.9932                30.0266                60.7788

                     43                     44                     45
                      A                      A                      A
 Frequencies --   1038.0459              1068.8263              1099.6958
 Red. masses --      1.9811                 2.3923                 2.3859
 Frc consts  --      1.2577                 1.6102                 1.7000
 IR Inten    --     12.1919                 4.7281                 5.2928

                     46                     47                     48
                      A                      A                      A
 Frequencies --   1133.4055              1142.0925              1148.5034
 Red. masses --      2.3245                 2.2726                 2.1573
 Frc consts  --      1.7594                 1.7466                 1.6766
 IR Inten    --     23.2017                17.4629                23.4227

                     49                     50                     51
                      A                      A                      A
 Frequencies --   1171.1716              1176.0809              1205.3614
 Red. masses --      2.6050                 2.8352                 2.0244
 Frc consts  --      2.1052                 2.3105                 1.7330
 IR Inten    --    237.5510               402.2168                19.2811

                     52                     53                     54
                      A                      A                      A
 Frequencies --   1233.0364              1281.8144              1313.2929
 Red. masses --      4.3233                 1.3325                 1.5402
 Frc consts  --      3.8727                 1.2899                 1.5652
 IR Inten    --     75.4165                12.4575               391.3197

                     55                     56                     57
                      A                      A                      A
 Frequencies --   1333.0032              1346.0233              1351.3970
 Red. masses --      1.5777                 1.4262                 1.3989
 Frc consts  --      1.6517                 1.5224                 1.5053
 IR Inten    --    334.3850               200.3813               230.5121

                     58                     59                     60
                      A                      A                      A
 Frequencies --   1370.2297              1388.1064              1408.5514
 Red. masses --      1.3249                 1.3139                 1.4520
 Frc consts  --      1.4656                 1.4917                 1.6974
 IR Inten    --     40.1954                 2.3856                 8.5170

                     61                     62                     63
                      A                      A                      A
 Frequencies --   1416.3021              1418.1563              1428.5412
 Red. masses --      1.3713                 1.8641                 1.2352
 Frc consts  --      1.6206                 2.2088                 1.4851
 IR Inten    --     23.8538               116.6248                 5.2568

                     64                     65                     66
                      A                      A                      A
 Frequencies --   1434.1905              1438.0591              1461.0190
 Red. masses --      1.2524                 1.2349                 2.8211
 Frc consts  --      1.5178                 1.5046                 3.5479
 IR Inten    --      4.0525                15.7048               380.3810

                     67                     68                     69
                      A                      A                      A
 Frequencies --   1502.5458              1507.7085              1511.5043
 Red. masses --      1.0684                 1.0585                 1.0494
 Frc consts  --      1.4211                 1.4177                 1.4126
 IR Inten    --      5.0041                 5.1993                 3.0687

                     70                     71                     72
                      A                      A                      A
 Frequencies --   1514.6985              1519.6451              1522.2250
 Red. masses --      1.0538                 1.0415                 1.0643
 Frc consts  --      1.4245                 1.4171                 1.4531
 IR Inten    --      2.8351                 6.8044                 2.1673

                     73                     74                     75
                      A                      A                      A
 Frequencies --   1527.3976              1538.0452              1542.3759
 Red. masses --      1.0579                 1.0865                 1.0536
 Frc consts  --      1.4542                 1.5144                 1.4767
 IR Inten    --      4.6596                15.1912                 6.9338

                     76                     77                     78
                      A                      A                      A
 Frequencies --   1550.4471              1758.0548              1791.6426
 Red. masses --      1.8644                 9.9783                10.4865
 Frc consts  --      2.6406                18.1706                19.8329
 IR Inten    --   1030.5602               766.9169               513.2906

                     79                     80                     81
                      A                      A                      A
 Frequencies --   3046.1914              3048.0965              3054.5510
 Red. masses --      1.0617                 1.0795                 1.0370
 Frc consts  --      5.8045                 5.9093                 5.7004
 IR Inten    --     24.7838                27.9240                40.7196

                     82                     83                     84
                      A                      A                      A
 Frequencies --   3063.1993              3066.8132              3075.8969
 Red. masses --      1.0713                 1.0637                 1.0442
 Frc consts  --      5.9227                 5.8943                 5.8205
 IR Inten    --     36.3578                78.3590                67.9661

                     85                     86                     87
                      A                      A                      A
 Frequencies --   3077.4259              3083.7307              3113.9115
 Red. masses --      1.0857                 1.0476                 1.1015
 Frc consts  --      6.0580                 5.8697                 6.2929
 IR Inten    --      1.6595                45.4548                 1.7757

                     88                     89                     90
                      A                      A                      A
 Frequencies --   3121.2733              3123.9765              3139.6100
 Red. masses --      1.1028                 1.1021                 1.0972
 Frc consts  --      6.3300                 6.3371                 6.3723
 IR Inten    --    137.5892                67.9141                69.4462

                     91                     92                     93
                      A                      A                      A
 Frequencies --   3141.4259              3142.0116              3173.9791
 Red. masses --      1.0917                 1.1019                 1.1002
 Frc consts  --      6.3473                 6.4094                 6.5300
 IR Inten    --      8.0753                44.5538                25.8059

                     94                     95                     96
                      A                      A                      A
 Frequencies --   3178.3405              3557.0268              3564.7342
 Red. masses --      1.1008                 1.0780                 1.0805
 Frc consts  --      6.5515                 8.0364                 8.0899
 IR Inten    --     31.6170               270.0857               115.7031

 - Thermochemistry -
 -------------------
 Temperature   298.150 Kelvin.  Pressure   1.00000 Atm.
 Atom     1 has atomic number  6 and mass  12.00000

 Molecular mass:   242.10890 amu.
 Principal axes and moments of inertia in atomic units:
                           1         2         3
     Eigenvalues --  2841.755275512.578196483.18066
           X            0.99963  -0.02559  -0.00962
           Y            0.02583   0.99932   0.02639
           Z            0.00894  -0.02663   0.99961
 This molecule is an asymmetric top.
 Rotational symmetry number  1.
 Warning -- assumption of classical behavior for rotation
           may cause significant error
 Rotational temperatures (Kelvin)      0.03048     0.01571     0.01336
 Rotational constants (GHZ):           0.63508     0.32739     0.27837
 Zero-point vibrational energy     759529.1 (Joules/Mol)
                                  181.53182 (Kcal/Mol)
 Warning -- explicit consideration of  25 degrees of freedom as
           vibrations may cause significant error
 Vibrational temperatures:     53.24    95.16   116.73   140.68   167.63
          (Kelvin)            194.71   211.25   239.78   255.70   286.01
                              307.32   326.95   368.31   375.62   390.89
                              449.73   452.73   482.08   515.17   557.88
                              580.74   652.16   741.55   800.36   819.50
                              923.65   927.92   928.47   986.73  1002.30
                             1046.95  1073.71  1086.38  1123.23  1247.40
                             1284.56  1337.86  1363.87  1387.70  1406.21
                             1475.32  1483.39  1493.52  1537.80  1582.22
                             1630.72  1643.22  1652.44  1685.05  1692.12
                             1734.25  1774.06  1844.25  1889.54  1917.89
                             1936.63  1944.36  1971.45  1997.18  2026.59
                             2037.74  2040.41  2055.35  2063.48  2069.05
                             2102.08  2161.83  2169.26  2174.72  2179.31
                             2186.43  2190.14  2197.58  2212.90  2219.13
                             2230.75  2529.45  2577.77  4382.79  4385.53
                             4394.82  4407.26  4412.46  4425.53  4427.73
                             4436.80  4480.22  4490.82  4494.71  4517.20
                             4519.81  4520.65  4566.65  4572.92  5117.77
                             5128.86

 Zero-point correction=                           0.289289 (Hartree/Particle)
 Thermal correction to Energy=                    0.306313
 Thermal correction to Enthalpy=                  0.307257
 Thermal correction to Gibbs Free Energy=         0.245012
 Sum of electronic and zero-point Energies=          -1087.927609
 Sum of electronic and thermal Energies=             -1087.910585
 Sum of electronic and thermal Enthalpies=           -1087.909641
 Sum of electronic and thermal Free Energies=        -1087.971886

                     E (Thermal)             CV                S
                      KCal/Mol        Cal/Mol-Kelvin    Cal/Mol-Kelvin
 Total                  192.214             63.973            131.005
 Electronic               0.000              0.000              0.000
 Translational            0.889              2.981             42.354
 Rotational               0.889              2.981             32.985
 Vibrational            190.437             58.012             55.667
 Vibration     1          0.594              1.982              5.414
 Vibration     2          0.598              1.970              4.265
 Vibration     3          0.600              1.962              3.863
 Vibration     4          0.603              1.951              3.498
 Vibration     5          0.608              1.936              3.157
 Vibration     6          0.613              1.918              2.869
 Vibration     7          0.617              1.906              2.713
 Vibration     8          0.624              1.883              2.473
 Vibration     9          0.628              1.870              2.352
 Vibration    10          0.637              1.842              2.144
 Vibration    11          0.644              1.820              2.013
 Vibration    12          0.651              1.799              1.901
 Vibration    13          0.666              1.753              1.689
 Vibration    14          0.669              1.744              1.655
 Vibration    15          0.675              1.725              1.585
 Vibration    16          0.701              1.650              1.349
 Vibration    17          0.702              1.646              1.338
 Vibration    18          0.716              1.605              1.236
 Vibration    19          0.733              1.559              1.131
 Vibration    20          0.756              1.496              1.009
 Vibration    21          0.769              1.462              0.949
 Vibration    22          0.812              1.354              0.786
 Vibration    23          0.870              1.216              0.621
 Vibration    24          0.912              1.126              0.531
 Vibration    25          0.926              1.097              0.505

 Optimization completed.
    -- Stationary point found.
 Normal termination of Gaussian 16 at Wed Mar  2 05:41:10 2022.

 ------------------------------------------
 #p b3lyp/6-31G(d) geom=allcheck guess=read
 ------------------------------------------

 Structure from the checkpoint file:  "218.n.pdb.xyz.mst.wat.chk"
 -------------
 218.n.pdb.xyz
 -------------
 Charge =  0 Multiplicity = 1

 SCF Done:  E(RB3LYP) =  -1088.19713272     A.U. after   12 cycles
 Normal termination of Gaussian 16 at Wed Mar  2 05:43:57 2022.
 Gaussian 16:  ES64L-G16RevA.03 25-Dec-2016

 ----------------------------------------------------------------------
 #p b3lyp/6-31G(d) scrf=(iefpcm,read,solvent=water) geom=allcheck guess
 =read
 ----------------------------------------------------------------------

 Structure from the checkpoint file:  "218.n.pdb.xyz.mst.wat.chk"
 -------------
 218.n.pdb.xyz
 -------------
 Charge =  0 Multiplicity = 1

                         Standard orientation:
 ---------------------------------------------------------------------
 Center     Atomic      Atomic             Coordinates (Angstroms)
 Number     Number       Type             X           Y           Z
 ---------------------------------------------------------------------
      1          6           0        4.288439   -2.179922   -0.206929
      2          6           0        2.969291   -1.715231   -0.826917
      3          6           0        2.329693   -0.557362   -0.050640
      4          6           0        1.009369   -0.071811   -0.679528
      5          6           0        1.249218    0.726484   -1.969177
      6          6           0        0.105300    0.693782    0.401098
      7          6           0        0.877868    1.693393    1.300838
      8          6           0        1.721037    2.784959    0.636020
      9          6           0       -1.032474    1.379317   -0.343388
     10          8           0       -0.996512    2.529825   -0.743344
     11          7           0       -2.147176    0.592240   -0.638328
     12          6           0       -2.484069   -0.594257   -0.052086
     13         16           0       -3.890872   -1.415536   -0.433057
     14          7           0       -1.604434   -1.049893    0.888442
     15          6           0       -0.430279   -0.423926    1.300637
     16          8           0        0.152717   -0.836415    2.288877
     17          1           0        4.719896   -3.012984   -0.770630
     18          1           0        4.144111   -2.514402    0.826257
     19          1           0        5.025367   -1.369537   -0.192881
     20          1           0        3.142880   -1.416659   -1.867329
     21          1           0        2.262362   -2.553719   -0.861566
     22          1           0        3.036879    0.278381    0.005292
     23          1           0        2.144901   -0.881399    0.977904
     24          1           0        0.440766   -0.965979   -0.962582
     25          1           0        0.319806    0.938251   -2.503951
     26          1           0        1.883145    0.135129   -2.634943
     27          1           0        1.755372    1.672510   -1.775048
     28          1           0        0.143722    2.166039    1.964242
     29          1           0        1.514667    1.083937    1.942963
     30          1           0        1.119180    3.416838   -0.018153
     31          1           0        2.543734    2.366597    0.051937
     32          1           0        2.160540    3.414290    1.416492
     33          1           0       -2.837599    1.015038   -1.254294
     34          1           0       -1.874499   -1.880017    1.410582
 ---------------------------------------------------------------------

 SCF Done:  E(RB3LYP) =  -1088.21510559     A.U. after   11 cycles

 The electronic state is 1-A.
 Alpha  occ. eigenvalues --  -88.85376 -19.15768 -19.15579 -14.40636 -14.40550
 Alpha  occ. eigenvalues --  -10.33865 -10.32638 -10.32563 -10.23578 -10.21424
 Alpha  occ. eigenvalues --  -10.19192 -10.18012 -10.17957 -10.17735 -10.17153
 Alpha  occ. eigenvalues --  -10.17097  -7.91658  -5.88199  -5.87639  -5.87239
 Alpha  occ. eigenvalues --   -1.08407  -1.07147  -1.01301  -0.93234  -0.84966
 Alpha  occ. eigenvalues --   -0.79481  -0.77629  -0.75081  -0.72192  -0.68264
 Alpha  occ. eigenvalues --   -0.65928  -0.65543  -0.62838  -0.61391  -0.58016
 Alpha  occ. eigenvalues --   -0.56707  -0.54924  -0.50266  -0.49393  -0.48093
 Alpha  occ. eigenvalues --   -0.47053  -0.46168  -0.45433  -0.44351  -0.42583
 Alpha  occ. eigenvalues --   -0.41632  -0.41238  -0.40924  -0.40472  -0.39208
 Alpha  occ. eigenvalues --   -0.38578  -0.37479  -0.36919  -0.36271  -0.35521
 Alpha  occ. eigenvalues --   -0.34930  -0.33792  -0.32780  -0.32455  -0.31375
 Alpha  occ. eigenvalues --   -0.30316  -0.28788  -0.28099  -0.25269  -0.23941
 Alpha virt. eigenvalues --   -0.07602  -0.00482   0.02428   0.05922   0.08577
 Alpha virt. eigenvalues --    0.10724   0.10827   0.11902   0.12252   0.13010
 Alpha virt. eigenvalues --    0.14128   0.14767   0.15298   0.15969   0.16732

 Mulliken charges:
               1
     1  C   -0.452314
     2  C   -0.261268
     3  C   -0.276411
     4  C   -0.100818
     5  C   -0.475196
     6  C   -0.138586
     7  C   -0.263169
     8  C   -0.470629
     9  C    0.648934
    10  O   -0.513549
    11  N   -0.618289
    12  C    0.402568
    13  S   -0.319186
    14  N   -0.623644
    15  C    0.654016
    16  O   -0.512139
    17  H    0.147545
    18  H    0.146913
    19  H    0.147209
    20  H    0.144453
    21  H    0.139932
    22  H    0.147729
    23  H    0.159189
    24  H    0.154492
    25  H    0.160217
    26  H    0.165660
    27  H    0.167454
    28  H    0.154960
    29  H    0.170913
    30  H    0.170101
    31  H    0.156920
    32  H    0.150187
    33  H    0.417422
    34  H    0.418386
 Sum of Mulliken charges =  -0.00000

 Dipole moment (field-independent basis, Debye):
    X=              2.7848    Y=              0.1588    Z=             -0.6600  Tot=              2.8663
 Quadrupole moment (field-independent basis, Debye-Ang):
   XX=           -116.3312   YY=           -111.7961   ZZ=           -107.4625
   XY=             -5.6777   XZ=             -5.3989   YZ=              1.7719

 Normal termination of Gaussian 16 at Wed Mar  2 05:47:00 2022.
