 Gaussian 16, Revision A.03,

 ----------------------------------------------------------------------
 #p b3lyp/6-31G(d) opt=(MaxStep=10,MaxCycles=1000) freq scf=(MaxCycle=2
 000,NoVarAcc,NoIncFock) scrf=(iefpcm,read,solvent=water)
 ----------------------------------------------------------------------

 -------------
 219.n.pdb.xyz
 -------------
 Symbolic Z-matrix:
 Charge =  0 Multiplicity = 1

 SCF Done:  E(RB3LYP) =  -647.328375109     A.U. after   12 cycles
 SCF Done:  E(RB3LYP) =  -647.331196975     A.U. after   11 cycles
 SCF Done:  E(RB3LYP) =  -647.327866150     A.U. after   11 cycles
 SCF Done:  E(RB3LYP) =  -647.331257342     A.U. after   11 cycles
 SCF Done:  E(RB3LYP) =  -647.331815396     A.U. after   11 cycles
 SCF Done:  E(RB3LYP) =  -647.331896281     A.U. after   10 cycles
 SCF Done:  E(RB3LYP) =  -647.331964759     A.U. after   10 cycles
 SCF Done:  E(RB3LYP) =  -647.331627366     A.U. after   11 cycles
 SCF Done:  E(RB3LYP) =  -647.331998546     A.U. after   10 cycles
 SCF Done:  E(RB3LYP) =  -647.332063150     A.U. after    9 cycles
 SCF Done:  E(RB3LYP) =  -647.332167871     A.U. after    3 cycles
 SCF Done:  E(RB3LYP) =  -647.332167869     A.U. after    2 cycles
 SCF Done:  E(RB3LYP) =  -647.332119022     A.U. after   11 cycles
 SCF Done:  E(RB3LYP) =  -647.332115548     A.U. after    8 cycles
 SCF Done:  E(RB3LYP) =  -647.332116941     A.U. after    7 cycles
 SCF Done:  E(RB3LYP) =  -647.332167851     A.U. after   11 cycles
 SCF Done:  E(RB3LYP) =  -647.332117717     A.U. after   11 cycles
 Optimization completed.
    -- Stationary point found.
 Normal termination of Gaussian 16 at Wed Mar  2 06:29:59 2022.

 --------------------------------------------------------------------
 #P Geom=AllCheck Guess=TCheck SCRF=Check GenChk RB3LYP/6-31G(d) Freq
 --------------------------------------------------------------------

 Structure from the checkpoint file:  "219.n.pdb.xyz.mst.wat.chk"
 -------------
 219.n.pdb.xyz
 -------------
 Charge =  0 Multiplicity = 1

 SCF Done:  E(RB3LYP) =  -647.332117717     A.U. after    1 cycles

  Exact polarizability: 166.270  -0.104 136.143   0.327   6.884  99.500
 Approx polarizability: 182.226  -0.126 156.241   0.517  12.305 109.154

                      1                      2                      3
                      A                      A                      A
 Frequencies --      6.6464                92.1647               106.9866
 Red. masses --      6.3159                 2.1966                 1.8073
 Frc consts  --      0.0002                 0.0110                 0.0122
 IR Inten    --      2.4607                 0.0401                 0.1269

                      4                      5                      6
                      A                      A                      A
 Frequencies --    122.7735               144.4172               160.7755
 Red. masses --      6.0364                11.2673                 1.6455
 Frc consts  --      0.0536                 0.1385                 0.0251
 IR Inten    --      0.1762                10.8678                 0.6352

                      7                      8                      9
                      A                      A                      A
 Frequencies --    197.8797               236.7143               243.2002
 Red. masses --      2.6790                 1.6269                 2.1804
 Frc consts  --      0.0618                 0.0537                 0.0760
 IR Inten    --      0.2644                 2.3217                 1.5214

                     10                     11                     12
                      A                      A                      A
 Frequencies --    263.6275               274.4106               322.1016
 Red. masses --      2.4690                 2.1757                 3.5699
 Frc consts  --      0.1011                 0.0965                 0.2182
 IR Inten    --      3.4612                 5.5550                22.2192

                     13                     14                     15
                      A                      A                      A
 Frequencies --    356.7901               393.2846               406.6770
 Red. masses --      3.8562                 7.2920                12.0180
 Frc consts  --      0.2892                 0.6645                 1.1711
 IR Inten    --     11.9271                62.5971                 5.5341

                     16                     17                     18
                      A                      A                      A
 Frequencies --    502.4136               520.9789               616.8425
 Red. masses --     10.4048                 3.6021                 1.2438
 Frc consts  --      1.5474                 0.5760                 0.2788
 IR Inten    --     22.5876                43.6877                 5.5822

                     19                     20                     21
                      A                      A                      A
 Frequencies --    624.7008               657.3681               681.3060
 Red. masses --      4.8702                 1.1217                 3.3825
 Frc consts  --      1.1198                 0.2856                 0.9251
 IR Inten    --      4.9949               278.4414                 9.8732

                     22                     23                     24
                      A                      A                      A
 Frequencies --    718.1658               731.1264               754.5019
 Red. masses --      4.7792                 5.4096                 9.4531
 Frc consts  --      1.4523                 1.7037                 3.1706
 IR Inten    --     13.5427               129.6373                 9.4669

                     25                     26                     27
                      A                      A                      A
 Frequencies --    758.2247               766.3929               803.2788
 Red. masses --      3.5388                 1.6071                 1.3269
 Frc consts  --      1.1987                 0.5562                 0.5045
 IR Inten    --      0.7443                 1.8547                23.8389

                     28                     29                     30
                      A                      A                      A
 Frequencies --    947.9158               962.4798               967.1839
 Red. masses --      2.0682                 1.9068                 2.7756
 Frc consts  --      1.0949                 1.0408                 1.5298
 IR Inten    --      1.6259                 4.9270                 4.6001

                     31                     32                     33
                      A                      A                      A
 Frequencies --   1028.9802              1048.3913              1064.5295
 Red. masses --      1.8231                 2.8475                 2.8395
 Frc consts  --      1.1373                 1.8440                 1.8959
 IR Inten    --     16.4751                 0.0286                 0.5182

                     34                     35                     36
                      A                      A                      A
 Frequencies --   1101.0676              1148.1701              1175.8721
 Red. masses --      1.9451                 2.8221                 2.0528
 Frc consts  --      1.3894                 2.1920                 1.6723
 IR Inten    --     11.1953                14.3502                25.1047

                     37                     38                     39
                      A                      A                      A
 Frequencies --   1180.7063              1256.8404              1321.5653
 Red. masses --      2.4908                 3.2679                 1.3092
 Frc consts  --      2.0458                 3.0414                 1.3472
 IR Inten    --      6.1040               130.1456               153.9836

                     40                     41                     42
                      A                      A                      A
 Frequencies --   1328.7666              1366.2932              1382.3474
 Red. masses --      1.2492                 2.3820                 1.4428
 Frc consts  --      1.2995                 2.6199                 1.6243
 IR Inten    --     43.3708               512.7849                63.1835

                     43                     44                     45
                      A                      A                      A
 Frequencies --   1391.2616              1418.3521              1424.4160
 Red. masses --      1.4510                 2.1203                 1.2488
 Frc consts  --      1.6548                 2.5132                 1.4929
 IR Inten    --     63.2721                92.2164                14.3250

                     46                     47                     48
                      A                      A                      A
 Frequencies --   1430.4005              1442.8827              1465.9102
 Red. masses --      1.2840                 3.2437                 2.3906
 Frc consts  --      1.5479                 3.9788                 3.0267
 IR Inten    --      2.8001               431.8545               169.9544

                     49                     50                     51
                      A                      A                      A
 Frequencies --   1500.1387              1504.0219              1509.1882
 Red. masses --      1.0776                 1.0512                 1.0446
 Frc consts  --      1.4288                 1.4010                 1.4017
 IR Inten    --      2.9133                11.1388                 5.6043

                     52                     53                     54
                      A                      A                      A
 Frequencies --   1521.9424              1526.8697              1535.3023
 Red. masses --      1.0589                 1.0533                 1.0681
 Frc consts  --      1.4451                 1.4467                 1.4833
 IR Inten    --      4.5470                12.7665                 7.7734

                     55                     56                     57
                      A                      A                      A
 Frequencies --   1745.8734              1763.4446              1810.4368
 Red. masses --      9.7788                 7.0376                11.7981
 Frc consts  --     17.5614                12.8942                22.7840
 IR Inten    --    697.3886              1333.0659               227.9375

                     58                     59                     60
                      A                      A                      A
 Frequencies --   3071.3004              3074.1172              3075.8478
 Red. masses --      1.0638                 1.0392                 1.0397
 Frc consts  --      5.9122                 5.7860                 5.7956
 IR Inten    --     43.6644                47.4668                30.5191

                     61                     62                     63
                      A                      A                      A
 Frequencies --   3079.0226              3124.2334              3134.9141
 Red. masses --      1.0665                 1.0977                 1.1000
 Frc consts  --      5.9569                 6.3128                 6.3694
 IR Inten    --     16.8196                11.9527                15.8046

                     64                     65                     66
                      A                      A                      A
 Frequencies --   3135.0991              3141.4134              3169.5482
 Red. masses --      1.1011                 1.0986                 1.1006
 Frc consts  --      6.3766                 6.3878                 6.5141
 IR Inten    --    102.9060                 9.5825                32.4754

                     67                     68                     69
                      A                      A                      A
 Frequencies --   3177.5845              3561.5128              3564.2288
 Red. masses --      1.0997                 1.0772                 1.0801
 Frc consts  --      6.5420                 8.0503                 8.0846
 IR Inten    --     30.2371               241.3539               113.3715

 - Thermochemistry -
 -------------------
 Temperature   298.150 Kelvin.  Pressure   1.00000 Atm.
 Atom     1 has atomic number  6 and mass  12.00000

 Molecular mass:   184.08479 amu.
 Principal axes and moments of inertia in atomic units:
                           1         2         3
     Eigenvalues --  1519.718882631.669023368.81180
           X            1.00000  -0.00001  -0.00021
           Y            0.00000   0.99905  -0.04359
           Z            0.00021   0.04359   0.99905
 This molecule is an asymmetric top.
 Rotational symmetry number  1.
 Warning -- assumption of classical behavior for rotation
           may cause significant error
 Rotational temperatures (Kelvin)      0.05699     0.03291     0.02571
 Rotational constants (GHZ):           1.18755     0.68578     0.53572
 Zero-point vibrational energy     538583.5 (Joules/Mol)
                                  128.72454 (Kcal/Mol)
 Warning -- explicit consideration of  18 degrees of freedom as
           vibrations may cause significant error
 Vibrational temperatures:      9.56   132.60   153.93   176.64   207.78
          (Kelvin)            231.32   284.70   340.58   349.91   379.30
                              394.82   463.43   513.34   565.85   585.12
                              722.86   749.57   887.50   898.81   945.81
                              980.25  1033.28  1051.93  1085.56  1090.92
                             1102.67  1155.74  1363.84  1384.79  1391.56
                             1480.47  1508.40  1531.62  1584.19  1651.96
                             1691.82  1698.77  1808.31  1901.44  1911.80
                             1965.79  1988.89  2001.72  2040.69  2049.42
                             2058.03  2075.99  2109.12  2158.36  2163.95
                             2171.39  2189.74  2196.83  2208.96  2511.92
                             2537.20  2604.81  4418.92  4422.97  4425.46
                             4430.03  4495.08  4510.44  4510.71  4519.79
                             4560.27  4571.84  5124.22  5128.13

 Zero-point correction=                           0.205136 (Hartree/Particle)
 Thermal correction to Energy=                    0.218153
 Thermal correction to Enthalpy=                  0.219097
 Thermal correction to Gibbs Free Energy=         0.164327
 Sum of electronic and zero-point Energies=           -647.126982
 Sum of electronic and thermal Energies=              -647.113965
 Sum of electronic and thermal Enthalpies=            -647.113020
 Sum of electronic and thermal Free Energies=         -647.167791

                     E (Thermal)             CV                S
                      KCal/Mol        Cal/Mol-Kelvin    Cal/Mol-Kelvin
 Total                  136.893             48.121            115.273
 Electronic               0.000              0.000              0.000
 Translational            0.889              2.981             41.537
 Rotational               0.889              2.981             30.978
 Vibrational            135.116             42.160             42.759
 Vibration     1          0.593              1.987              8.823
 Vibration     2          0.602              1.955              3.614
 Vibration     3          0.606              1.944              3.323
 Vibration     4          0.610              1.930              3.056
 Vibration     5          0.616              1.909              2.745
 Vibration     6          0.622              1.890              2.541
 Vibration     7          0.637              1.843              2.153
 Vibration     8          0.656              1.785              1.827
 Vibration     9          0.659              1.774              1.779
 Vibration    10          0.670              1.740              1.638
 Vibration    11          0.677              1.721              1.568
 Vibration    12          0.707              1.631              1.299
 Vibration    13          0.732              1.561              1.136
 Vibration    14          0.760              1.485              0.988
 Vibration    15          0.771              1.456              0.938
 Vibration    16          0.858              1.245              0.652
 Vibration    17          0.876              1.204              0.608
 Vibration    18          0.977              0.996              0.422

 Optimization completed.
    -- Stationary point found.
 Normal termination of Gaussian 16 at Wed Mar  2 06:48:12 2022.

 ------------------------------------------
 #p b3lyp/6-31G(d) geom=allcheck guess=read
 ------------------------------------------

 Structure from the checkpoint file:  "219.n.pdb.xyz.mst.wat.chk"
 -------------
 219.n.pdb.xyz
 -------------
 Charge =  0 Multiplicity = 1

 SCF Done:  E(RB3LYP) =  -647.311019818     A.U. after   11 cycles
 Normal termination of Gaussian 16 at Wed Mar  2 06:49:50 2022.
 Gaussian 16:  ES64L-G16RevA.03 25-Dec-2016

 ----------------------------------------------------------------------
 #p b3lyp/6-31G(d) scrf=(iefpcm,read,solvent=water) geom=allcheck guess
 =read
 ----------------------------------------------------------------------

 Structure from the checkpoint file:  "219.n.pdb.xyz.mst.wat.chk"
 -------------
 219.n.pdb.xyz
 -------------
 Charge =  0 Multiplicity = 1

                         Standard orientation:
 ---------------------------------------------------------------------
 Center     Atomic      Atomic             Coordinates (Angstroms)
 Number     Number       Type             X           Y           Z
 ---------------------------------------------------------------------
      1          6           0       -2.457574   -1.350152    1.153437
      2          6           0       -1.386600   -0.267861    1.280140
      3          6           0       -0.532924    0.001359   -0.003233
      4          6           0       -1.430639    0.256235   -1.256850
      5          6           0       -2.509105    1.327765   -1.110268
      6          6           0        0.298363    1.249100    0.294208
      7          8           0       -0.216387    2.316996    0.594951
      8          7           0        1.673372    1.146362    0.226007
      9          6           0        2.419292    0.003715    0.002088
     10          8           0        3.639232    0.003733    0.009671
     11          7           0        1.676430   -1.138947   -0.232028
     12          6           0        0.302393   -1.239463   -0.322546
     13          8           0       -0.209837   -2.300934   -0.649503
     14          1           0       -3.172072   -1.109599    0.361331
     15          1           0       -3.010957   -1.425974    2.094340
     16          1           0       -2.019358   -2.322837    0.927101
     17          1           0       -0.705325   -0.512967    2.102745
     18          1           0       -1.849826    0.688301    1.534793
     19          1           0       -1.890103   -0.706428   -1.488634
     20          1           0       -0.779039    0.501743   -2.101353
     21          1           0       -2.075433    2.301646   -0.883139
     22          1           0       -3.215450    1.077568   -0.313571
     23          1           0       -3.072629    1.404091   -2.045071
     24          1           0        2.206315    1.987531    0.433084
     25          1           0        2.211954   -1.977518   -0.442283
 ---------------------------------------------------------------------

 SCF Done:  E(RB3LYP) =  -647.330676983     A.U. after   10 cycles

 The electronic state is 1-A.
 Alpha  occ. eigenvalues --  -19.14552 -19.14534 -19.14477 -14.39200 -14.39200
 Alpha  occ. eigenvalues --  -10.35020 -10.31855 -10.31852 -10.23037 -10.19662
 Alpha  occ. eigenvalues --  -10.19532 -10.17281 -10.17215  -1.08848  -1.06130
 Alpha  occ. eigenvalues --   -1.05818  -0.96411  -0.92401  -0.83469  -0.75223
 Alpha  occ. eigenvalues --   -0.72832  -0.67635  -0.65303  -0.63177  -0.62054
 Alpha  occ. eigenvalues --   -0.56359  -0.55039  -0.49679  -0.48859  -0.47831
 Alpha  occ. eigenvalues --   -0.46932  -0.45434  -0.44700  -0.44079  -0.42731
 Alpha  occ. eigenvalues --   -0.40873  -0.40635  -0.39044  -0.37470  -0.36369
 Alpha  occ. eigenvalues --   -0.35882  -0.35185  -0.35092  -0.32505  -0.30857
 Alpha  occ. eigenvalues --   -0.29409  -0.29366  -0.28246  -0.26287
 Alpha virt. eigenvalues --   -0.04104  -0.00290   0.06644   0.09305   0.10588
 Alpha virt. eigenvalues --    0.12286   0.13679   0.14158   0.15166   0.16157
 Alpha virt. eigenvalues --    0.16429   0.18179   0.18569   0.18731   0.19404

 Mulliken charges:
               1
     1  C   -0.461052
     2  C   -0.276066
     3  C   -0.133100
     4  C   -0.276003
     5  C   -0.461931
     6  C    0.667122
     7  O   -0.534493
     8  N   -0.670032
     9  C    0.788022
    10  O   -0.538951
    11  N   -0.670684
    12  C    0.668874
    13  O   -0.534913
    14  H    0.156506
    15  H    0.153104
    16  H    0.167551
    17  H    0.160272
    18  H    0.174307
    19  H    0.174244
    20  H    0.159735
    21  H    0.168490
    22  H    0.155353
    23  H    0.152315
    24  H    0.405694
    25  H    0.405635
 Sum of Mulliken charges =  -0.00000

 Dipole moment (field-independent basis, Debye):
    X=             -0.2690    Y=             -0.0270    Z=              0.0663  Tot=              0.2784
 Quadrupole moment (field-independent basis, Debye-Ang):
   XX=            -84.4944   YY=            -84.5776   ZZ=            -73.8044
   XY=              0.0591   XZ=             -0.1754   YZ=             -3.7060

 Normal termination of Gaussian 16 at Wed Mar  2 06:51:42 2022.
