 Gaussian 16, Revision A.03,

 ----------------------------------------------------------------------
 #p b3lyp/6-31G(d) opt=(MaxStep=10,MaxCycles=1000) freq scf=(MaxCycle=2
 000,NoVarAcc,NoIncFock) scrf=(iefpcm,read,solvent=water)
 ----------------------------------------------------------------------

 -------------
 221.n.pdb.xyz
 -------------
 Symbolic Z-matrix:
 Charge =  0 Multiplicity = 1

 SCF Done:  E(RB3LYP) =  -225.282410568     A.U. after   11 cycles
 SCF Done:  E(RB3LYP) =  -225.284276071     A.U. after   10 cycles
 SCF Done:  E(RB3LYP) =  -225.284330489     A.U. after    8 cycles
 SCF Done:  E(RB3LYP) =  -225.284329054     A.U. after    8 cycles
 Optimization completed.
    -- Stationary point found.
 Normal termination of Gaussian 16 at Tue Mar  1 05:55:49 2022.

 --------------------------------------------------------------------
 #P Geom=AllCheck Guess=TCheck SCRF=Check GenChk RB3LYP/6-31G(d) Freq
 --------------------------------------------------------------------

 Structure from the checkpoint file:  "221.n.pdb.xyz.mst.wat.chk"
 -------------
 221.n.pdb.xyz
 -------------
 Charge =  0 Multiplicity = 1

 SCF Done:  E(RB3LYP) =  -225.284329054     A.U. after    1 cycles

  Exact polarizability:  40.061   0.002  40.408  -0.000  -0.000  14.578
 Approx polarizability:  40.603   0.004  48.550  -0.003  -0.003  16.586

 ******    2 imaginary frequencies (negative Signs) ******

                      1                      2                      3
                      A                      A                      A
 Frequencies --   -363.1416              -324.1662               436.5351
 Red. masses --      1.2464                 1.2473                 1.0305
 Frc consts  --      0.0968                 0.0772                 0.1157
 IR Inten    --     92.6002               707.3314                 0.5604

                      4                      5                      6
                      A                      A                      A
 Frequencies --    495.3910               567.3935               617.3131
 Red. masses --      2.2557                 3.6812                 1.0577
 Frc consts  --      0.3262                 0.6982                 0.2375
 IR Inten    --      8.9341                25.8250                10.7828

                      7                      8                      9
                      A                      A                      A
 Frequencies --    768.5640              1000.9952              1019.2353
 Red. masses --      7.0301                 3.6808                 1.4367
 Frc consts  --      2.4466                 2.1730                 0.8794
 IR Inten    --      8.3573                 3.7135                10.9546

                     10                     11                     12
                      A                      A                      A
 Frequencies --   1150.1422              1438.3116              1612.8393
 Red. masses --      1.7605                 3.1864                 1.2940
 Frc consts  --      1.3721                 3.8838                 1.9832
 IR Inten    --      2.0792               380.7189               337.5278

                     13                     14                     15
                      A                      A                      A
 Frequencies --   1617.4752              1724.2955              3593.8749
 Red. masses --      1.2393                 6.5282                 1.0457
 Frc consts  --      1.9103                11.4359                 7.9574
 IR Inten    --    135.8888               770.8007               128.7248

                     16                     17                     18
                      A                      A                      A
 Frequencies --   3605.1086              3723.9061              3726.7817
 Red. masses --      1.0473                 1.1058                 1.1072
 Frc consts  --      8.0197                 9.0348                 9.0602
 IR Inten    --     56.2789                92.8562               133.9648

 - Thermochemistry -
 -------------------
 Temperature   298.150 Kelvin.  Pressure   1.00000 Atm.
 Atom     1 has atomic number  7 and mass  14.00307

 Molecular mass:    60.03236 amu.
 Principal axes and moments of inertia in atomic units:
                           1         2         3
     Eigenvalues --   162.36828 172.46540 334.83366
           X            1.00000  -0.00051   0.00008
           Y            0.00051   1.00000   0.00003
           Z           -0.00008  -0.00003   1.00000
 This molecule is an asymmetric top.
 Rotational symmetry number  1.
 Rotational temperatures (Kelvin)      0.53344     0.50221     0.25868
 Rotational constants (GHZ):          11.11511    10.46437     5.38996
    2 imaginary frequencies ignored.
 Zero-point vibrational energy     162083.0 (Joules/Mol)
                                   38.73877 (Kcal/Mol)
 Warning -- explicit consideration of   4 degrees of freedom as
           vibrations may cause significant error
 Vibrational temperatures:    628.08   712.76   816.35   888.18  1105.79
          (Kelvin)           1440.21  1466.45  1654.80  2069.41  2320.52
                             2327.19  2480.88  5170.78  5186.95  5357.87
                             5362.01

 Zero-point correction=                           0.061734 (Hartree/Particle)
 Thermal correction to Energy=                    0.065593
 Thermal correction to Enthalpy=                  0.066537
 Thermal correction to Gibbs Free Energy=         0.035707
 Sum of electronic and zero-point Energies=           -225.222595
 Sum of electronic and thermal Energies=              -225.218736
 Sum of electronic and thermal Enthalpies=            -225.217792
 Sum of electronic and thermal Free Energies=         -225.248622

                     E (Thermal)             CV                S
                      KCal/Mol        Cal/Mol-Kelvin    Cal/Mol-Kelvin
 Total                   41.160             12.612             64.887
 Electronic               0.000              0.000              0.000
 Translational            0.889              2.981             38.197
 Rotational               0.889              2.981             23.754
 Vibrational             39.383              6.650              2.937
 Vibration     1          0.797              1.391              0.838
 Vibration     2          0.851              1.260              0.670
 Vibration     3          0.923              1.102              0.509
 Vibration     4          0.977              0.995              0.421

                           ! Non-Optimized Parameters !
 Normal termination of Gaussian 16 at Tue Mar  1 05:56:25 2022.

 ------------------------------------------
 #p b3lyp/6-31G(d) geom=allcheck guess=read
 ------------------------------------------

 Structure from the checkpoint file:  "221.n.pdb.xyz.mst.wat.chk"
 -------------
 221.n.pdb.xyz
 -------------
 Charge =  0 Multiplicity = 1

 SCF Done:  E(RB3LYP) =  -225.256485697     A.U. after   10 cycles
 Normal termination of Gaussian 16 at Tue Mar  1 05:56:31 2022.
 Gaussian 16:  ES64L-G16RevA.03 25-Dec-2016

 ----------------------------------------------------------------------
 #p b3lyp/6-31G(d) scrf=(iefpcm,read,solvent=water) geom=allcheck guess
 =read
 ----------------------------------------------------------------------

 Structure from the checkpoint file:  "221.n.pdb.xyz.mst.wat.chk"
 -------------
 221.n.pdb.xyz
 -------------
 Charge =  0 Multiplicity = 1

                         Standard orientation:
 ---------------------------------------------------------------------
 Center     Atomic      Atomic             Coordinates (Angstroms)
 Number     Number       Type             X           Y           Z
 ---------------------------------------------------------------------
      1          7           0        1.153033   -0.597914   -0.000141
      2          6           0        0.000074    0.132577    0.000194
      3          7           0       -1.153503   -0.597120    0.000311
      4          8           0        0.000539    1.374438   -0.000081
      5          1           0        1.158771   -1.608157    0.000248
      6          1           0        2.033610   -0.105668    0.000089
      7          1           0       -1.159964   -1.607673   -0.001095
      8          1           0       -2.033881   -0.104228   -0.000940
 ---------------------------------------------------------------------

 SCF Done:  E(RB3LYP) =  -225.283737670     A.U. after   10 cycles

 The electronic state is 1-A.
 Alpha  occ. eigenvalues --  -19.09305 -14.33353 -14.33351 -10.30380  -1.02362
 Alpha  occ. eigenvalues --   -0.90087  -0.85947  -0.60146  -0.53305  -0.52301
 Alpha  occ. eigenvalues --   -0.45663  -0.41269  -0.40405  -0.25481  -0.25391
 Alpha  occ. eigenvalues --   -0.25202
 Alpha virt. eigenvalues --    0.07893   0.09317   0.14635   0.14936   0.19209
 Alpha virt. eigenvalues --    0.27267   0.32876   0.43364   0.56556   0.59333
 Alpha virt. eigenvalues --    0.59838   0.64908   0.67377   0.72360   0.73125

 Mulliken charges:
               1
     1  N   -0.779477
     2  C    0.682080
     3  N   -0.779609
     4  O   -0.635472
     5  H    0.379867
     6  H    0.376357
     7  H    0.379870
     8  H    0.376383
 Sum of Mulliken charges =  -0.00000

 Dipole moment (field-independent basis, Debye):
    X=             -0.0021    Y=             -5.8142    Z=             -0.0035  Tot=              5.8142
 Quadrupole moment (field-independent basis, Debye-Ang):
   XX=            -14.6580   YY=            -23.4849   ZZ=            -25.4225
   XY=             -0.0032   XZ=              0.0102   YZ=              0.0039

 Normal termination of Gaussian 16 at Tue Mar  1 05:56:38 2022.
