 Gaussian 16, Revision A.03,

 ----------------------------------------------------------------------
 #p b3lyp/6-31G(d) opt=(MaxStep=10,MaxCycles=1000) freq scf=(MaxCycle=2
 000,NoVarAcc,NoIncFock) scrf=(iefpcm,read,solvent=water)
 ----------------------------------------------------------------------

 -------------
 222.n.pdb.xyz
 -------------
 Symbolic Z-matrix:
 Charge =  0 Multiplicity = 1

 SCF Done:  E(RB3LYP) =  -1113.20210246     A.U. after   13 cycles
 SCF Done:  E(RB3LYP) =  -1113.20608678     A.U. after   10 cycles
 SCF Done:  E(RB3LYP) =  -1113.20596890     A.U. after   11 cycles
 SCF Done:  E(RB3LYP) =  -1113.20812368     A.U. after   11 cycles
 SCF Done:  E(RB3LYP) =  -1113.20840536     A.U. after   11 cycles
 SCF Done:  E(RB3LYP) =  -1113.20889561     A.U. after   10 cycles
 SCF Done:  E(RB3LYP) =  -1113.20915269     A.U. after   10 cycles
 SCF Done:  E(RB3LYP) =  -1113.20921398     A.U. after   11 cycles
 SCF Done:  E(RB3LYP) =  -1113.20944163     A.U. after   10 cycles
 SCF Done:  E(RB3LYP) =  -1113.20966646     A.U. after   10 cycles
 SCF Done:  E(RB3LYP) =  -1113.20976739     A.U. after    8 cycles
 SCF Done:  E(RB3LYP) =  -1113.20977140     A.U. after    7 cycles
 SCF Done:  E(RB3LYP) =  -1113.20977641     A.U. after    9 cycles
 SCF Done:  E(RB3LYP) =  -1113.20977831     A.U. after    8 cycles
 SCF Done:  E(RB3LYP) =  -1113.20977807     A.U. after    6 cycles
 SCF Done:  E(RB3LYP) =  -1113.20977790     A.U. after    6 cycles
 SCF Done:  E(RB3LYP) =  -1113.20977776     A.U. after    5 cycles
 Optimization completed.
    -- Stationary point found.
 Normal termination of Gaussian 16 at Tue Mar  1 17:08:47 2022.

 --------------------------------------------------------------------
 #P Geom=AllCheck Guess=TCheck SCRF=Check GenChk RB3LYP/6-31G(d) Freq
 --------------------------------------------------------------------

 Structure from the checkpoint file:  "222.n.pdb.xyz.mst.wat.chk"
 -------------
 222.n.pdb.xyz
 -------------
 Charge =  0 Multiplicity = 1

 SCF Done:  E(RB3LYP) =  -1113.20977776     A.U. after    1 cycles

  Exact polarizability: 381.072  15.528 330.009  -4.545   5.975 186.559
 Approx polarizability: 374.604   4.880 373.939  -5.518   8.196 207.919

                      1                      2                      3
                      A                      A                      A
 Frequencies --     15.9110                25.4903                26.8081
 Red. masses --      4.5710                 3.4003                 3.4248
 Frc consts  --      0.0007                 0.0013                 0.0015
 IR Inten    --      0.0194                 0.5390                 0.6597

                      4                      5                      6
                      A                      A                      A
 Frequencies --     32.8831                38.6486                42.7516
 Red. masses --      3.4243                 4.2109                 4.5698
 Frc consts  --      0.0022                 0.0037                 0.0049
 IR Inten    --      1.0193                 0.4092                17.5005

                      7                      8                      9
                      A                      A                      A
 Frequencies --     47.1551                64.5880                75.6742
 Red. masses --      2.0264                 4.4703                 3.7867
 Frc consts  --      0.0027                 0.0110                 0.0128
 IR Inten    --      1.3265                 3.9519                10.1087

                     10                     11                     12
                      A                      A                      A
 Frequencies --     79.0568               106.6666               106.8131
 Red. masses --      3.7747                 3.0698                 4.0716
 Frc consts  --      0.0139                 0.0206                 0.0274
 IR Inten    --      2.9604                 3.0675                 1.6429

                     13                     14                     15
                      A                      A                      A
 Frequencies --    133.9633               142.5578               144.2696
 Red. masses --      3.4074                 3.1989                 3.7716
 Frc consts  --      0.0360                 0.0383                 0.0463
 IR Inten    --      0.9143                 5.7961                 2.9898

                     16                     17                     18
                      A                      A                      A
 Frequencies --    159.2125               176.1527               191.4571
 Red. masses --      2.7332                 1.3923                 3.7506
 Frc consts  --      0.0408                 0.0255                 0.0810
 IR Inten    --      6.6872                 1.8813                 6.2812

                     19                     20                     21
                      A                      A                      A
 Frequencies --    210.7088               217.8039               223.0148
 Red. masses --      5.7745                 1.5312                 1.6913
 Frc consts  --      0.1511                 0.0428                 0.0496
 IR Inten    --      2.4276                 4.5035                 3.8407

                     22                     23                     24
                      A                      A                      A
 Frequencies --    251.1089               254.9562               261.9452
 Red. masses --      1.9352                 1.0728                 1.5616
 Frc consts  --      0.0719                 0.0411                 0.0631
 IR Inten    --      1.9665                 0.1106                13.2320

                     25                     26                     27
                      A                      A                      A
 Frequencies --    281.4030               301.6610               306.0642
 Red. masses --      3.8378                 1.1115                 3.6326
 Frc consts  --      0.1791                 0.0596                 0.2005
 IR Inten    --     14.5835               206.5437                19.9524

                     28                     29                     30
                      A                      A                      A
 Frequencies --    343.8076               362.8183               382.9978
 Red. masses --      3.9086                 3.0770                 3.7212
 Frc consts  --      0.2722                 0.2387                 0.3216
 IR Inten    --     11.5896                 4.3239                 1.4364

                     31                     32                     33
                      A                      A                      A
 Frequencies --    387.4219               406.0368               414.7464
 Red. masses --      5.3581                 2.9683                 7.2874
 Frc consts  --      0.4738                 0.2883                 0.7386
 IR Inten    --      2.8457                 5.9578                 4.7836

                     34                     35                     36
                      A                      A                      A
 Frequencies --    433.4639               437.5177               486.5294
 Red. masses --      2.9646                 3.0699                 2.3348
 Frc consts  --      0.3282                 0.3462                 0.3256
 IR Inten    --      1.5611                 3.2652                 2.4923

                     37                     38                     39
                      A                      A                      A
 Frequencies --    514.4762               537.2488               546.2358
 Red. masses --      2.7551                 3.8413                 2.3026
 Frc consts  --      0.4296                 0.6532                 0.4048
 IR Inten    --     31.9164                12.9116                56.1940

                     40                     41                     42
                      A                      A                      A
 Frequencies --    563.0681               577.6356               598.6493
 Red. masses --      2.2370                 3.6970                 4.3022
 Frc consts  --      0.4179                 0.7268                 0.9084
 IR Inten    --     25.9438                17.3275                40.3110

                     43                     44                     45
                      A                      A                      A
 Frequencies --    617.0825               636.7711               639.6279
 Red. masses --      1.3206                 3.8471                 3.7061
 Frc consts  --      0.2963                 0.9191                 0.8933
 IR Inten    --     77.8253                22.4944                19.5622

                     46                     47                     48
                      A                      A                      A
 Frequencies --    698.9855               734.8804               758.4824
 Red. masses --      5.6802                 3.9630                 1.2456
 Frc consts  --      1.6351                 1.2610                 0.4222
 IR Inten    --      1.1946                 3.0505                 7.8263

                     49                     50                     51
                      A                      A                      A
 Frequencies --    762.5961               809.2228               814.1406
 Red. masses --      4.3384                 2.2679                 4.8341
 Frc consts  --      1.4865                 0.8750                 1.8878
 IR Inten    --      0.3800                80.2929                33.9448

                     52                     53                     54
                      A                      A                      A
 Frequencies --    840.3999               856.0422               895.4315
 Red. masses --      1.5201                 1.5461                 1.3747
 Frc consts  --      0.6326                 0.6676                 0.6494
 IR Inten    --     42.2826                89.0395                 0.4496

                     55                     56                     57
                      A                      A                      A
 Frequencies --    901.8524               910.1928               930.5009
 Red. masses --      2.8394                 3.3284                 2.4148
 Frc consts  --      1.3606                 1.6246                 1.2319
 IR Inten    --     25.6965                10.0395                31.0874

                     58                     59                     60
                      A                      A                      A
 Frequencies --    932.3258               940.5678               943.2293
 Red. masses --      1.2062                 1.6422                 1.4447
 Frc consts  --      0.6178                 0.8559                 0.7573
 IR Inten    --      4.0490                35.9920                 7.9089

                     61                     62                     63
                      A                      A                      A
 Frequencies --    957.4161               970.5484               978.5555
 Red. masses --      1.5556                 1.5805                 3.2306
 Frc consts  --      0.8401                 0.8771                 1.8227
 IR Inten    --      8.7942                 6.7033                14.1591

                     64                     65                     66
                      A                      A                      A
 Frequencies --    980.1940              1016.2502              1037.2009
 Red. masses --      1.3039                 2.2410                 4.1206
 Frc consts  --      0.7381                 1.3636                 2.6118
 IR Inten    --      1.7094                43.4430               107.4024

                     67                     68                     69
                      A                      A                      A
 Frequencies --   1058.0605              1063.7960              1072.0325
 Red. masses --      1.8452                 2.3498                 2.4510
 Frc consts  --      1.2171                 1.5668                 1.6596
 IR Inten    --      9.1637                 8.7665                97.6556

                     70                     71                     72
                      A                      A                      A
 Frequencies --   1095.8562              1100.9462              1125.0786
 Red. masses --      2.0852                 2.5771                 3.0205
 Frc consts  --      1.4754                 1.8404                 2.2526
 IR Inten    --      9.0260                30.7953                61.6952

                     73                     74                     75
                      A                      A                      A
 Frequencies --   1126.9476              1133.4144              1142.9383
 Red. masses --      1.5682                 2.1878                 3.3159
 Frc consts  --      1.1735                 1.6559                 2.5521
 IR Inten    --      3.0870                14.7385                45.7679

                     76                     77                     78
                      A                      A                      A
 Frequencies --   1155.2241              1181.4888              1199.9812
 Red. masses --      2.1826                 1.4448                 1.9623
 Frc consts  --      1.7162                 1.1883                 1.6648
 IR Inten    --     37.5783               117.3130                34.0041

                     79                     80                     81
                      A                      A                      A
 Frequencies --   1205.7264              1220.5206              1243.6020
 Red. masses --      1.8105                 2.3407                 1.1906
 Frc consts  --      1.5508                 2.0544                 1.0848
 IR Inten    --     41.7232               256.3082                90.5795

                     82                     83                     84
                      A                      A                      A
 Frequencies --   1251.3468              1271.2881              1279.6822
 Red. masses --      2.1473                 1.3044                 2.6116
 Frc consts  --      1.9811                 1.2421                 2.5198
 IR Inten    --    392.6087                 1.3293               287.3987

                     85                     86                     87
                      A                      A                      A
 Frequencies --   1285.3731              1302.2941              1305.5478
 Red. masses --      1.3935                 1.1735                 2.5163
 Frc consts  --      1.3564                 1.1726                 2.5270
 IR Inten    --      9.3564                 5.5678               145.1409

                     88                     89                     90
                      A                      A                      A
 Frequencies --   1324.8056              1331.7027              1339.2116
 Red. masses --      1.3389                 1.5194                 1.1108
 Frc consts  --      1.3845                 1.5876                 1.1737
 IR Inten    --     54.8293               156.6479                23.6269

                     91                     92                     93
                      A                      A                      A
 Frequencies --   1348.3337              1362.9789              1366.8245
 Red. masses --      2.6482                 1.4455                 2.8924
 Frc consts  --      2.8366                 1.5821                 3.1837
 IR Inten    --    200.7218                 2.2009               142.2388

                     94                     95                     96
                      A                      A                      A
 Frequencies --   1377.0203              1407.9312              1410.5368
 Red. masses --      1.2535                 1.3391                 1.3307
 Frc consts  --      1.4004                 1.5639                 1.5600
 IR Inten    --     18.2200                19.4122                13.7779

                     97                     98                     99
                      A                      A                      A
 Frequencies --   1417.3352              1421.9106              1429.6073
 Red. masses --      1.3452                 1.7288                 1.3552
 Frc consts  --      1.5921                 2.0594                 1.6319
 IR Inten    --     68.0021                59.0060                10.2737

                    100                    101                    102
                      A                      A                      A
 Frequencies --   1430.7707              1439.5379              1443.1701
 Red. masses --      1.2548                 1.2524                 3.5255
 Frc consts  --      1.5135                 1.5291                 4.3262
 IR Inten    --      9.4753                 0.6193                20.3817

                    103                    104                    105
                      A                      A                      A
 Frequencies --   1462.3873              1471.1694              1485.5790
 Red. masses --      1.1048                 1.5744                 1.0495
 Frc consts  --      1.3921                 2.0077                 1.3647
 IR Inten    --     57.1660                 3.3839                10.9797

                    106                    107                    108
                      A                      A                      A
 Frequencies --   1486.9240              1498.2806              1504.4580
 Red. masses --      1.0977                 1.1054                 1.0554
 Frc consts  --      1.4299                 1.4620                 1.4075
 IR Inten    --     26.2300                25.2716                 2.9568

                    109                    110                    111
                      A                      A                      A
 Frequencies --   1505.8337              1506.2753              1515.5177
 Red. masses --      1.0545                 1.0689                 1.2624
 Frc consts  --      1.4088                 1.4289                 1.7084
 IR Inten    --      1.7534                 5.7513               318.2697

                    112                    113                    114
                      A                      A                      A
 Frequencies --   1522.7449              1523.5200              1524.4983
 Red. masses --      1.0413                 1.0580                 1.1287
 Frc consts  --      1.4225                 1.4469                 1.5455
 IR Inten    --      7.4488                 4.7573                37.1453

                    115                    116                    117
                      A                      A                      A
 Frequencies --   1526.0849              1531.1131              1548.6523
 Red. masses --      1.1044                 1.0743                 1.9387
 Frc consts  --      1.5154                 1.4838                 2.7394
 IR Inten    --     13.7809                 8.2172               459.9970

                    118                    119                    120
                      A                      A                      A
 Frequencies --   1589.3108              1644.4320              1666.6261
 Red. masses --      2.7209                 3.0029                 5.6389
 Frc consts  --      4.0493                 4.7844                 9.2282
 IR Inten    --    593.7056               127.7905                21.8875

                    121                    122                    123
                      A                      A                      A
 Frequencies --   1725.1252              1738.7612              2983.4754
 Red. masses --      9.2319                 5.3688                 1.0689
 Frc consts  --     16.1876                 9.5633                 5.6058
 IR Inten    --    513.6435               233.1380                92.4128

                    124                    125                    126
                      A                      A                      A
 Frequencies --   3039.4289              3045.9550              3048.5434
 Red. masses --      1.0836                 1.0829                 1.0371
 Frc consts  --      5.8978                 5.9196                 5.6790
 IR Inten    --     42.6396                39.2698                37.4866

                    127                    128                    129
                      A                      A                      A
 Frequencies --   3049.5181              3055.2861              3055.3081
 Red. masses --      1.0586                 1.0385                 1.0381
 Frc consts  --      5.8001                 5.7116                 5.7093
 IR Inten    --     15.4520                47.8222                45.4798

                    130                    131                    132
                      A                      A                      A
 Frequencies --   3058.2602              3066.1152              3073.6211
 Red. masses --      1.0567                 1.0609                 1.0915
 Frc consts  --      5.8231                 5.8764                 6.0753
 IR Inten    --     75.3928                53.3358                60.0974

                    133                    134                    135
                      A                      A                      A
 Frequencies --   3079.4834              3083.3278              3100.2139
 Red. masses --      1.1002                 1.0366                 1.1033
 Frc consts  --      6.1472                 5.8061                 6.2478
 IR Inten    --      5.7145                 4.8326                12.1765

                    136                    137                    138
                      A                      A                      A
 Frequencies --   3108.0798              3112.9884              3120.1679
 Red. masses --      1.1083                 1.1012                 1.0989
 Frc consts  --      6.3079                 6.2874                 6.3030
 IR Inten    --     74.1582                21.7645               115.3047

                    139                    140                    141
                      A                      A                      A
 Frequencies --   3121.4449              3126.2307              3128.7759
 Red. masses --      1.1040                 1.1017                 1.1014
 Frc consts  --      6.3376                 6.3440                 6.3524
 IR Inten    --    124.1869                69.3468                60.3990

                    142                    143                    144
                      A                      A                      A
 Frequencies --   3138.1451              3149.7963              3186.7118
 Red. masses --      1.1031                 1.0980                 1.1060
 Frc consts  --      6.4003                 6.4180                 6.6174
 IR Inten    --     58.1345                 8.5698                32.2470

                    145                    146                    147
                      A                      A                      A
 Frequencies --   3230.0039              3262.7749              3287.5450
 Red. masses --      1.0890                 1.0890                 1.0922
 Frc consts  --      6.6941                 6.8303                 6.9551
 IR Inten    --     12.2167                11.9454                 5.2677

                    148                    149                    150
                      A                      A                      A
 Frequencies --   3478.7888              3599.5508              3737.5061
 Red. masses --      1.0734                 1.0782                 1.0665
 Frc consts  --      7.6534                 8.2309                 8.7777
 IR Inten    --      2.0920               100.9762                97.1672

 - Thermochemistry -
 -------------------
 Temperature   298.150 Kelvin.  Pressure   1.00000 Atm.
 Atom     1 has atomic number  6 and mass  12.00000

 Molecular mass:   336.20491 amu.
 Principal axes and moments of inertia in atomic units:
                           1         2         3
     Eigenvalues --  4002.00767********************
           X            1.00000  -0.00247  -0.00059
           Y            0.00246   0.99999  -0.00288
           Z            0.00060   0.00287   1.00000
 This molecule is an asymmetric top.
 Rotational symmetry number  1.
 Warning -- assumption of classical behavior for rotation
           may cause significant error
 Rotational temperatures (Kelvin)      0.02164     0.00320     0.00282
 Rotational constants (GHZ):           0.45096     0.06658     0.05871
 Zero-point vibrational energy    1176234.4 (Joules/Mol)
                                  281.12677 (Kcal/Mol)
 Warning -- explicit consideration of  43 degrees of freedom as
           vibrations may cause significant error
 Vibrational temperatures:     22.89    36.67    38.57    47.31    55.61
          (Kelvin)             61.51    67.85    92.93   108.88   113.75
                              153.47   153.68   192.74   205.11   207.57
                              229.07   253.44   275.46   303.16   313.37
                              320.87   361.29   366.83   376.88   404.88
                              434.02   440.36   494.66   522.01   551.05
                              557.41   584.20   596.73   623.66   629.49
                              700.01   740.22   772.98   785.91   810.13
                              831.09   861.32   887.84   916.17   920.28
                             1005.68  1057.33  1091.29  1097.21  1164.29
                             1171.37  1209.15  1231.65  1288.33  1297.56
                             1309.56  1338.78  1341.41  1353.27  1357.10
                             1377.51  1396.40  1407.92  1410.28  1462.16
                             1492.30  1522.31  1530.57  1542.42  1576.69
                             1584.02  1618.74  1621.43  1630.73  1644.43
                             1662.11  1699.90  1726.51  1734.77  1756.06
                             1789.27  1800.41  1829.10  1841.18  1849.37
                             1873.71  1878.39  1906.10  1916.02  1926.83
                             1939.95  1961.02  1966.56  1981.23  2025.70
                             2029.45  2039.23  2045.81  2056.89  2058.56
                             2071.17  2076.40  2104.05  2116.68  2137.42
                             2139.35  2155.69  2164.58  2166.56  2167.19
                             2180.49  2190.89  2192.01  2193.41  2195.70
                             2202.93  2228.17  2286.66  2365.97  2397.90
                             2482.07  2501.69  4292.56  4373.06  4382.45
                             4386.17  4387.58  4395.88  4395.91  4400.15
                             4411.46  4422.26  4430.69  4436.22  4460.52
                             4471.83  4478.90  4489.23  4491.06  4497.95
                             4501.61  4515.09  4531.85  4584.97  4647.26
                             4694.41  4730.04  5005.20  5178.95  5377.44

 Zero-point correction=                           0.448004 (Hartree/Particle)
 Thermal correction to Energy=                    0.474990
 Thermal correction to Enthalpy=                  0.475935
 Thermal correction to Gibbs Free Energy=         0.386800
 Sum of electronic and zero-point Energies=          -1112.761774
 Sum of electronic and thermal Energies=             -1112.734787
 Sum of electronic and thermal Enthalpies=           -1112.733843
 Sum of electronic and thermal Free Energies=        -1112.822978

                     E (Thermal)             CV                S
                      KCal/Mol        Cal/Mol-Kelvin    Cal/Mol-Kelvin
 Total                  298.061             98.209            187.600
 Electronic               0.000              0.000              0.000
 Translational            0.889              2.981             43.332
 Rotational               0.889              2.981             36.454
 Vibrational            296.283             92.248            107.814
 Vibration     1          0.593              1.986              7.088
 Vibration     2          0.593              1.985              6.153
 Vibration     3          0.593              1.984              6.053
 Vibration     4          0.594              1.983              5.647
 Vibration     5          0.594              1.981              5.327
 Vibration     6          0.595              1.980              5.127
 Vibration     7          0.595              1.979              4.933
 Vibration     8          0.597              1.971              4.312
 Vibration     9          0.599              1.965              4.000
 Vibration    10          0.600              1.963              3.914
 Vibration    11          0.606              1.944              3.329
 Vibration    12          0.606              1.944              3.326
 Vibration    13          0.613              1.919              2.888
 Vibration    14          0.616              1.911              2.769
 Vibration    15          0.616              1.909              2.746
 Vibration    16          0.621              1.892              2.559
 Vibration    17          0.628              1.872              2.369
 Vibration    18          0.634              1.852              2.214
 Vibration    19          0.643              1.824              2.038
 Vibration    20          0.646              1.814              1.977
 Vibration    21          0.649              1.806              1.934
 Vibration    22          0.663              1.761              1.723
 Vibration    23          0.665              1.754              1.696
 Vibration    24          0.669              1.742              1.649
 Vibration    25          0.681              1.708              1.525
 Vibration    26          0.694              1.671              1.408
 Vibration    27          0.696              1.662              1.384
 Vibration    28          0.723              1.588              1.194
 Vibration    29          0.737              1.549              1.110
 Vibration    30          0.752              1.506              1.027
 Vibration    31          0.756              1.497              1.010
 Vibration    32          0.771              1.457              0.941
 Vibration    33          0.778              1.438              0.910
 Vibration    34          0.794              1.397              0.847
 Vibration    35          0.798              1.388              0.834
 Vibration    36          0.843              1.280              0.693
 Vibration    37          0.870              1.218              0.623
 Vibration    38          0.892              1.168              0.571
 Vibration    39          0.901              1.148              0.552
 Vibration    40          0.919              1.111              0.518
 Vibration    41          0.934              1.080              0.490
 Vibration    42          0.957              1.035              0.452
 Vibration    43          0.977              0.996              0.421

                           ! Non-Optimized Parameters !
 Normal termination of Gaussian 16 at Tue Mar  1 18:18:24 2022.

 ------------------------------------------
 #p b3lyp/6-31G(d) geom=allcheck guess=read
 ------------------------------------------

 Structure from the checkpoint file:  "222.n.pdb.xyz.mst.wat.chk"
 -------------
 222.n.pdb.xyz
 -------------
 Charge =  0 Multiplicity = 1

 SCF Done:  E(RB3LYP) =  -1113.18111545     A.U. after   12 cycles
 Normal termination of Gaussian 16 at Tue Mar  1 18:22:31 2022.
 Gaussian 16:  ES64L-G16RevA.03 25-Dec-2016

 ----------------------------------------------------------------------
 #p b3lyp/6-31G(d) scrf=(iefpcm,read,solvent=water) geom=allcheck guess
 =read
 ----------------------------------------------------------------------

 Structure from the checkpoint file:  "222.n.pdb.xyz.mst.wat.chk"
 -------------
 222.n.pdb.xyz
 -------------
 Charge =  0 Multiplicity = 1

                         Standard orientation:
 ---------------------------------------------------------------------
 Center     Atomic      Atomic             Coordinates (Angstroms)
 Number     Number       Type             X           Y           Z
 ---------------------------------------------------------------------
      1          6           0       -8.916076   -1.628250    0.082568
      2          6           0       -7.419697   -1.938114    0.007050
      3          6           0       -6.563975   -0.673447    0.061286
      4          6           0       -5.066092   -0.955595   -0.007651
      5          8           0       -4.610633   -2.100788   -0.048424
      6          7           0       -4.285361    0.168715   -0.015185
      7          6           0       -2.879212    0.264906   -0.052792
      8          6           0       -2.307466    1.536707   -0.038735
      9          6           0       -0.921801    1.745661   -0.075702
     10          6           0       -0.475936    3.174828   -0.037855
     11          6           0        0.984997    3.547622   -0.117700
     12          8           0       -1.319449    4.066688    0.052705
     13          6           0       -0.072075    0.613623   -0.130849
     14          8           0        1.271606    0.812070   -0.174703
     15          6           0        2.136143   -0.326685   -0.097374
     16          6           0        3.567952    0.173427   -0.057748
     17          8           0        3.736842    0.882843    1.171790
     18          6           0        4.553213   -0.993864   -0.169177
     19          7           0        5.928259   -0.505163   -0.083892
     20          6           0        6.953511   -1.514254   -0.402197
     21          6           0        6.970207   -2.715872    0.554633
     22          6           0        8.320349   -0.829878   -0.449616
     23          6           0       -0.643790   -0.665554   -0.138425
     24          6           0       -2.022202   -0.846715   -0.101552
     25          1           0       -9.232652   -0.989439   -0.749428
     26          1           0       -9.509639   -2.546830    0.042399
     27          1           0       -9.167720   -1.108548    1.013608
     28          1           0       -7.199082   -2.484379   -0.916413
     29          1           0       -7.135197   -2.601347    0.830357
     30          1           0       -6.767494   -0.116864    0.985067
     31          1           0       -6.832509    0.003403   -0.759344
     32          1           0       -4.773414    1.056388    0.020471
     33          1           0       -2.929783    2.423267    0.005842
     34          1           0        1.414879    3.210916   -1.065785
     35          1           0        1.063985    4.631527   -0.038582
     36          1           0        1.565554    3.062036    0.669204
     37          1           0        1.984665   -0.973504   -0.968078
     38          1           0        1.909086   -0.900508    0.807856
     39          1           0        3.728985    0.851968   -0.905417
     40          1           0        4.536782    1.427784    1.083367
     41          1           0        4.423201   -1.476131   -1.146135
     42          1           0        4.305916   -1.745674    0.598665
     43          1           0        6.093524   -0.179724    0.869153
     44          1           0        6.715994   -1.881329   -1.409309
     45          1           0        5.996998   -3.214379    0.590067
     46          1           0        7.222023   -2.391880    1.571621
     47          1           0        7.714658   -3.455430    0.241621
     48          1           0        9.101738   -1.537674   -0.742049
     49          1           0        8.585309   -0.427734    0.535705
     50          1           0        8.316799   -0.001941   -1.163931
     51          1           0       -0.004792   -1.536239   -0.176912
     52          1           0       -2.443316   -1.840364   -0.110000
 ---------------------------------------------------------------------

 SCF Done:  E(RB3LYP) =  -1113.20644978     A.U. after   11 cycles

 The electronic state is 1-A.
 Alpha  occ. eigenvalues --  -19.18592 -19.14479 -19.13634 -19.12418 -14.37259
 Alpha  occ. eigenvalues --  -14.31445 -10.29551 -10.28036 -10.26148 -10.24230
 Alpha  occ. eigenvalues --  -10.23758 -10.23732 -10.20968 -10.20421 -10.20298
 Alpha  occ. eigenvalues --  -10.19815 -10.19783 -10.19500 -10.19052 -10.18076
 Alpha  occ. eigenvalues --  -10.17693 -10.17168 -10.16892 -10.16774  -1.07467
 Alpha  occ. eigenvalues --   -1.03961  -1.03520  -1.01646  -0.94031  -0.90073
 Alpha  occ. eigenvalues --   -0.85643  -0.79490  -0.78548  -0.77078  -0.75869
 Alpha  occ. eigenvalues --   -0.74049  -0.72934  -0.69901  -0.68197  -0.67017
 Alpha  occ. eigenvalues --   -0.64526  -0.61802  -0.60178  -0.58779  -0.57963
 Alpha  occ. eigenvalues --   -0.57723  -0.55026  -0.53709  -0.52672  -0.51757
 Alpha  occ. eigenvalues --   -0.48968  -0.47761  -0.47379  -0.47137  -0.46512
 Alpha  occ. eigenvalues --   -0.45780  -0.45525  -0.44050  -0.43714  -0.43383
 Alpha  occ. eigenvalues --   -0.42930  -0.42556  -0.42421  -0.41925  -0.41031
 Alpha  occ. eigenvalues --   -0.40282  -0.40137  -0.39198  -0.38914  -0.38357
 Alpha  occ. eigenvalues --   -0.38270  -0.37619  -0.36934  -0.36670  -0.35846
 Alpha  occ. eigenvalues --   -0.35462  -0.35063  -0.34054  -0.33912  -0.33847
 Alpha  occ. eigenvalues --   -0.33451  -0.33021  -0.32921  -0.31925  -0.28758
 Alpha  occ. eigenvalues --   -0.27331  -0.26097  -0.25845  -0.25369  -0.22358
 Alpha  occ. eigenvalues --   -0.20995
 Alpha virt. eigenvalues --   -0.05556  -0.00787   0.02556   0.05664   0.07893
 Alpha virt. eigenvalues --    0.09157   0.09372   0.09798   0.10263   0.11217
 Alpha virt. eigenvalues --    0.12168   0.12514   0.13143   0.14248   0.14577

 Mulliken charges:
               1
     1  C   -0.455161
     2  C   -0.240791
     3  C   -0.370850
     4  C    0.620740
     5  O   -0.569236
     6  N   -0.726841
     7  C    0.361624
     8  C   -0.266837
     9  C    0.029906
    10  C    0.418268
    11  C   -0.520279
    12  O   -0.522768
    13  C    0.331649
    14  O   -0.534000
    15  C   -0.048455
    16  C    0.107980
    17  O   -0.672393
    18  C   -0.133220
    19  N   -0.608858
    20  C    0.050895
    21  C   -0.459530
    22  C   -0.451752
    23  C   -0.220884
    24  C   -0.175157
    25  H    0.147277
    26  H    0.148795
    27  H    0.147311
    28  H    0.143882
    29  H    0.144421
    30  H    0.178845
    31  H    0.176705
    32  H    0.392207
    33  H    0.164302
    34  H    0.182954
    35  H    0.158182
    36  H    0.190400
    37  H    0.167229
    38  H    0.163428
    39  H    0.141646
    40  H    0.442632
    41  H    0.149146
    42  H    0.130693
    43  H    0.320481
    44  H    0.134799
    45  H    0.152518
    46  H    0.142979
    47  H    0.146899
    48  H    0.148242
    49  H    0.143774
    50  H    0.146648
    51  H    0.170319
    52  H    0.179236
 Sum of Mulliken charges =  -0.00000

 Dipole moment (field-independent basis, Debye):
    X=              3.0461    Y=             -1.5618    Z=             -0.4462  Tot=              3.4521
 Quadrupole moment (field-independent basis, Debye-Ang):
   XX=           -103.0106   YY=           -164.5904   ZZ=           -145.3178
   XY=            -13.0540   XZ=              1.4951   YZ=              0.1047

 Normal termination of Gaussian 16 at Tue Mar  1 18:27:44 2022.
