 Gaussian 16, Revision A.03,

 ----------------------------------------------------------------------
 #p b3lyp/6-31G(d) opt=(MaxStep=10,MaxCycles=1000) freq scf=(MaxCycle=2
 000,NoVarAcc,NoIncFock) scrf=(iefpcm,read,solvent=water)
 ----------------------------------------------------------------------

 -------------
 223.n.pdb.xyz
 -------------
 Symbolic Z-matrix:
 Charge =  0 Multiplicity = 1

 SCF Done:  E(RB3LYP) =  -878.522417080     A.U. after   13 cycles
 SCF Done:  E(RB3LYP) =  -878.525546191     A.U. after   10 cycles
 SCF Done:  E(RB3LYP) =  -878.526325388     A.U. after   10 cycles
 SCF Done:  E(RB3LYP) =  -878.526105764     A.U. after   10 cycles
 SCF Done:  E(RB3LYP) =  -878.526250336     A.U. after   10 cycles
 SCF Done:  E(RB3LYP) =  -878.526346665     A.U. after   10 cycles
 SCF Done:  E(RB3LYP) =  -878.526218756     A.U. after   10 cycles
 SCF Done:  E(RB3LYP) =  -878.526263093     A.U. after    8 cycles
 SCF Done:  E(RB3LYP) =  -878.526349684     A.U. after    9 cycles
 SCF Done:  E(RB3LYP) =  -878.526253554     A.U. after   10 cycles
 SCF Done:  E(RB3LYP) =  -878.526347046     A.U. after    9 cycles
 SCF Done:  E(RB3LYP) =  -878.526351219     A.U. after    8 cycles
 SCF Done:  E(RB3LYP) =  -878.526243659     A.U. after   10 cycles
 SCF Done:  E(RB3LYP) =  -878.526245351     A.U. after    7 cycles
 SCF Done:  E(RB3LYP) =  -878.526347428     A.U. after    9 cycles
 SCF Done:  E(RB3LYP) =  -878.526351180     A.U. after    8 cycles
 SCF Done:  E(RB3LYP) =  -878.526245441     A.U. after   10 cycles
 Optimization completed.
    -- Stationary point found.
 Normal termination of Gaussian 16 at Tue Mar  1 18:18:48 2022.

 --------------------------------------------------------------------
 #P Geom=AllCheck Guess=TCheck SCRF=Check GenChk RB3LYP/6-31G(d) Freq
 --------------------------------------------------------------------

 Structure from the checkpoint file:  "223.n.pdb.xyz.mst.wat.chk"
 -------------
 223.n.pdb.xyz
 -------------
 Charge =  0 Multiplicity = 1

 SCF Done:  E(RB3LYP) =  -878.526245440     A.U. after    1 cycles

  Exact polarizability: 395.478  13.899 242.359  -1.424  10.179  91.851
 Approx polarizability: 417.887  29.609 317.129  -5.356   8.805 113.027

                      1                      2                      3
                      A                      A                      A
 Frequencies --     31.1479                58.6708                69.8127
 Red. masses --      7.1984                 4.3805                 6.2891
 Frc consts  --      0.0041                 0.0089                 0.0181
 IR Inten    --      3.9836                 1.9176                 2.2119

                      4                      5                      6
                      A                      A                      A
 Frequencies --    113.1404               127.0739               192.1544
 Red. masses --      7.5136                 6.5756                 4.6702
 Frc consts  --      0.0567                 0.0626                 0.1016
 IR Inten    --      2.9411                 9.2505                14.4494

                      7                      8                      9
                      A                      A                      A
 Frequencies --    226.8864               229.3149               264.2595
 Red. masses --      6.6658                 5.1563                 7.1348
 Frc consts  --      0.2022                 0.1598                 0.2936
 IR Inten    --      5.7885                14.3379                16.0580

                     10                     11                     12
                      A                      A                      A
 Frequencies --    289.5167               293.2611               340.7897
 Red. masses --      1.6447                 2.8652                 7.8680
 Frc consts  --      0.0812                 0.1452                 0.5384
 IR Inten    --    100.8297                71.5445                 0.4080

                     13                     14                     15
                      A                      A                      A
 Frequencies --    359.1847               390.1931               404.5422
 Red. masses --      1.1072                 5.8138                 5.5641
 Frc consts  --      0.0842                 0.5215                 0.5365
 IR Inten    --    197.5874                 4.9090                 5.9371

                     16                     17                     18
                      A                      A                      A
 Frequencies --    419.2281               428.7717               449.3572
 Red. masses --      3.7111                 3.1991                 4.5322
 Frc consts  --      0.3843                 0.3465                 0.5392
 IR Inten    --     16.0181                 0.1706                 9.8758

                     19                     20                     21
                      A                      A                      A
 Frequencies --    493.9402               498.8235               507.7900
 Red. masses --      5.0425                 3.9181                 6.6447
 Frc consts  --      0.7249                 0.5744                 1.0095
 IR Inten    --     10.9723                 7.1798                 1.0295

                     22                     23                     24
                      A                      A                      A
 Frequencies --    542.7018               554.6659               614.2977
 Red. masses --      4.1584                 3.8353                 6.1403
 Frc consts  --      0.7216                 0.6952                 1.3652
 IR Inten    --     23.3267                37.7537                17.4555

                     25                     26                     27
                      A                      A                      A
 Frequencies --    633.9755               646.2386               655.1234
 Red. masses --      6.9570                 5.2976                 6.7540
 Frc consts  --      1.6475                 1.3035                 1.7079
 IR Inten    --     10.8511                 4.8311                 1.3963

                     28                     29                     30
                      A                      A                      A
 Frequencies --    695.9880               729.5390               744.7335
 Red. masses --      4.1733                 4.7288                 7.1995
 Frc consts  --      1.1911                 1.4829                 2.3526
 IR Inten    --      2.1865                 9.8773                 2.4919

                     31                     32                     33
                      A                      A                      A
 Frequencies --    785.6094               795.7962               830.4904
 Red. masses --      3.7032                 5.5515                 1.3056
 Frc consts  --      1.3466                 2.0714                 0.5305
 IR Inten    --     28.6539                25.8166                13.8866

                     34                     35                     36
                      A                      A                      A
 Frequencies --    838.2099               840.5995               848.6096
 Red. masses --      1.7507                 4.5197                 1.8557
 Frc consts  --      0.7247                 1.8816                 0.7874
 IR Inten    --     35.1248                10.3571                51.2403

                     37                     38                     39
                      A                      A                      A
 Frequencies --    854.3417               900.1371               922.4929
 Red. masses --      1.4766                 6.3645                 1.4180
 Frc consts  --      0.6350                 3.0383                 0.7110
 IR Inten    --     43.1213                58.9092                14.3101

                     40                     41                     42
                      A                      A                      A
 Frequencies --    957.6216               964.2740               971.5817
 Red. masses --      1.2998                 1.3302                 3.0818
 Frc consts  --      0.7023                 0.7287                 1.7140
 IR Inten    --      4.8888                 1.1125                66.5240

                     43                     44                     45
                      A                      A                      A
 Frequencies --    980.8281              1027.1743              1065.4179
 Red. masses --      1.2976                 3.0616                 3.8731
 Frc consts  --      0.7355                 1.9032                 2.5903
 IR Inten    --      1.0300                 6.7664                66.5628

                     46                     47                     48
                      A                      A                      A
 Frequencies --   1124.0927              1133.8118              1164.7744
 Red. masses --      2.2366                 1.3920                 1.3783
 Frc consts  --      1.6651                 1.0543                 1.1017
 IR Inten    --    102.1721                93.2204                 4.2228

                     49                     50                     51
                      A                      A                      A
 Frequencies --   1198.7226              1205.4352              1206.9700
 Red. masses --      1.3365                 1.2596                 1.5277
 Frc consts  --      1.1315                 1.0784                 1.3113
 IR Inten    --    648.6620               120.5944               107.6923

                     52                     53                     54
                      A                      A                      A
 Frequencies --   1244.5634              1254.8889              1301.5252
 Red. masses --      2.0725                 3.0280                 3.6539
 Frc consts  --      1.8914                 2.8094                 3.6468
 IR Inten    --     20.6982                82.6961               238.7242

                     55                     56                     57
                      A                      A                      A
 Frequencies --   1307.7172              1328.7033              1334.2250
 Red. masses --      4.0872                 2.6871                 2.0316
 Frc consts  --      4.1182                 2.7950                 2.1308
 IR Inten    --    454.6333               136.4305                37.5943

                     58                     59                     60
                      A                      A                      A
 Frequencies --   1368.8158              1382.4741              1405.2559
 Red. masses --      1.7593                 2.1025                 2.9809
 Frc consts  --      1.9421                 2.3675                 3.4683
 IR Inten    --     23.8260                24.0559                80.2111

                     61                     62                     63
                      A                      A                      A
 Frequencies --   1418.8135              1478.2685              1496.8914
 Red. masses --      5.9690                 2.9622                 3.7216
 Frc consts  --      7.0795                 3.8140                 4.9131
 IR Inten    --     76.8561                88.1583               455.3527

                     64                     65                     66
                      A                      A                      A
 Frequencies --   1546.3452              1558.8141              1616.5624
 Red. masses --      3.4025                 2.7128                 6.3770
 Frc consts  --      4.7936                 3.8838                 9.8186
 IR Inten    --      8.3806               192.2896                 4.4814

                     67                     68                     69
                      A                      A                      A
 Frequencies --   1634.6788              1656.4351              1665.5859
 Red. masses --      5.7728                 6.8669                 6.9593
 Frc consts  --      9.0886                11.1010                11.3749
 IR Inten    --     34.4927                93.7484              1066.0782

                     70                     71                     72
                      A                      A                      A
 Frequencies --   1667.5545              1691.8673              3198.0270
 Red. masses --      6.0126                 9.2103                 1.0907
 Frc consts  --      9.8508                15.5330                 6.5721
 IR Inten    --     11.1107               371.7619                30.9645

                     73                     74                     75
                      A                      A                      A
 Frequencies --   3208.1194              3215.3074              3225.2309
 Red. masses --      1.0877                 1.0889                 1.0943
 Frc consts  --      6.5955                 6.6327                 6.7065
 IR Inten    --     14.2884                 9.8099                22.7248

                     76                     77                     78
                      A                      A                      A
 Frequencies --   3233.3193              3247.1020              3252.2066
 Red. masses --      1.0935                 1.0924                 1.0916
 Frc consts  --      6.7352                 6.7864                 6.8025
 IR Inten    --     10.8516                 2.5760                 5.9079

                     79                     80                     81
                      A                      A                      A
 Frequencies --   3261.5783              3714.9739              3716.8424
 Red. masses --      1.0933                 1.0664                 1.0662
 Frc consts  --      6.8525                 8.6713                 8.6780
 IR Inten    --     10.2878               229.3219               277.7133

 - Thermochemistry -
 -------------------
 Temperature   298.150 Kelvin.  Pressure   1.00000 Atm.
 Atom     1 has atomic number  8 and mass  15.99491

 Molecular mass:   254.05791 amu.
 Principal axes and moments of inertia in atomic units:
                           1         2         3
     Eigenvalues --  1240.76905********************
           X            1.00000  -0.00253   0.00127
           Y            0.00251   0.99990   0.01408
           Z           -0.00130  -0.01408   0.99990
 This molecule is an asymmetric top.
 Rotational symmetry number  1.
 Warning -- assumption of classical behavior for rotation
           may cause significant error
 Rotational temperatures (Kelvin)      0.06981     0.00780     0.00713
 Rotational constants (GHZ):           1.45453     0.16262     0.14850
 Zero-point vibrational energy     569750.3 (Joules/Mol)
                                  136.17358 (Kcal/Mol)
 Warning -- explicit consideration of  24 degrees of freedom as
           vibrations may cause significant error
 Vibrational temperatures:     44.81    84.41   100.44   162.78   182.83
          (Kelvin)            276.47   326.44   329.93   380.21   416.55
                              421.94   490.32   516.79   561.40   582.05
                              603.18   616.91   646.52   710.67   717.70
                              730.60   780.83   798.04   883.84   912.15
                              929.79   942.58  1001.37  1049.64  1071.51
                             1130.32  1144.97  1194.89  1206.00  1209.44
                             1220.96  1229.21  1295.10  1327.26  1377.80
                             1387.38  1397.89  1411.19  1477.87  1532.90
                             1617.32  1631.30  1675.85  1724.69  1734.35
                             1736.56  1790.65  1805.51  1872.60  1881.51
                             1911.71  1919.65  1969.42  1989.07  2021.85
                             2041.36  2126.90  2153.69  2224.85  2242.79
                             2325.87  2351.94  2383.24  2396.41  2399.24
                             2434.22  4601.25  4615.77  4626.11  4640.39
                             4652.03  4671.86  4679.20  4692.68  5345.02
                             5347.71

 Zero-point correction=                           0.217006 (Hartree/Particle)
 Thermal correction to Energy=                    0.231845
 Thermal correction to Enthalpy=                  0.232789
 Thermal correction to Gibbs Free Energy=         0.174718
 Sum of electronic and zero-point Energies=           -878.309239
 Sum of electronic and thermal Energies=              -878.294401
 Sum of electronic and thermal Enthalpies=            -878.293457
 Sum of electronic and thermal Free Energies=         -878.351528

                     E (Thermal)             CV                S
                      KCal/Mol        Cal/Mol-Kelvin    Cal/Mol-Kelvin
 Total                  145.485             59.585            122.221
 Electronic               0.000              0.000              0.000
 Translational            0.889              2.981             42.497
 Rotational               0.889              2.981             33.481
 Vibrational            143.707             53.623             46.243
 Vibration     1          0.594              1.983              5.755
 Vibration     2          0.596              1.974              4.501
 Vibration     3          0.598              1.969              4.159
 Vibration     4          0.607              1.939              3.214
 Vibration     5          0.611              1.926              2.990
 Vibration     6          0.634              1.851              2.207
 Vibration     7          0.651              1.800              1.903
 Vibration     8          0.652              1.796              1.884
 Vibration     9          0.671              1.738              1.633
 Vibration    10          0.686              1.693              1.477
 Vibration    11          0.688              1.686              1.455
 Vibration    12          0.720              1.594              1.208
 Vibration    13          0.734              1.556              1.126
 Vibration    14          0.758              1.491              0.999
 Vibration    15          0.770              1.460              0.946
 Vibration    16          0.782              1.428              0.895
 Vibration    17          0.790              1.408              0.863
 Vibration    18          0.808              1.362              0.798
 Vibration    19          0.850              1.263              0.673
 Vibration    20          0.854              1.253              0.661
 Vibration    21          0.863              1.233              0.639
 Vibration    22          0.898              1.156              0.560
 Vibration    23          0.910              1.129              0.535
 Vibration    24          0.974              1.002              0.426

 Optimization completed.
    -- Stationary point found.
 Normal termination of Gaussian 16 at Tue Mar  1 18:47:00 2022.

 ------------------------------------------
 #p b3lyp/6-31G(d) geom=allcheck guess=read
 ------------------------------------------

 Structure from the checkpoint file:  "223.n.pdb.xyz.mst.wat.chk"
 -------------
 223.n.pdb.xyz
 -------------
 Charge =  0 Multiplicity = 1

 SCF Done:  E(RB3LYP) =  -878.499572403     A.U. after   12 cycles
 Normal termination of Gaussian 16 at Tue Mar  1 18:49:19 2022.
 Gaussian 16:  ES64L-G16RevA.03 25-Dec-2016

 ----------------------------------------------------------------------
 #p b3lyp/6-31G(d) scrf=(iefpcm,read,solvent=water) geom=allcheck guess
 =read
 ----------------------------------------------------------------------

 Structure from the checkpoint file:  "223.n.pdb.xyz.mst.wat.chk"
 -------------
 223.n.pdb.xyz
 -------------
 Charge =  0 Multiplicity = 1

                         Standard orientation:
 ---------------------------------------------------------------------
 Center     Atomic      Atomic             Coordinates (Angstroms)
 Number     Number       Type             X           Y           Z
 ---------------------------------------------------------------------
      1          8           0        6.142584    0.048295   -0.074358
      2          6           0        4.781982    0.021131   -0.019878
      3          6           0        4.015890    1.047825    0.547456
      4          6           0        2.626129    0.952627    0.565762
      5          6           0        1.963765   -0.161729    0.024080
      6          6           0        2.750940   -1.173617   -0.553479
      7          6           0        4.138367   -1.092753   -0.573605
      8          6           0        0.490459   -0.292829    0.077550
      9          6           0       -0.066131   -1.513643    0.287679
     10          8           0       -1.388221   -1.785188    0.315961
     11          6           0       -2.278775   -0.763521    0.132117
     12          6           0       -3.629497   -1.098390    0.167739
     13          6           0       -4.572969   -0.088178   -0.012881
     14          8           0       -5.877317   -0.445200    0.031023
     15          6           0       -4.158396    1.244807   -0.231188
     16          6           0       -2.810997    1.546376   -0.257753
     17          6           0       -1.833126    0.550904   -0.074790
     18          6           0       -0.400896    0.865879   -0.104898
     19          8           0        0.012860    2.022195   -0.278068
     20          1           0        6.473560    0.858007    0.353094
     21          1           0        4.504974    1.917842    0.976056
     22          1           0        2.043200    1.753358    1.001199
     23          1           0        2.266909   -2.032413   -1.007280
     24          1           0        4.735322   -1.877249   -1.025600
     25          1           0        0.511500   -2.412035    0.462012
     26          1           0       -3.938816   -2.122543    0.333978
     27          1           0       -6.441610    0.338564   -0.095656
     28          1           0       -4.901052    2.022810   -0.375623
     29          1           0       -2.473708    2.563515   -0.422110
 ---------------------------------------------------------------------

 SCF Done:  E(RB3LYP) =  -878.524794367     A.U. after   11 cycles

 The electronic state is 1-A.
 Alpha  occ. eigenvalues --  -19.23326 -19.18748 -19.17665 -19.12434 -10.27408
 Alpha  occ. eigenvalues --  -10.27366 -10.27077 -10.27031 -10.25257 -10.20701
 Alpha  occ. eigenvalues --  -10.20687 -10.20211 -10.19965 -10.19962 -10.19809
 Alpha  occ. eigenvalues --  -10.19475 -10.19205 -10.18927 -10.18757  -1.12406
 Alpha  occ. eigenvalues --   -1.07021  -1.05683  -1.02247  -0.86939  -0.86000
 Alpha  occ. eigenvalues --   -0.81492  -0.77298  -0.76745  -0.75014  -0.72974
 Alpha  occ. eigenvalues --   -0.67326  -0.64887  -0.62750  -0.61338  -0.59896
 Alpha  occ. eigenvalues --   -0.57481  -0.54516  -0.53886  -0.52760  -0.50885
 Alpha  occ. eigenvalues --   -0.47954  -0.47452  -0.46801  -0.46398  -0.44686
 Alpha  occ. eigenvalues --   -0.43891  -0.42703  -0.42225  -0.42123  -0.41608
 Alpha  occ. eigenvalues --   -0.40908  -0.40528  -0.39516  -0.38480  -0.37974
 Alpha  occ. eigenvalues --   -0.36475  -0.35071  -0.34657  -0.33904  -0.33162
 Alpha  occ. eigenvalues --   -0.28099  -0.25887  -0.25197  -0.24842  -0.23703
 Alpha  occ. eigenvalues --   -0.21085
 Alpha virt. eigenvalues --   -0.05474  -0.02519  -0.00509  -0.00225   0.02313
 Alpha virt. eigenvalues --    0.09192   0.09395   0.09786   0.09976   0.10848
 Alpha virt. eigenvalues --    0.12808   0.14353   0.15358   0.15834   0.16564

 Mulliken charges:
               1
     1  O   -0.676497
     2  C    0.350176
     3  C   -0.217149
     4  C   -0.182589
     5  C    0.080912
     6  C   -0.198677
     7  C   -0.192173
     8  C   -0.022129
     9  C    0.060995
    10  O   -0.489903
    11  C    0.309261
    12  C   -0.242164
    13  C    0.367417
    14  O   -0.664249
    15  C   -0.196870
    16  C   -0.199741
    17  C    0.066616
    18  C    0.387612
    19  O   -0.585793
    20  H    0.461981
    21  H    0.155575
    22  H    0.154604
    23  H    0.151876
    24  H    0.149874
    25  H    0.198108
    26  H    0.169300
    27  H    0.470149
    28  H    0.168706
    29  H    0.164773
 Sum of Mulliken charges =  -0.00000

 Dipole moment (field-independent basis, Debye):
    X=             -3.2303    Y=             -0.4575    Z=              1.2223  Tot=              3.4839
 Quadrupole moment (field-independent basis, Debye-Ang):
   XX=            -67.2189   YY=           -103.2508   ZZ=           -108.4812
   XY=             -3.4061   XZ=              8.2740   YZ=              3.6732

 Normal termination of Gaussian 16 at Tue Mar  1 18:51:50 2022.
