 Gaussian 16, Revision A.03,

 ----------------------------------------------------------------------
 #p b3lyp/6-31G(d) opt=(MaxStep=10,MaxCycles=1000) freq scf=(MaxCycle=2
 000,NoVarAcc,NoIncFock) scrf=(iefpcm,read,solvent=water)
 ----------------------------------------------------------------------

 -------------
 224.n.pdb.xyz
 -------------
 Symbolic Z-matrix:
 Charge =  0 Multiplicity = 1

 SCF Done:  E(RB3LYP) =  -194.354998361     A.U. after   10 cycles
 SCF Done:  E(RB3LYP) =  -194.355795084     A.U. after    9 cycles
 SCF Done:  E(RB3LYP) =  -194.355864428     A.U. after    8 cycles
 SCF Done:  E(RB3LYP) =  -194.355865129     A.U. after    7 cycles
 Optimization completed.
    -- Stationary point found.
 Normal termination of Gaussian 16 at Tue Mar  1 20:01:11 2022.

 --------------------------------------------------------------------
 #P Geom=AllCheck Guess=TCheck SCRF=Check GenChk RB3LYP/6-31G(d) Freq
 --------------------------------------------------------------------

 Structure from the checkpoint file:  "224.n.pdb.xyz.mst.wat.chk"
 -------------
 224.n.pdb.xyz
 -------------
 Charge =  0 Multiplicity = 1

 SCF Done:  E(RB3LYP) =  -194.355865129     A.U. after    1 cycles

  Exact polarizability:  49.862  -0.787  45.012   0.002   0.008  42.964
 Approx polarizability:  48.387   0.077  47.063   0.003   0.008  44.921

                      1                      2                      3
                      A                      A                      A
 Frequencies --    126.2378               210.6366               242.5386
 Red. masses --      2.5194                 1.0592                 1.1135
 Frc consts  --      0.0237                 0.0277                 0.0386
 IR Inten    --     18.5249               177.7248                14.9170

                      4                      5                      6
                      A                      A                      A
 Frequencies --    275.0031               457.6227               773.7541
 Red. masses --      2.5971                 4.1897                 1.0746
 Frc consts  --      0.1157                 0.5170                 0.3791
 IR Inten    --      6.1460                15.1908                 1.8421

                      7                      8                      9
                      A                      A                      A
 Frequencies --    896.2893               907.0526              1043.4766
 Red. masses --      1.7621                 1.1260                 4.0418
 Frc consts  --      0.8340                 0.5458                 2.5929
 IR Inten    --      8.8796                 6.0148                46.6677

                     10                     11                     12
                      A                      A                      A
 Frequencies --   1067.6969              1104.9253              1196.8297
 Red. masses --      2.2939                 1.8918                 1.5777
 Frc consts  --      1.5407                 1.3608                 1.3315
 IR Inten    --    116.5364                 5.7544                 2.9610

                     13                     14                     15
                      A                      A                      A
 Frequencies --   1261.0682              1278.9602              1326.6341
 Red. masses --      1.2669                 1.2266                 1.0854
 Frc consts  --      1.1871                 1.1822                 1.1255
 IR Inten    --     81.0470                 0.4259                 0.0128

                     16                     17                     18
                      A                      A                      A
 Frequencies --   1362.2247              1432.1916              1475.9844
 Red. masses --      1.4341                 1.2667                 1.4532
 Frc consts  --      1.5679                 1.5309                 1.8652
 IR Inten    --     10.1500                 0.7483                 9.4791

                     19                     20                     21
                      A                      A                      A
 Frequencies --   1509.4752              1518.6281              1530.9242
 Red. masses --      1.0511                 1.0408                 1.0959
 Frc consts  --      1.4111                 1.4143                 1.5133
 IR Inten    --      1.7787                 7.8267                 5.4391

                     22                     23                     24
                      A                      A                      A
 Frequencies --   1555.0630              3008.6687              3034.4610
 Red. masses --      1.0877                 1.0552                 1.1060
 Frc consts  --      1.5498                 5.6277                 6.0002
 IR Inten    --      4.7183                94.3742                91.3418

                     25                     26                     27
                      A                      A                      A
 Frequencies --   3054.3261              3057.5323              3089.5138
 Red. masses --      1.0591                 1.0364                 1.1044
 Frc consts  --      5.8215                 5.7083                 6.2108
 IR Inten    --     62.8608                39.1469                48.5106

                     28                     29                     30
                      A                      A                      A
 Frequencies --   3121.2794              3129.2495              3729.5569
 Red. masses --      1.1035                 1.1020                 1.0666
 Frc consts  --      6.3339                 6.3578                 8.7408
 IR Inten    --    110.6330                59.4598                67.8899

 - Thermochemistry -
 -------------------
 Temperature   298.150 Kelvin.  Pressure   1.00000 Atm.
 Atom     1 has atomic number  6 and mass  12.00000

 Molecular mass:    60.05751 amu.
 Principal axes and moments of inertia in atomic units:
                           1         2         3
     Eigenvalues --    67.78760 477.73665 511.85448
           X            0.99990  -0.01430   0.00000
           Y            0.01430   0.99990   0.00004
           Z           -0.00000  -0.00004   1.00000
 This molecule is an asymmetric top.
 Rotational symmetry number  1.
 Rotational temperatures (Kelvin)      1.27773     0.18130     0.16922
 Rotational constants (GHZ):          26.62347     3.77769     3.52589
 Zero-point vibrational energy     285774.7 (Joules/Mol)
                                   68.30180 (Kcal/Mol)
 Warning -- explicit consideration of   5 degrees of freedom as
           vibrations may cause significant error
 Vibrational temperatures:    181.63   303.06   348.96   395.67   658.42
          (Kelvin)           1113.26  1289.56  1305.05  1501.33  1536.18
                             1589.74  1721.97  1814.40  1840.14  1908.73
                             1959.94  2060.60  2123.61  2171.80  2184.97
                             2202.66  2237.39  4328.80  4365.91  4394.49
                             4399.11  4445.12  4490.82  4502.29  5366.00

 Zero-point correction=                           0.108846 (Hartree/Particle)
 Thermal correction to Energy=                    0.114483
 Thermal correction to Enthalpy=                  0.115427
 Thermal correction to Gibbs Free Energy=         0.080924
 Sum of electronic and zero-point Energies=           -194.247019
 Sum of electronic and thermal Energies=              -194.241382
 Sum of electronic and thermal Enthalpies=            -194.240438
 Sum of electronic and thermal Free Energies=         -194.274941

                     E (Thermal)             CV                S
                      KCal/Mol        Cal/Mol-Kelvin    Cal/Mol-Kelvin
 Total                   71.839             18.397             72.619
 Electronic               0.000              0.000              0.000
 Translational            0.889              2.981             38.198
 Rotational               0.889              2.981             24.320
 Vibrational             70.062             12.436             10.100
 Vibration     1          0.611              1.927              3.003
 Vibration     2          0.643              1.825              2.038
 Vibration     3          0.659              1.775              1.784
 Vibration     4          0.677              1.720              1.565
 Vibration     5          0.816              1.344              0.773

 Optimization completed.
    -- Stationary point found.
 Normal termination of Gaussian 16 at Tue Mar  1 20:02:17 2022.

 ------------------------------------------
 #p b3lyp/6-31G(d) geom=allcheck guess=read
 ------------------------------------------

 Structure from the checkpoint file:  "224.n.pdb.xyz.mst.wat.chk"
 -------------
 224.n.pdb.xyz
 -------------
 Charge =  0 Multiplicity = 1

 SCF Done:  E(RB3LYP) =  -194.347437414     A.U. after   10 cycles
 Normal termination of Gaussian 16 at Tue Mar  1 20:02:27 2022.
 Gaussian 16:  ES64L-G16RevA.03 25-Dec-2016

 ----------------------------------------------------------------------
 #p b3lyp/6-31G(d) scrf=(iefpcm,read,solvent=water) geom=allcheck guess
 =read
 ----------------------------------------------------------------------

 Structure from the checkpoint file:  "224.n.pdb.xyz.mst.wat.chk"
 -------------
 224.n.pdb.xyz
 -------------
 Charge =  0 Multiplicity = 1

                         Standard orientation:
 ---------------------------------------------------------------------
 Center     Atomic      Atomic             Coordinates (Angstroms)
 Number     Number       Type             X           Y           Z
 ---------------------------------------------------------------------
      1          6           0       -1.899724   -0.146361    0.000128
      2          6           0       -0.525601    0.525578   -0.000204
      3          6           0        0.616636   -0.479437   -0.000077
      4          8           0        1.851561    0.236532    0.000065
      5          1           0       -2.700844    0.598482    0.000355
      6          1           0       -2.032986   -0.778871   -0.884205
      7          1           0       -2.032428   -0.778660    0.884525
      8          1           0       -0.422602    1.171946    0.879473
      9          1           0       -0.422866    1.171816   -0.880033
     10          1           0        0.541878   -1.128533   -0.884818
     11          1           0        0.541561   -1.127621    0.884651
     12          1           0        2.567923   -0.419488    0.000453
 ---------------------------------------------------------------------

 SCF Done:  E(RB3LYP) =  -194.355871673     A.U. after    9 cycles

 The electronic state is 1-A.
 Alpha  occ. eigenvalues --  -19.13530 -10.22146 -10.17676 -10.17246  -1.00494
 Alpha  occ. eigenvalues --   -0.77339  -0.66661  -0.58156  -0.49804  -0.46950
 Alpha  occ. eigenvalues --   -0.42466  -0.40029  -0.36129  -0.35703  -0.33365
 Alpha  occ. eigenvalues --   -0.31838  -0.26241
 Alpha virt. eigenvalues --    0.09628   0.10042   0.14474   0.15683   0.17086
 Alpha virt. eigenvalues --    0.18028   0.19517   0.20695   0.22615   0.24495
 Alpha virt. eigenvalues --    0.26843   0.52909   0.54442   0.54663   0.55412

 Mulliken charges:
               1
     1  C   -0.457529
     2  C   -0.260427
     3  C   -0.018625
     4  O   -0.679075
     5  H    0.151881
     6  H    0.148722
     7  H    0.148754
     8  H    0.140115
     9  H    0.140107
    10  H    0.124556
    11  H    0.124701
    12  H    0.436820
 Sum of Mulliken charges =  -0.00000

 Dipole moment (field-independent basis, Debye):
    X=             -0.0316    Y=             -1.9507    Z=              0.0015  Tot=              1.9510
 Quadrupole moment (field-independent basis, Debye-Ang):
   XX=            -23.7139   YY=            -26.2888   ZZ=            -26.3875
   XY=             -4.3814   XZ=              0.0023   YZ=             -0.0006

 Normal termination of Gaussian 16 at Tue Mar  1 20:02:39 2022.
