 Gaussian 16, Revision A.03,

 ----------------------------------------------------------------------
 #p b3lyp/6-31G(d) opt=(MaxStep=10,MaxCycles=1000) freq scf=(MaxCycle=2
 000,NoVarAcc,NoIncFock) scrf=(iefpcm,read,solvent=water)
 ----------------------------------------------------------------------

 -------------
 225.n.pdb.xyz
 -------------
 Symbolic Z-matrix:
 Charge =  0 Multiplicity = 1

 SCF Done:  E(RB3LYP) =  -194.360876812     A.U. after   11 cycles
 SCF Done:  E(RB3LYP) =  -194.361632989     A.U. after    9 cycles
 SCF Done:  E(RB3LYP) =  -194.361697825     A.U. after    8 cycles
 SCF Done:  E(RB3LYP) =  -194.361700035     A.U. after    7 cycles
 SCF Done:  E(RB3LYP) =  -194.361701001     A.U. after    7 cycles
 SCF Done:  E(RB3LYP) =  -194.361701021     A.U. after    7 cycles
 Optimization completed.
    -- Stationary point found.
 Normal termination of Gaussian 16 at Tue Mar  1 21:06:11 2022.

 --------------------------------------------------------------------
 #P Geom=AllCheck Guess=TCheck SCRF=Check GenChk RB3LYP/6-31G(d) Freq
 --------------------------------------------------------------------

 Structure from the checkpoint file:  "225.n.pdb.xyz.mst.wat.chk"
 -------------
 225.n.pdb.xyz
 -------------
 Charge =  0 Multiplicity = 1

 SCF Done:  E(RB3LYP) =  -194.361701021     A.U. after    1 cycles

  Exact polarizability:  47.746   1.818  47.265   0.700  -0.481  43.877
 Approx polarizability:  47.026   1.359  49.067   1.010  -1.427  46.124

                      1                      2                      3
                      A                      A                      A
 Frequencies --    232.1945               273.9387               332.6985
 Red. masses --      1.0307                 1.0779                 1.0769
 Frc consts  --      0.0327                 0.0477                 0.0702
 IR Inten    --      6.0181                 0.8701               190.8250

                      4                      5                      6
                      A                      A                      A
 Frequencies --    357.4334               414.5195               482.0512
 Red. masses --      2.1504                 2.8831                 2.3130
 Frc consts  --      0.1619                 0.2919                 0.3167
 IR Inten    --      7.2273                11.9892                14.8497

                      7                      8                      9
                      A                      A                      A
 Frequencies --    829.4135               939.5661               957.6280
 Red. masses --      2.7106                 1.2064                 1.4767
 Frc consts  --      1.0986                 0.6275                 0.7979
 IR Inten    --      6.5576                 0.6710                12.5856

                     10                     11                     12
                      A                      A                      A
 Frequencies --    974.3201              1099.4767              1165.1831
 Red. masses --      2.3052                 1.6080                 1.9581
 Frc consts  --      1.2893                 1.1453                 1.5663
 IR Inten    --     64.4616                31.6672                48.6127

                     13                     14                     15
                      A                      A                      A
 Frequencies --   1195.4210              1286.0888              1387.1461
 Red. masses --      1.8986                 1.1884                 1.2665
 Frc consts  --      1.5986                 1.1581                 1.4359
 IR Inten    --     50.0899                82.3016                26.2802

                     16                     17                     18
                      A                      A                      A
 Frequencies --   1411.5090              1433.6499              1447.4920
 Red. masses --      1.2316                 1.3187                 1.4613
 Frc consts  --      1.4458                 1.5969                 1.8039
 IR Inten    --      1.6763                22.1449                30.8908

                     19                     20                     21
                      A                      A                      A
 Frequencies --   1504.9864              1508.9112              1517.6133
 Red. masses --      1.0471                 1.0571                 1.0806
 Frc consts  --      1.3974                 1.4181                 1.4664
 IR Inten    --      1.7966                 2.6789                 4.8405

                     22                     23                     24
                      A                      A                      A
 Frequencies --   1527.5089              2996.5886              3054.2443
 Red. masses --      1.0576                 1.0834                 1.0351
 Frc consts  --      1.4539                 5.7321                 5.6891
 IR Inten    --      4.7425               105.3141                33.8670

                     25                     26                     27
                      A                      A                      A
 Frequencies --   3065.2273              3122.4886              3127.6487
 Red. masses --      1.0356                 1.1030                 1.1028
 Frc consts  --      5.7327                 6.3364                 6.3559
 IR Inten    --     20.8627                60.0722                27.5426

                     28                     29                     30
                      A                      A                      A
 Frequencies --   3134.1223              3140.0846              3707.0984
 Red. masses --      1.1028                 1.1028                 1.0662
 Frc consts  --      6.3826                 6.4064                 8.6325
 IR Inten    --     79.3448                58.9756                58.2002

 - Thermochemistry -
 -------------------
 Temperature   298.150 Kelvin.  Pressure   1.00000 Atm.
 Atom     1 has atomic number  6 and mass  12.00000

 Molecular mass:    60.05751 amu.
 Principal axes and moments of inertia in atomic units:
                           1         2         3
     Eigenvalues --   209.31848 224.94634 380.20661
           X            0.99089   0.13465   0.00318
           Y           -0.13468   0.99064   0.02237
           Z           -0.00014  -0.02259   0.99974
 This molecule is an asymmetric top.
 Rotational symmetry number  1.
 Rotational temperatures (Kelvin)      0.41379     0.38504     0.22781
 Rotational constants (GHZ):           8.62199     8.02299     4.74674
 Zero-point vibrational energy     284868.3 (Joules/Mol)
                                   68.08515 (Kcal/Mol)
 Warning -- explicit consideration of   6 degrees of freedom as
           vibrations may cause significant error
 Vibrational temperatures:    334.08   394.14   478.68   514.27   596.40
          (Kelvin)            693.56  1193.34  1351.83  1377.81  1401.83
                             1581.90  1676.44  1719.94  1850.39  1995.79
                             2030.85  2062.70  2082.62  2165.34  2170.99
                             2183.51  2197.74  4311.42  4394.38  4410.18
                             4492.56  4499.99  4509.30  4517.88  5333.69

 Zero-point correction=                           0.108501 (Hartree/Particle)
 Thermal correction to Energy=                    0.113886
 Thermal correction to Enthalpy=                  0.114830
 Thermal correction to Gibbs Free Energy=         0.081175
 Sum of electronic and zero-point Energies=           -194.253200
 Sum of electronic and thermal Energies=              -194.247815
 Sum of electronic and thermal Enthalpies=            -194.246871
 Sum of electronic and thermal Free Energies=         -194.280526

                     E (Thermal)             CV                S
                      KCal/Mol        Cal/Mol-Kelvin    Cal/Mol-Kelvin
 Total                   71.465             18.812             70.834
 Electronic               0.000              0.000              0.000
 Translational            0.889              2.981             38.198
 Rotational               0.889              2.981             24.396
 Vibrational             69.687             12.850              8.239
 Vibration     1          0.653              1.792              1.862
 Vibration     2          0.676              1.721              1.571
 Vibration     3          0.715              1.610              1.247
 Vibration     4          0.733              1.560              1.133
 Vibration     5          0.778              1.439              0.911
 Vibration     6          0.838              1.290              0.705

                           ! Non-Optimized Parameters !
 Normal termination of Gaussian 16 at Tue Mar  1 21:07:19 2022.

 ------------------------------------------
 #p b3lyp/6-31G(d) geom=allcheck guess=read
 ------------------------------------------

 Structure from the checkpoint file:  "225.n.pdb.xyz.mst.wat.chk"
 -------------
 225.n.pdb.xyz
 -------------
 Charge =  0 Multiplicity = 1

 SCF Done:  E(RB3LYP) =  -194.353247379     A.U. after   10 cycles

 1\1\GINC-PIRINEUS17\SP\RB3LYP\6-31G(d)\C3H8O1\UBATOR01\01-Mar-2022\0\\
 #p b3lyp/6-31G(d) geom=allcheck guess=read\\225.n.pdb.xyz\\0,1\C,0,-1.
 2620861178,-0.2143785847,0.1240448938\C,0,0.1135253987,0.2063683158,-0
 .3879468285\C,0,1.2457521105,-0.5430421944,0.3010754574\O,0,0.34411488
 55,1.6021746531,-0.1522388037\H,0,-2.0526596695,0.3576988902,-0.372918
 5041\H,0,-1.4448514496,-1.276531985,-0.0679606536\H,0,-1.3381841467,-0
 .0390195514,1.2025273886\H,0,0.1637605308,0.0064819158,-1.4692612335\H
 ,0,2.2159576482,-0.2100679156,-0.078988906\H,0,1.1581641465,-1.6199599

 Normal termination of Gaussian 16 at Tue Mar  1 21:07:28 2022.
 Gaussian 16:  ES64L-G16RevA.03 25-Dec-2016

 ----------------------------------------------------------------------
 #p b3lyp/6-31G(d) scrf=(iefpcm,read,solvent=water) geom=allcheck guess
 =read
 ----------------------------------------------------------------------

 Structure from the checkpoint file:  "225.n.pdb.xyz.mst.wat.chk"
 -------------
 225.n.pdb.xyz
 -------------
 Charge =  0 Multiplicity = 1

                         Standard orientation:
 ---------------------------------------------------------------------
 Center     Atomic      Atomic             Coordinates (Angstroms)
 Number     Number       Type             X           Y           Z
 ---------------------------------------------------------------------
      1          6           0        1.179890   -0.805842   -0.103035
      2          6           0       -0.001396    0.041888    0.363213
      3          6           0       -1.340117   -0.526692   -0.087174
      4          8           0        0.078484    1.370972   -0.169852
      5          1           0        2.127632   -0.359387    0.215893
      6          1           0        1.127416   -1.816429    0.314577
      7          1           0        1.187383   -0.882283   -1.195632
      8          1           0        0.010673    0.089252    1.462908
      9          1           0       -2.162915    0.109394    0.251968
     10          1           0       -1.490086   -1.531603    0.318623
     11          1           0       -1.379342   -0.585923   -1.179287
     12          1           0        0.921107    1.753079    0.131748
 ---------------------------------------------------------------------

 SCF Done:  E(RB3LYP) =  -194.361301995     A.U. after   10 cycles

 The electronic state is 1-A.
 Alpha  occ. eigenvalues --  -19.13505 -10.23031 -10.16983 -10.16982  -1.00610
 Alpha  occ. eigenvalues --   -0.76451  -0.68521  -0.57880  -0.50358  -0.44591
 Alpha  occ. eigenvalues --   -0.42735  -0.38541  -0.37763  -0.36140  -0.35100
 Alpha  occ. eigenvalues --   -0.31821  -0.26271
 Alpha virt. eigenvalues --    0.08538   0.12636   0.14916   0.15247   0.16473
 Alpha virt. eigenvalues --    0.17864   0.19677   0.19904   0.23305   0.24302
 Alpha virt. eigenvalues --    0.26726   0.51151   0.53272   0.56864   0.57945

 Mulliken charges:
               1
     1  C   -0.462860
     2  C    0.148716
     3  C   -0.451429
     4  O   -0.679412
     5  H    0.148491
     6  H    0.148608
     7  H    0.147621
     8  H    0.121417
     9  H    0.150040
    10  H    0.151588
    11  H    0.147549
    12  H    0.429671
 Sum of Mulliken charges =  -0.00000

 Dipole moment (field-independent basis, Debye):
    X=              1.5017    Y=             -0.7800    Z=              1.1523  Tot=              2.0473
 Quadrupole moment (field-independent basis, Debye-Ang):
   XX=            -24.6793   YY=            -26.4526   ZZ=            -26.4589
   XY=              3.1003   XZ=              0.4109   YZ=              1.2882

 1\1\GINC-PIRINEUS17\SP\RB3LYP\6-31G(d)\C3H8O1\UBATOR01\01-Mar-2022\0\\
 #p b3lyp/6-31G(d) scrf=(iefpcm,read,solvent=water) geom=allcheck guess
 =read\\225.n.pdb.xyz\\0,1\C,0,-1.2620861178,-0.2143785847,0.1240448938
 \C,0,0.1135253987,0.2063683158,-0.3879468285\C,0,1.2457521105,-0.54304
 21944,0.3010754574\O,0,0.3441148855,1.6021746531,-0.1522388037\H,0,-2.
 0526596695,0.3576988902,-0.3729185041\H,0,-1.4448514496,-1.276531985,-
 0.0679606536\H,0,-1.3381841467,-0.0390195514,1.2025273886\H,0,0.163760
 5308,0.0064819158,-1.4692612335\H,0,2.2159576482,-0.2100679156,-0.0789

 Normal termination of Gaussian 16 at Tue Mar  1 21:07:40 2022.
