 Gaussian 16, Revision A.03,

 ----------------------------------------------------------------------
 #p b3lyp/6-31G(d) opt=(MaxStep=10,MaxCycles=1000) freq scf=(MaxCycle=2
 000,NoVarAcc,NoIncFock) scrf=(iefpcm,read,solvent=water)
 ----------------------------------------------------------------------

 -------------
 226.n.pdb.xyz
 -------------
 Symbolic Z-matrix:
 Charge =  0 Multiplicity = 1

 SCF Done:  E(RB3LYP) =  -193.161115219     A.U. after   10 cycles
 SCF Done:  E(RB3LYP) =  -193.161832156     A.U. after    8 cycles
 SCF Done:  E(RB3LYP) =  -193.161861947     A.U. after    8 cycles
 SCF Done:  E(RB3LYP) =  -193.161847385     A.U. after    8 cycles
 SCF Done:  E(RB3LYP) =  -193.161858397     A.U. after    8 cycles
 SCF Done:  E(RB3LYP) =  -193.161865184     A.U. after    8 cycles
 SCF Done:  E(RB3LYP) =  -193.161866128     A.U. after    7 cycles
 Optimization completed.
    -- Stationary point found.
 Normal termination of Gaussian 16 at Wed Mar  2 00:04:04 2022.

 --------------------------------------------------------------------
 #P Geom=AllCheck Guess=TCheck SCRF=Check GenChk RB3LYP/6-31G(d) Freq
 --------------------------------------------------------------------

 Structure from the checkpoint file:  "226.n.pdb.xyz.mst.wat.chk"
 -------------
 226.n.pdb.xyz
 -------------
 Charge =  0 Multiplicity = 1

 SCF Done:  E(RB3LYP) =  -193.161866128     A.U. after    1 cycles

  Exact polarizability:  43.259   0.002  50.033   0.001   0.000  33.537
 Approx polarizability:  42.231   0.003  60.369   0.001   0.000  36.748

                      1                      2                      3
                      A                      A                      A
 Frequencies --      3.1205               156.9249               395.5183
 Red. masses --      1.0177                 1.1315                 2.2516
 Frc consts  --      0.0000                 0.0164                 0.2075
 IR Inten    --      0.0014                 0.2698                 1.9248

                      4                      5                      6
                      A                      A                      A
 Frequencies --    512.4787               531.5739               801.0558
 Red. masses --      2.0219                 3.5726                 3.6095
 Frc consts  --      0.3129                 0.5948                 1.3647
 IR Inten    --      0.8244                25.0831                 1.3480

                      7                      8                      9
                      A                      A                      A
 Frequencies --    897.9128               907.1122              1100.8948
 Red. masses --      1.2119                 1.5574                 1.5420
 Frc consts  --      0.5757                 0.7550                 1.1011
 IR Inten    --      0.0007                 7.3638                 0.0054

                     10                     11                     12
                      A                      A                      A
 Frequencies --   1134.2732              1251.1216              1413.5006
 Red. masses --      1.9301                 2.7033                 1.2313
 Frc consts  --      1.4631                 2.4931                 1.4494
 IR Inten    --     11.8939               108.4106                39.0173

                     13                     14                     15
                      A                      A                      A
 Frequencies --   1413.7904              1479.9417              1481.0379
 Red. masses --      1.4151                 1.0452                 1.0501
 Frc consts  --      1.6665                 1.3487                 1.3570
 IR Inten    --     81.9929                 1.1049                 0.0454

                     16                     17                     18
                      A                      A                      A
 Frequencies --   1486.7423              1509.6184              1786.0407
 Red. masses --      1.0757                 1.0429                 9.2516
 Frc consts  --      1.4009                 1.4004                17.3880
 IR Inten    --     47.6272                23.3215               301.1969

                     19                     20                     21
                      A                      A                      A
 Frequencies --   3066.0953              3073.2620              3126.3714
 Red. masses --      1.0370                 1.0371                 1.0998
 Frc consts  --      5.7441                 5.7711                 6.3333
 IR Inten    --      2.5670                 3.5476                 0.0012

                     22                     23                     24
                      A                      A                      A
 Frequencies --   3133.5598              3176.3368              3178.0142
 Red. masses --      1.0999                 1.1036                 1.1036
 Frc consts  --      6.3634                 6.5600                 6.5669
 IR Inten    --     21.6947                25.3747                21.0405

 - Thermochemistry -
 -------------------
 Temperature   298.150 Kelvin.  Pressure   1.00000 Atm.
 Atom     1 has atomic number  6 and mass  12.00000

 Molecular mass:    58.04186 amu.
 Principal axes and moments of inertia in atomic units:
                           1         2         3
     Eigenvalues --   178.67688 211.94626 368.36697
           X            1.00000  -0.00009   0.00000
           Y            0.00009   1.00000   0.00000
           Z           -0.00000  -0.00000   1.00000
 This molecule is an asymmetric top.
 Rotational symmetry number  1.
 Rotational temperatures (Kelvin)      0.48475     0.40866     0.23513
 Rotational constants (GHZ):          10.10059     8.51509     4.89930
 Zero-point vibrational energy     221406.6 (Joules/Mol)
                                   52.91746 (Kcal/Mol)
 Warning -- explicit consideration of   5 degrees of freedom as
           vibrations may cause significant error
 Vibrational temperatures:      4.49   225.78   569.06   737.34   764.82
          (Kelvin)           1152.54  1291.90  1305.13  1583.94  1631.97
                             1800.08  2033.71  2034.13  2129.31  2130.88
                             2139.09  2172.00  2569.71  4411.43  4421.74
                             4498.15  4508.49  4570.04  4572.45

 Zero-point correction=                           0.084329 (Hartree/Particle)
 Thermal correction to Energy=                    0.089742
 Thermal correction to Enthalpy=                  0.090687
 Thermal correction to Gibbs Free Energy=         0.053594
 Sum of electronic and zero-point Energies=           -193.077537
 Sum of electronic and thermal Energies=              -193.072124
 Sum of electronic and thermal Enthalpies=            -193.071180
 Sum of electronic and thermal Free Energies=         -193.108272

                     E (Thermal)             CV                S
                      KCal/Mol        Cal/Mol-Kelvin    Cal/Mol-Kelvin
 Total                   56.314             16.614             78.067
 Electronic               0.000              0.000              0.000
 Translational            0.889              2.981             38.096
 Rotational               0.889              2.981             24.149
 Vibrational             54.537             10.652             15.822
 Vibration     1          0.592              1.987             10.325
 Vibration     2          0.621              1.895              2.587
 Vibration     3          0.762              1.480              0.979
 Vibration     4          0.868              1.222              0.628
 Vibration     5          0.887              1.180              0.584

                           ! Non-Optimized Parameters !
 Normal termination of Gaussian 16 at Wed Mar  2 00:04:54 2022.

 ------------------------------------------
 #p b3lyp/6-31G(d) geom=allcheck guess=read
 ------------------------------------------

 Structure from the checkpoint file:  "226.n.pdb.xyz.mst.wat.chk"
 -------------
 226.n.pdb.xyz
 -------------
 Charge =  0 Multiplicity = 1

 SCF Done:  E(RB3LYP) =  -193.155535603     A.U. after   10 cycles

 1\1\GINC-PIRINEUS19\SP\RB3LYP\6-31G(d)\C3H6O1\UBATOR01\02-Mar-2022\0\\
 #p b3lyp/6-31G(d) geom=allcheck guess=read\\226.n.pdb.xyz\\0,1\C,0,-1.
 2904443603,-0.0046174713,-0.1332110782\C,0,0.0106334437,0.0225013624,0
 .6378683731\C,0,1.2852312029,-0.0059855206,-0.1759314746\O,0,0.0309279
 437,0.0653003874,1.8596479609\H,0,-2.1374391909,0.0193980741,0.5532038
 802\H,0,-1.3435123076,0.8512109052,-0.8144555137\H,0,-1.3433223006,-0.
 9061196811,-0.7525820035\H,0,1.3163119823,0.8495311154,-0.8588339319\H
 ,0,2.154854949,0.0175347553,0.4818285862\H,0,1.3167586379,-0.907753926

 Normal termination of Gaussian 16 at Wed Mar  2 00:05:01 2022.
 Gaussian 16:  ES64L-G16RevA.03 25-Dec-2016

 ----------------------------------------------------------------------
 #p b3lyp/6-31G(d) scrf=(iefpcm,read,solvent=water) geom=allcheck guess
 =read
 ----------------------------------------------------------------------

 Structure from the checkpoint file:  "226.n.pdb.xyz.mst.wat.chk"
 -------------
 226.n.pdb.xyz
 -------------
 Charge =  0 Multiplicity = 1

                         Standard orientation:
 ---------------------------------------------------------------------
 Center     Atomic      Atomic             Coordinates (Angstroms)
 Number     Number       Type             X           Y           Z
 ---------------------------------------------------------------------
      1          6           0       -1.288106   -0.613126    0.000003
      2          6           0        0.000051    0.179812   -0.000029
      3          6           0        1.287924   -0.613324   -0.000007
      4          8           0        0.000152    1.402510   -0.000002
      5          1           0       -2.146329    0.059626    0.000008
      6          1           0       -1.330377   -1.264761   -0.879166
      7          1           0       -1.330273   -1.264482    0.879253
      8          1           0        1.329818   -1.265236   -0.878919
      9          1           0        2.146559    0.059129   -0.000432
     10          1           0        1.330171   -1.264526    0.879470
 ---------------------------------------------------------------------

 SCF Done:  E(RB3LYP) =  -193.161579123     A.U. after   10 cycles

 The electronic state is 1-A.
 Alpha  occ. eigenvalues --  -19.14075 -10.28111 -10.18294 -10.18288  -1.03854
 Alpha  occ. eigenvalues --   -0.76461  -0.70474  -0.53014  -0.45520  -0.45357
 Alpha  occ. eigenvalues --   -0.45025  -0.39525  -0.39229  -0.37449  -0.34884
 Alpha  occ. eigenvalues --   -0.25055
 Alpha virt. eigenvalues --   -0.01359   0.10030   0.14282   0.16007   0.17332
 Alpha virt. eigenvalues --    0.18383   0.18778   0.20716   0.29609   0.31861
 Alpha virt. eigenvalues --    0.50207   0.54223   0.57091   0.57947   0.58249

 Mulliken charges:
               1
     1  C   -0.528602
     2  C    0.467849
     3  C   -0.528636
     4  O   -0.500086
     5  H    0.171671
     6  H    0.186522
     7  H    0.186586
     8  H    0.186479
     9  H    0.171716
    10  H    0.186499
 Sum of Mulliken charges =  -0.00000

 Dipole moment (field-independent basis, Debye):
    X=             -0.0002    Y=             -3.7151    Z=              0.0006  Tot=              3.7151
 Quadrupole moment (field-independent basis, Debye-Ang):
   XX=            -23.2105   YY=            -28.4690   ZZ=            -23.6141
   XY=             -0.0001   XZ=             -0.0002   YZ=             -0.0002

 1\1\GINC-PIRINEUS19\SP\RB3LYP\6-31G(d)\C3H6O1\UBATOR01\02-Mar-2022\0\\
 #p b3lyp/6-31G(d) scrf=(iefpcm,read,solvent=water) geom=allcheck guess
 =read\\226.n.pdb.xyz\\0,1\C,0,-1.2904443603,-0.0046174713,-0.133211078
 2\C,0,0.0106334437,0.0225013624,0.6378683731\C,0,1.2852312029,-0.00598
 55206,-0.1759314746\O,0,0.0309279437,0.0653003874,1.8596479609\H,0,-2.
 1374391909,0.0193980741,0.5532038802\H,0,-1.3435123076,0.8512109052,-0
 .8144555137\H,0,-1.3433223006,-0.9061196811,-0.7525820035\H,0,1.316311
 9823,0.8495311154,-0.8588339319\H,0,2.154854949,0.0175347553,0.4818285

 Normal termination of Gaussian 16 at Wed Mar  2 00:05:11 2022.
