 Gaussian 16, Revision A.03,

 ----------------------------------------------------------------------
 #p b3lyp/6-31G(d) opt=(MaxStep=10,MaxCycles=1000) freq scf=(MaxCycle=2
 000,NoVarAcc,NoIncFock) scrf=(iefpcm,read,solvent=water)
 ----------------------------------------------------------------------

 -------------
 227.n.pdb.xyz
 -------------
 Symbolic Z-matrix:
 Charge =  0 Multiplicity = 1

 SCF Done:  E(RB3LYP) =  -1203.28630224     A.U. after   12 cycles
 SCF Done:  E(RB3LYP) =  -1203.29102635     A.U. after   10 cycles
 SCF Done:  E(RB3LYP) =  -1203.29084076     A.U. after   11 cycles
 SCF Done:  E(RB3LYP) =  -1203.29338852     A.U. after   10 cycles
 SCF Done:  E(RB3LYP) =  -1203.29360083     A.U. after   11 cycles
 SCF Done:  E(RB3LYP) =  -1203.29406019     A.U. after    9 cycles
 SCF Done:  E(RB3LYP) =  -1203.29419325     A.U. after   10 cycles
 SCF Done:  E(RB3LYP) =  -1203.29421049     A.U. after    9 cycles
 SCF Done:  E(RB3LYP) =  -1203.29423391     A.U. after    9 cycles
 SCF Done:  E(RB3LYP) =  -1203.29423157     A.U. after    8 cycles
 SCF Done:  E(RB3LYP) =  -1203.29424265     A.U. after    7 cycles
 SCF Done:  E(RB3LYP) =  -1203.29424189     A.U. after    7 cycles
 SCF Done:  E(RB3LYP) =  -1203.29424070     A.U. after    7 cycles
 SCF Done:  E(RB3LYP) =  -1203.29424061     A.U. after    7 cycles
 SCF Done:  E(RB3LYP) =  -1203.29423988     A.U. after    7 cycles
 SCF Done:  E(RB3LYP) =  -1203.29423992     A.U. after    7 cycles
 SCF Done:  E(RB3LYP) =  -1203.29423994     A.U. after    7 cycles
 Optimization completed.
    -- Stationary point found.
 Normal termination of Gaussian 16 at Wed Mar  2 04:14:07 2022.

 --------------------------------------------------------------------
 #P Geom=AllCheck Guess=TCheck SCRF=Check GenChk RB3LYP/6-31G(d) Freq
 --------------------------------------------------------------------

 Structure from the checkpoint file:  "227.n.pdb.xyz.mst.wat.chk"
 -------------
 227.n.pdb.xyz
 -------------
 Charge =  0 Multiplicity = 1

 SCF Done:  E(RB3LYP) =  -1203.29423994     A.U. after    1 cycles

  Exact polarizability: 316.930  -2.734 251.513 -14.416   4.207 223.548
 Approx polarizability: 308.090  -4.481 275.727 -17.486   3.638 249.944

                      1                      2                      3
                      A                      A                      A
 Frequencies --     21.5531                27.9926                33.4868
 Red. masses --      4.6453                 3.5914                 4.4860
 Frc consts  --      0.0013                 0.0017                 0.0030
 IR Inten    --      1.8031                 5.1740                 3.8185

                      4                      5                      6
                      A                      A                      A
 Frequencies --     53.6395                59.6448                79.0217
 Red. masses --      4.6125                 4.5906                 3.7924
 Frc consts  --      0.0078                 0.0096                 0.0140
 IR Inten    --      5.4983                 4.8633                 5.9374

                      7                      8                      9
                      A                      A                      A
 Frequencies --     91.5011               104.0863               164.1096
 Red. masses --      4.0045                 4.3834                 3.7416
 Frc consts  --      0.0198                 0.0280                 0.0594
 IR Inten    --      2.2468                 2.3001                 5.6796

                     10                     11                     12
                      A                      A                      A
 Frequencies --    197.5422               213.1597               235.3816
 Red. masses --      2.8303                 3.9497                 2.2224
 Frc consts  --      0.0651                 0.1057                 0.0725
 IR Inten    --      6.3331                 2.7132                 2.0900

                     13                     14                     15
                      A                      A                      A
 Frequencies --    238.2435               284.9663               311.2996
 Red. masses --      3.3820                 2.2586                 3.5059
 Frc consts  --      0.1131                 0.1081                 0.2002
 IR Inten    --      3.5536                 4.7149                 9.0830

                     16                     17                     18
                      A                      A                      A
 Frequencies --    339.9090               351.5177               356.3756
 Red. masses --      2.1549                 3.2156                 2.6724
 Frc consts  --      0.1467                 0.2341                 0.2000
 IR Inten    --      3.5466                 7.7156                 1.3603

                     19                     20                     21
                      A                      A                      A
 Frequencies --    378.9327               429.0743               450.2753
 Red. masses --      4.8434                 3.0707                 3.5342
 Frc consts  --      0.4098                 0.3331                 0.4222
 IR Inten    --     17.2551                21.8994                 2.5361

                     22                     23                     24
                      A                      A                      A
 Frequencies --    457.0262               469.1536               484.9630
 Red. masses --      2.4715                 2.5137                 2.0018
 Frc consts  --      0.3041                 0.3260                 0.2774
 IR Inten    --     14.7223                 0.8652                37.0808

                     25                     26                     27
                      A                      A                      A
 Frequencies --    512.3001               535.1978               569.2367
 Red. masses --      1.3876                 3.6863                 1.6405
 Frc consts  --      0.2146                 0.6221                 0.3132
 IR Inten    --    100.2803                 1.8333               170.3062

                     28                     29                     30
                      A                      A                      A
 Frequencies --    582.3904               602.9818               639.2045
 Red. masses --      2.3024                 3.4435                 6.5567
 Frc consts  --      0.4601                 0.7377                 1.5784
 IR Inten    --     16.1719                11.8073                29.3803

                     31                     32                     33
                      A                      A                      A
 Frequencies --    672.6453               708.5207               725.1911
 Red. masses --      1.7692                 3.0345                 2.7362
 Frc consts  --      0.4716                 0.8975                 0.8478
 IR Inten    --     18.9355                 6.1486                14.7732

                     34                     35                     36
                      A                      A                      A
 Frequencies --    734.0244               767.5189               804.1930
 Red. masses --      1.9775                 2.2918                 1.4380
 Frc consts  --      0.6277                 0.7954                 0.5479
 IR Inten    --      0.7999                11.2607                 0.2254

                     37                     38                     39
                      A                      A                      A
 Frequencies --    808.5238               829.1136               836.4760
 Red. masses --      2.3877                 1.3467                 2.4139
 Frc consts  --      0.9196                 0.5454                 0.9951
 IR Inten    --      2.6090                23.2480                14.4974

                     40                     41                     42
                      A                      A                      A
 Frequencies --    857.6417               887.8966               899.9694
 Red. masses --      2.3418                 2.3368                 1.8907
 Frc consts  --      1.0149                 1.0854                 0.9023
 IR Inten    --      2.3577                22.9706                 6.6199

                     43                     44                     45
                      A                      A                      A
 Frequencies --    908.2194               919.7516               939.7098
 Red. masses --      1.8108                 1.9695                 1.5357
 Frc consts  --      0.8801                 0.9816                 0.7990
 IR Inten    --     12.5419                 5.2303                 0.9679

                     46                     47                     48
                      A                      A                      A
 Frequencies --    946.6856               949.9597               965.8247
 Red. masses --      2.2221                 4.5099                 2.6131
 Frc consts  --      1.1733                 2.3979                 1.4362
 IR Inten    --     30.1612                 4.7139                25.3498

                     49                     50                     51
                      A                      A                      A
 Frequencies --    999.1320              1003.9957              1016.5289
 Red. masses --      3.0760                 2.3396                 1.5710
 Frc consts  --      1.8092                 1.3895                 0.9564
 IR Inten    --     15.6241                19.4091                26.1172

                     52                     53                     54
                      A                      A                      A
 Frequencies --   1043.1450              1046.9237              1070.0928
 Red. masses --      1.7498                 2.0033                 1.3926
 Frc consts  --      1.1218                 1.2937                 0.9396
 IR Inten    --      2.6462                10.7370                 3.7343

                     55                     56                     57
                      A                      A                      A
 Frequencies --   1095.9108              1101.4678              1110.7290
 Red. masses --      1.1100                 1.6144                 3.2075
 Frc consts  --      0.7855                 1.1540                 2.3315
 IR Inten    --      0.2175                49.4617                 5.4666

                     58                     59                     60
                      A                      A                      A
 Frequencies --   1112.7533              1126.1169              1130.3198
 Red. masses --      2.8805                 2.7539                 2.7987
 Frc consts  --      2.1015                 2.0577                 2.1067
 IR Inten    --      2.7036                29.8595                84.0479

                     61                     62                     63
                      A                      A                      A
 Frequencies --   1152.2798              1172.7300              1192.2432
 Red. masses --      1.7000                 1.7787                 1.9120
 Frc consts  --      1.3299                 1.4413                 1.6013
 IR Inten    --     42.3519                27.7484                39.7414

                     64                     65                     66
                      A                      A                      A
 Frequencies --   1215.2131              1217.4194              1234.4662
 Red. masses --      1.4728                 1.4940                 1.7473
 Frc consts  --      1.2814                 1.3046                 1.5688
 IR Inten    --      9.3573                 0.8156                28.9644

                     67                     68                     69
                      A                      A                      A
 Frequencies --   1256.2287              1263.6914              1284.1190
 Red. masses --      1.5315                 1.5210                 1.4175
 Frc consts  --      1.4240                 1.4311                 1.3772
 IR Inten    --    143.0582                23.1850                 9.9572

                     70                     71                     72
                      A                      A                      A
 Frequencies --   1286.2707              1293.0883              1301.2359
 Red. masses --      1.4159                 1.2866                 1.3552
 Frc consts  --      1.3802                 1.2675                 1.3519
 IR Inten    --     30.0355                 1.9935                 5.7725

                     73                     74                     75
                      A                      A                      A
 Frequencies --   1311.1436              1325.7449              1340.7684
 Red. masses --      2.2419                 2.4217                 1.2712
 Frc consts  --      2.2707                 2.5078                 1.3464
 IR Inten    --     14.7262                 7.7611                 0.7900

                     76                     77                     78
                      A                      A                      A
 Frequencies --   1343.5712              1355.8515              1364.4402
 Red. masses --      1.2891                 1.2785                 1.4234
 Frc consts  --      1.3711                 1.3847                 1.5613
 IR Inten    --      7.4599                13.0246                 9.5423

                     79                     80                     81
                      A                      A                      A
 Frequencies --   1373.3743              1382.1305              1385.4945
 Red. masses --      1.7702                 1.4186                 2.1921
 Frc consts  --      1.9672                 1.5967                 2.4793
 IR Inten    --     64.6847                16.4352               294.3580

                     82                     83                     84
                      A                      A                      A
 Frequencies --   1394.8101              1396.0523              1396.8037
 Red. masses --      1.4798                 1.3510                 1.4367
 Frc consts  --      1.6962                 1.5514                 1.6516
 IR Inten    --     63.7250                53.2088                56.7780

                     85                     86                     87
                      A                      A                      A
 Frequencies --   1404.3504              1407.8449              1413.7729
 Red. masses --      1.6314                 1.7384                 1.4548
 Frc consts  --      1.8956                 2.0301                 1.7132
 IR Inten    --     66.0519                13.4455                17.1522

                     88                     89                     90
                      A                      A                      A
 Frequencies --   1424.4905              1474.3271              1479.0089
 Red. masses --      1.5638                 2.1533                 2.7358
 Frc consts  --      1.8696                 2.7577                 3.5260
 IR Inten    --     82.9208               324.6625                34.8789

                     91                     92                     93
                      A                      A                      A
 Frequencies --   1499.8950              1502.4637              1507.4342
 Red. masses --      1.0953                 1.0913                 1.1349
 Frc consts  --      1.4518                 1.4515                 1.5194
 IR Inten    --      7.2615                 1.4913                 6.2648

                     94                     95                     96
                      A                      A                      A
 Frequencies --   1510.6853              1513.4303              1516.9813
 Red. masses --      1.0995                 1.0900                 1.0899
 Frc consts  --      1.4785                 1.4710                 1.4778
 IR Inten    --      0.7264                 8.3764                 8.8487

                     97                     98                     99
                      A                      A                      A
 Frequencies --   1523.2531              1530.5596              1535.4041
 Red. masses --      1.1201                 1.1047                 1.2177
 Frc consts  --      1.5312                 1.5247                 1.6914
 IR Inten    --     36.5610                15.1700               158.7073

                    100                    101                    102
                      A                      A                      A
 Frequencies --   1536.6858              1607.3858              1636.1139
 Red. masses --      2.7196                 5.0675                 1.3801
 Frc consts  --      3.7838                 7.7141                 2.1766
 IR Inten    --     29.4608                14.8942               422.5771

                    103                    104                    105
                      A                      A                      A
 Frequencies --   3031.7983              3034.4086              3036.7216
 Red. masses --      1.0655                 1.0668                 1.0670
 Frc consts  --      5.7702                 5.7871                 5.7975
 IR Inten    --     67.4759                34.8351                34.0212

                    106                    107                    108
                      A                      A                      A
 Frequencies --   3039.6213              3041.7329              3043.5443
 Red. masses --      1.0692                 1.0628                 1.0613
 Frc consts  --      5.8205                 5.7936                 5.7925
 IR Inten    --     42.6201                15.6667               112.9996

                    109                    110                    111
                      A                      A                      A
 Frequencies --   3054.5654              3062.1483              3074.2199
 Red. masses --      1.0819                 1.0742                 1.0609
 Frc consts  --      5.9473                 5.9348                 5.9072
 IR Inten    --     54.9096                24.9679                54.4982

                    112                    113                    114
                      A                      A                      A
 Frequencies --   3080.3562              3086.4398              3087.7714
 Red. masses --      1.0666                 1.0957                 1.0971
 Frc consts  --      5.9630                 6.1497                 6.1627
 IR Inten    --     41.8773               122.1413               127.6627

                    115                    116                    117
                      A                      A                      A
 Frequencies --   3089.7715              3090.5428              3091.8399
 Red. masses --      1.0937                 1.0936                 1.1031
 Frc consts  --      6.1517                 6.1544                 6.2128
 IR Inten    --     43.7506                 7.6409               135.9916

                    118                    119                    120
                      A                      A                      A
 Frequencies --   3093.9219              3120.1530              3121.9825
 Red. masses --      1.0991                 1.1045                 1.0864
 Frc consts  --      6.1988                 6.3354                 6.2385
 IR Inten    --     60.6071                44.6738                37.3938

                    121                    122                    123
                      A                      A                      A
 Frequencies --   3124.1252              3184.7749              3288.4789
 Red. masses --      1.1044                 1.0930                 1.0967
 Frc consts  --      6.3509                 6.5319                 6.9874
 IR Inten    --     85.2433                 6.0828                 5.3274

                    124                    125                    126
                      A                      A                      A
 Frequencies --   3306.9112              3586.0396              3632.4723
 Red. masses --      1.0988                 1.0763                 1.0833
 Frc consts  --      7.0797                 8.1549                 8.4217
 IR Inten    --      0.7159                88.9991               210.1041

 - Thermochemistry -
 -------------------
 Temperature   298.150 Kelvin.  Pressure   1.00000 Atm.
 Atom     1 has atomic number 16 and mass  31.97207

 Molecular mass:   292.17217 amu.
 Principal axes and moments of inertia in atomic units:
                           1         2         3
     Eigenvalues --  2159.40542********************
           X            0.99997   0.00728   0.00127
           Y           -0.00724   0.99954  -0.02938
           Z           -0.00149   0.02937   0.99957
 This molecule is an asymmetric top.
 Rotational symmetry number  1.
 Warning -- assumption of classical behavior for rotation
           may cause significant error
 Rotational temperatures (Kelvin)      0.04011     0.00530     0.00500
 Rotational constants (GHZ):           0.83576     0.11042     0.10417
 Zero-point vibrational energy    1022572.3 (Joules/Mol)
                                  244.40066 (Kcal/Mol)
 Warning -- explicit consideration of  29 degrees of freedom as
           vibrations may cause significant error
 Vibrational temperatures:     31.01    40.28    48.18    77.18    85.82
          (Kelvin)            113.69   131.65   149.76   236.12   284.22
                              306.69   338.66   342.78   410.00   447.89
                              489.05   505.76   512.74   545.20   617.34
                              647.85   657.56   675.01   697.75   737.09
                              770.03   819.00   837.93   867.56   919.67
                              967.79  1019.40  1043.39  1056.10  1104.29
                             1157.05  1163.29  1192.91  1203.50  1233.96
                             1277.49  1294.86  1306.73  1323.32  1352.03
                             1362.07  1366.78  1389.61  1437.53  1444.53
                             1462.56  1500.85  1506.29  1539.62  1576.77
                             1584.77  1598.09  1601.00  1620.23  1626.28
                             1657.87  1687.30  1715.37  1748.42  1751.59
                             1776.12  1807.43  1818.17  1847.56  1850.66
                             1860.47  1872.19  1886.44  1907.45  1929.07
                             1933.10  1950.77  1963.13  1975.98  1988.58
                             1993.42  2006.82  2008.61  2009.69  2020.55
                             2025.57  2034.10  2049.52  2121.23  2127.96
                             2158.01  2161.71  2168.86  2173.54  2177.49
                             2182.60  2191.62  2202.13  2209.10  2210.95
                             2312.67  2354.00  4362.08  4365.84  4369.17
                             4373.34  4376.38  4378.98  4394.84  4405.75
                             4423.12  4431.95  4440.70  4442.61  4445.49
                             4446.60  4448.47  4451.46  4489.20  4491.84
                             4494.92  4582.18  4731.39  4757.91  5159.51
                             5226.32

 Zero-point correction=                           0.389477 (Hartree/Particle)
 Thermal correction to Energy=                    0.408178
 Thermal correction to Enthalpy=                  0.409122
 Thermal correction to Gibbs Free Energy=         0.339963
 Sum of electronic and zero-point Energies=          -1202.904763
 Sum of electronic and thermal Energies=             -1202.886062
 Sum of electronic and thermal Enthalpies=           -1202.885118
 Sum of electronic and thermal Free Energies=        -1202.954276

                     E (Thermal)             CV                S
                      KCal/Mol        Cal/Mol-Kelvin    Cal/Mol-Kelvin
 Total                  256.136             73.101            145.557
 Electronic               0.000              0.000              0.000
 Translational            0.889              2.981             42.914
 Rotational               0.889              2.981             34.768
 Vibrational            254.358             67.139             67.875
 Vibration     1          0.593              1.985              6.486
 Vibration     2          0.593              1.984              5.967
 Vibration     3          0.594              1.983              5.611
 Vibration     4          0.596              1.976              4.678
 Vibration     5          0.597              1.974              4.469
 Vibration     6          0.600              1.963              3.915
 Vibration     7          0.602              1.955              3.628
 Vibration     8          0.605              1.946              3.376
 Vibration     9          0.623              1.887              2.502
 Vibration    10          0.637              1.843              2.156
 Vibration    11          0.644              1.821              2.016
 Vibration    12          0.655              1.787              1.838
 Vibration    13          0.656              1.782              1.816
 Vibration    14          0.683              1.702              1.504
 Vibration    15          0.700              1.652              1.355
 Vibration    16          0.720              1.596              1.213
 Vibration    17          0.728              1.572              1.159
 Vibration    18          0.732              1.562              1.138
 Vibration    19          0.749              1.515              1.043
 Vibration    20          0.790              1.407              0.862
 Vibration    21          0.809              1.360              0.795
 Vibration    22          0.815              1.345              0.775
 Vibration    23          0.826              1.318              0.740
 Vibration    24          0.841              1.283              0.697
 Vibration    25          0.867              1.223              0.628
 Vibration    26          0.890              1.172              0.576
 Vibration    27          0.925              1.098              0.506
 Vibration    28          0.939              1.069              0.481
 Vibration    29          0.961              1.025              0.445

                           ! Non-Optimized Parameters !
 Normal termination of Gaussian 16 at Wed Mar  2 05:07:11 2022.

 ------------------------------------------
 #p b3lyp/6-31G(d) geom=allcheck guess=read
 ------------------------------------------

 Structure from the checkpoint file:  "227.n.pdb.xyz.mst.wat.chk"
 -------------
 227.n.pdb.xyz
 -------------
 Charge =  0 Multiplicity = 1

 SCF Done:  E(RB3LYP) =  -1203.26470616     A.U. after   12 cycles
 Normal termination of Gaussian 16 at Wed Mar  2 05:10:50 2022.
 Gaussian 16:  ES64L-G16RevA.03 25-Dec-2016

 ----------------------------------------------------------------------
 #p b3lyp/6-31G(d) scrf=(iefpcm,read,solvent=water) geom=allcheck guess
 =read
 ----------------------------------------------------------------------

 Structure from the checkpoint file:  "227.n.pdb.xyz.mst.wat.chk"
 -------------
 227.n.pdb.xyz
 -------------
 Charge =  0 Multiplicity = 1

                         Standard orientation:
 ---------------------------------------------------------------------
 Center     Atomic      Atomic             Coordinates (Angstroms)
 Number     Number       Type             X           Y           Z
 ---------------------------------------------------------------------
      1         16           0       -1.477965    2.239620    0.989581
      2          6           0       -1.021679    0.890757    0.014252
      3          7           0       -1.898952   -0.093472   -0.281382
      4          6           0       -3.295130   -0.180801    0.147324
      5          6           0       -4.248809    0.324513   -0.947570
      6          6           0       -5.716381    0.188688   -0.517883
      7          6           0       -6.052657   -1.251601   -0.108674
      8          6           0       -5.095202   -1.756487    0.978519
      9          6           0       -3.628253   -1.625122    0.547840
     10          7           0        0.232287    0.738123   -0.477420
     11          6           0        1.270976    1.766966   -0.377184
     12          6           0        2.466678    1.272548    0.447211
     13          6           0        2.806312   -0.215308    0.144810
     14          6           0        2.183151   -0.610827   -1.207775
     15          6           0        0.654070   -0.499657   -1.158519
     16          6           0        4.282870   -0.486009    0.194431
     17          6           0        4.959367   -1.392767    0.976788
     18          7           0        6.287920   -1.265804    0.636582
     19          6           0        6.369069   -0.307133   -0.320113
     20          7           0        5.180462    0.190506   -0.616540
     21          1           0       -1.642187   -0.763491   -0.996891
     22          1           0       -3.386288    0.465881    1.022167
     23          1           0       -4.010048    1.366827   -1.183998
     24          1           0       -4.077377   -0.260051   -1.861482
     25          1           0       -6.372478    0.518972   -1.330880
     26          1           0       -5.907455    0.859838    0.330291
     27          1           0       -7.088923   -1.314196    0.241970
     28          1           0       -5.976673   -1.904811   -0.988684
     29          1           0       -5.314172   -2.800828    1.226260
     30          1           0       -5.253692   -1.177366    1.898037
     31          1           0       -3.440407   -2.290771   -0.306280
     32          1           0       -2.959726   -1.944631    1.354441
     33          1           0        0.823674    2.655626    0.060247
     34          1           0        1.592189    2.012834   -1.395292
     35          1           0        2.262077    1.393780    1.515292
     36          1           0        3.327304    1.903150    0.206459
     37          1           0        2.335042   -0.841515    0.910957
     38          1           0        2.591058    0.023300   -2.000724
     39          1           0        2.438216   -1.642878   -1.464072
     40          1           0        0.251716   -1.348753   -0.596858
     41          1           0        0.241482   -0.542710   -2.175041
     42          1           0        4.625915   -2.094945    1.724021
     43          1           0        7.060842   -1.788137    1.029781
     44          1           0        7.309043   -0.011081   -0.762428
 ---------------------------------------------------------------------

 SCF Done:  E(RB3LYP) =  -1203.29151616     A.U. after   11 cycles

 The electronic state is 1-A.
 Alpha  occ. eigenvalues --  -88.81755 -14.38228 -14.37402 -14.36705 -14.31309
 Alpha  occ. eigenvalues --  -10.29944 -10.23614 -10.22676 -10.21900 -10.21361
 Alpha  occ. eigenvalues --  -10.20672 -10.19916 -10.19399 -10.18801 -10.18047
 Alpha  occ. eigenvalues --  -10.17983 -10.17730 -10.17730 -10.17665 -10.17501
 Alpha  occ. eigenvalues --   -7.87971  -5.84569  -5.83846  -5.83627  -1.00753
 Alpha  occ. eigenvalues --   -0.99411  -0.92388  -0.86632  -0.82744  -0.80778
 Alpha  occ. eigenvalues --   -0.76616  -0.75458  -0.73928  -0.73090  -0.71126
 Alpha  occ. eigenvalues --   -0.67153  -0.63870  -0.61642  -0.60934  -0.60356
 Alpha  occ. eigenvalues --   -0.58836  -0.57296  -0.56518  -0.55054  -0.54239
 Alpha  occ. eigenvalues --   -0.51812  -0.49750  -0.48174  -0.46881  -0.45232
 Alpha  occ. eigenvalues --   -0.44225  -0.43878  -0.43730  -0.43151  -0.42839
 Alpha  occ. eigenvalues --   -0.42574  -0.41373  -0.40888  -0.39452  -0.39345
 Alpha  occ. eigenvalues --   -0.38215  -0.37622  -0.37287  -0.36285  -0.36174
 Alpha  occ. eigenvalues --   -0.34542  -0.34186  -0.33433  -0.32793  -0.32417
 Alpha  occ. eigenvalues --   -0.31932  -0.30924  -0.30152  -0.27535  -0.27436
 Alpha  occ. eigenvalues --   -0.23884  -0.22197  -0.21460  -0.20815
 Alpha virt. eigenvalues --    0.00811   0.03386   0.06219   0.07703   0.08816
 Alpha virt. eigenvalues --    0.09159   0.10273   0.11069   0.11281   0.11870
 Alpha virt. eigenvalues --    0.13469   0.13883   0.14175   0.14837   0.15133

 Mulliken charges:
               1
     1  S   -0.496355
     2  C    0.384259
     3  N   -0.600572
     4  C    0.043725
     5  C   -0.259886
     6  C   -0.267227
     7  C   -0.260693
     8  C   -0.266870
     9  C   -0.271571
    10  N   -0.404375
    11  C   -0.153754
    12  C   -0.277427
    13  C   -0.148657
    14  C   -0.302718
    15  C   -0.159191
    16  C    0.219068
    17  C   -0.036650
    18  N   -0.538889
    19  C    0.197792
    20  N   -0.551996
    21  H    0.375884
    22  H    0.169051
    23  H    0.144108
    24  H    0.134569
    25  H    0.138459
    26  H    0.136843
    27  H    0.135759
    28  H    0.134019
    29  H    0.139310
    30  H    0.137669
    31  H    0.137411
    32  H    0.144485
    33  H    0.186551
    34  H    0.164532
    35  H    0.151117
    36  H    0.154287
    37  H    0.144448
    38  H    0.161400
    39  H    0.160025
    40  H    0.174248
    41  H    0.175132
    42  H    0.173101
    43  H    0.401482
    44  H    0.178099
 Sum of Mulliken charges =  -0.00000

 Dipole moment (field-independent basis, Debye):
    X=              5.0624    Y=             -9.7319    Z=             -2.0031  Tot=             11.1512
 Quadrupole moment (field-independent basis, Debye-Ang):
   XX=            -82.3495   YY=           -134.9672   ZZ=           -128.3569
   XY=             -7.5975   XZ=             18.1358   YZ=             -8.1002

 Normal termination of Gaussian 16 at Wed Mar  2 05:15:02 2022.
