 Gaussian 16, Revision A.03,

 ----------------------------------------------------------------------
 #p b3lyp/6-31G(d) opt=(MaxStep=10,MaxCycles=1000) freq scf=(MaxCycle=2
 000,NoVarAcc,NoIncFock) scrf=(iefpcm,read,solvent=water)
 ----------------------------------------------------------------------

 -------------
 228.n.pdb.xyz
 -------------
 Symbolic Z-matrix:
 Charge =  0 Multiplicity = 1

 SCF Done:  E(RB3LYP) =  -939.605695772     A.U. after   13 cycles
 SCF Done:  E(RB3LYP) =  -939.610706125     A.U. after   10 cycles
 SCF Done:  E(RB3LYP) =  -939.612582725     A.U. after   10 cycles
 SCF Done:  E(RB3LYP) =  -939.614119998     A.U. after   10 cycles
 SCF Done:  E(RB3LYP) =  -939.614324128     A.U. after   10 cycles
 SCF Done:  E(RB3LYP) =  -939.614444882     A.U. after    9 cycles
 SCF Done:  E(RB3LYP) =  -939.614440201     A.U. after    8 cycles
 SCF Done:  E(RB3LYP) =  -939.614469284     A.U. after    8 cycles
 SCF Done:  E(RB3LYP) =  -939.614473033     A.U. after    7 cycles
 SCF Done:  E(RB3LYP) =  -939.614474550     A.U. after    7 cycles
 SCF Done:  E(RB3LYP) =  -939.614474056     A.U. after    7 cycles
 SCF Done:  E(RB3LYP) =  -939.614473933     A.U. after    6 cycles
 SCF Done:  E(RB3LYP) =  -939.614474533     A.U. after    7 cycles
 SCF Done:  E(RB3LYP) =  -939.614473412     A.U. after    7 cycles
 Optimization completed.
    -- Stationary point found.
 Normal termination of Gaussian 16 at Wed Mar  2 04:45:38 2022.

 --------------------------------------------------------------------
 #P Geom=AllCheck Guess=TCheck SCRF=Check GenChk RB3LYP/6-31G(d) Freq
 --------------------------------------------------------------------

 Structure from the checkpoint file:  "228.n.pdb.xyz.mst.wat.chk"
 -------------
 228.n.pdb.xyz
 -------------
 Charge =  0 Multiplicity = 1

 SCF Done:  E(RB3LYP) =  -939.614473412     A.U. after    1 cycles

  Exact polarizability: 301.614  -1.492 269.504   2.477  32.413 180.217
 Approx polarizability: 317.152  11.392 298.169   6.291  41.558 204.264

                      1                      2                      3
                      A                      A                      A
 Frequencies --     45.9239                79.3601                84.4149
 Red. masses --      3.4559                 5.0963                 4.5121
 Frc consts  --      0.0043                 0.0189                 0.0189
 IR Inten    --      0.0611                 5.5379                 3.1955

                      4                      5                      6
                      A                      A                      A
 Frequencies --    119.7386               150.1639               206.4651
 Red. masses --      4.2702                 3.3995                 2.4346
 Frc consts  --      0.0361                 0.0452                 0.0611
 IR Inten    --      7.0883                 0.3637                11.4766

                      7                      8                      9
                      A                      A                      A
 Frequencies --    223.8865               233.5587               241.7104
 Red. masses --      1.8073                 1.4641                 1.8905
 Frc consts  --      0.0534                 0.0471                 0.0651
 IR Inten    --     30.0408                52.1863                24.1165

                     10                     11                     12
                      A                      A                      A
 Frequencies --    244.9879               255.2979               281.5696
 Red. masses --      2.4353                 4.1965                 3.4740
 Frc consts  --      0.0861                 0.1612                 0.1623
 IR Inten    --     77.1602                 3.0215                 7.3300

                     13                     14                     15
                      A                      A                      A
 Frequencies --    298.8862               320.8563               338.5070
 Red. masses --      3.4456                 3.5389                 2.6119
 Frc consts  --      0.1814                 0.2147                 0.1763
 IR Inten    --      7.7467                10.4846                45.2563

                     16                     17                     18
                      A                      A                      A
 Frequencies --    342.1303               369.0663               387.3649
 Red. masses --      4.1155                 2.6965                 4.0854
 Frc consts  --      0.2838                 0.2164                 0.3612
 IR Inten    --      8.8191                10.3100                15.4617

                     19                     20                     21
                      A                      A                      A
 Frequencies --    397.6012               438.1662               441.2785
 Red. masses --      2.8635                 1.9054                 2.5888
 Frc consts  --      0.2667                 0.2155                 0.2970
 IR Inten    --      6.6543               158.5754                64.8456

                     22                     23                     24
                      A                      A                      A
 Frequencies --    477.8031               505.6036               539.9083
 Red. masses --      4.4848                 3.8781                 3.5153
 Frc consts  --      0.6032                 0.5841                 0.6037
 IR Inten    --      1.8479                 3.9299                 7.9932

                     25                     26                     27
                      A                      A                      A
 Frequencies --    553.3748               557.2045               562.3142
 Red. masses --      4.4059                 3.7752                 3.1238
 Frc consts  --      0.7949                 0.6906                 0.5820
 IR Inten    --      1.9778                 8.8787                13.7605

                     28                     29                     30
                      A                      A                      A
 Frequencies --    601.2364               614.4246               631.3841
 Red. masses --      4.3733                 4.7521                 7.2201
 Frc consts  --      0.9314                 1.0570                 1.6958
 IR Inten    --      1.7873                 0.5678                 5.9808

                     31                     32                     33
                      A                      A                      A
 Frequencies --    669.3190               679.5303               716.5398
 Red. masses --      4.7131                 2.5618                 3.6532
 Frc consts  --      1.2440                 0.6970                 1.1051
 IR Inten    --     10.2814                13.8053                10.2096

                     34                     35                     36
                      A                      A                      A
 Frequencies --    723.8454               735.6913               755.7083
 Red. masses --      3.9194                 5.8796                 3.4351
 Frc consts  --      1.2099                 1.8749                 1.1558
 IR Inten    --     14.1250                 2.3920                42.3935

                     37                     38                     39
                      A                      A                      A
 Frequencies --    792.4382               806.2487               831.0744
 Red. masses --      1.5061                 2.2441                 4.4436
 Frc consts  --      0.5572                 0.8595                 1.8083
 IR Inten    --     18.7685                14.8103                27.3388

                     40                     41                     42
                      A                      A                      A
 Frequencies --    869.9402               881.4652               913.3084
 Red. masses --      2.8301                 4.1101                 1.4366
 Frc consts  --      1.2619                 1.8816                 0.7060
 IR Inten    --     47.5079                78.7019                 4.7023

                     43                     44                     45
                      A                      A                      A
 Frequencies --    917.0440               942.2896               953.3721
 Red. masses --      2.8969                 2.9690                 2.4845
 Frc consts  --      1.4354                 1.5532                 1.3305
 IR Inten    --     11.3670                12.1745                40.5093

                     46                     47                     48
                      A                      A                      A
 Frequencies --    962.1638               977.2192               987.8814
 Red. masses --      6.1377                 1.3903                 2.1710
 Frc consts  --      3.3478                 0.7823                 1.2483
 IR Inten    --    112.8609                 0.3769                11.5506

                     49                     50                     51
                      A                      A                      A
 Frequencies --   1005.3306              1019.4827              1045.8917
 Red. masses --      2.8464                 3.2100                 2.4441
 Frc consts  --      1.6950                 1.9657                 1.5752
 IR Inten    --     19.5061                21.3479               115.0658

                     52                     53                     54
                      A                      A                      A
 Frequencies --   1069.5929              1085.9361              1098.1662
 Red. masses --      2.9138                 2.8673                 2.3854
 Frc consts  --      1.9640                 1.9922                 1.6949
 IR Inten    --     75.6665                55.1876                59.4745

                     55                     56                     57
                      A                      A                      A
 Frequencies --   1099.3750              1116.6854              1122.4703
 Red. masses --      2.2088                 3.4802                 2.2582
 Frc consts  --      1.5729                 2.5569                 1.6763
 IR Inten    --      0.0597                15.2730                37.7601

                     58                     59                     60
                      A                      A                      A
 Frequencies --   1143.3115              1160.4843              1177.8315
 Red. masses --      2.2937                 1.8237                 1.5359
 Frc consts  --      1.7665                 1.4470                 1.2554
 IR Inten    --     48.3217                82.9446                30.2312

                     61                     62                     63
                      A                      A                      A
 Frequencies --   1184.2580              1197.4464              1222.3767
 Red. masses --      1.9822                 1.1457                 2.3109
 Frc consts  --      1.6379                 0.9679                 2.0344
 IR Inten    --     53.5281                 0.6819                33.5411

                     64                     65                     66
                      A                      A                      A
 Frequencies --   1228.0748              1242.0004              1248.8212
 Red. masses --      1.4542                 1.5431                 1.5216
 Frc consts  --      1.2922                 1.4024                 1.3981
 IR Inten    --     18.1945                13.7794                38.4642

                     67                     68                     69
                      A                      A                      A
 Frequencies --   1250.3057              1267.5783              1275.7963
 Red. masses --      1.2496                 1.4443                 1.8278
 Frc consts  --      1.1509                 1.3673                 1.7529
 IR Inten    --     67.0004                16.7469                89.7824

                     70                     71                     72
                      A                      A                      A
 Frequencies --   1299.1688              1314.6505              1321.9279
 Red. masses --      1.6481                 1.3993                 1.8577
 Frc consts  --      1.6389                 1.4249                 1.9127
 IR Inten    --     12.4488                 9.6129                63.1685

                     73                     74                     75
                      A                      A                      A
 Frequencies --   1341.0350              1349.3841              1357.3408
 Red. masses --      1.6581                 1.4614                 1.6792
 Frc consts  --      1.7569                 1.5678                 1.8228
 IR Inten    --    103.5115                67.1708               177.8354

                     76                     77                     78
                      A                      A                      A
 Frequencies --   1361.4524              1373.4743              1381.3212
 Red. masses --      1.5204                 1.4786                 1.3732
 Frc consts  --      1.6604                 1.6434                 1.5438
 IR Inten    --    108.9128                 8.7201                 1.7929

                     79                     80                     81
                      A                      A                      A
 Frequencies --   1391.0776              1397.7326              1401.4128
 Red. masses --      3.3093                 1.4244                 1.4502
 Frc consts  --      3.7730                 1.6395                 1.6780
 IR Inten    --     24.3556                13.9411                 4.8369

                     82                     83                     84
                      A                      A                      A
 Frequencies --   1413.5284              1427.6917              1439.2954
 Red. masses --      1.4681                 1.4192                 1.6475
 Frc consts  --      1.7282                 1.7044                 2.0108
 IR Inten    --      7.7117                55.4034                18.2649

                     85                     86                     87
                      A                      A                      A
 Frequencies --   1480.6720              1485.0351              1508.8275
 Red. masses --      1.1969                 1.1962                 2.9635
 Frc consts  --      1.5461                 1.5542                 3.9750
 IR Inten    --      1.8275                 1.0361                75.0699

                     88                     89                     90
                      A                      A                      A
 Frequencies --   1511.6866              1514.0088              1532.9566
 Red. masses --      1.0856                 1.0592                 1.0544
 Frc consts  --      1.4616                 1.4305                 1.4599
 IR Inten    --      7.7850                18.6652                 8.0715

                     91                     92                     93
                      A                      A                      A
 Frequencies --   1548.2635              1552.5746              1657.4376
 Red. masses --      1.0879                 3.1127                 7.8246
 Frc consts  --      1.5364                 4.4207                12.6645
 IR Inten    --      6.4478               122.4149                23.7023

                     94                     95                     96
                      A                      A                      A
 Frequencies --   1688.4565              1688.8469              2960.1130
 Red. masses --      6.6912                 7.0515                 1.0666
 Frc consts  --     11.2392                11.8498                 5.5062
 IR Inten    --     19.4440                51.0425                53.3690

                     97                     98                     99
                      A                      A                      A
 Frequencies --   2963.9121              3039.8253              3054.9491
 Red. masses --      1.0659                 1.0852                 1.0653
 Frc consts  --      5.5168                 5.9081                 5.8577
 IR Inten    --    276.0397               130.6515                35.0745

                    100                    101                    102
                      A                      A                      A
 Frequencies --   3066.5489              3071.8055              3075.9147
 Red. masses --      1.0698                 1.0817                 1.0819
 Frc consts  --      5.9273                 6.0137                 6.0309
 IR Inten    --     15.3442                52.7068               112.4008

                    103                    104                    105
                      A                      A                      A
 Frequencies --   3080.2641              3086.6769              3095.0590
 Red. masses --      1.0806                 1.0729                 1.1015
 Frc consts  --      6.0409                 6.0226                 6.2171
 IR Inten    --     31.9891               113.9503                30.2837

                    106                    107                    108
                      A                      A                      A
 Frequencies --   3113.7182              3121.8125              3132.3746
 Red. masses --      1.1008                 1.0905                 1.1034
 Frc consts  --      6.2883                 6.2617                 6.3786
 IR Inten    --     12.9482               114.9261                55.7660

                    109                    110                    111
                      A                      A                      A
 Frequencies --   3188.9718              3190.6693              3205.8024
 Red. masses --      1.0866                 1.0870                 1.0938
 Frc consts  --      6.5106                 6.5201                 6.6228
 IR Inten    --     14.0867                22.4272                40.9558

                    112                    113                    114
                      A                      A                      A
 Frequencies --   3213.0718              3686.6223              3730.4508
 Red. masses --      1.0976                 1.0653                 1.0664
 Frc consts  --      6.6762                 8.5304                 8.7433
 IR Inten    --     52.4893                84.6602               204.7953

 - Thermochemistry -
 -------------------
 Temperature   298.150 Kelvin.  Pressure   1.00000 Atm.
 Atom     1 has atomic number  6 and mass  12.00000

 Molecular mass:   285.13649 amu.
 Principal axes and moments of inertia in atomic units:
                           1         2         3
     Eigenvalues --  3443.702755813.636807749.11686
           X            0.99997   0.00410  -0.00593
           Y           -0.00400   0.99985   0.01663
           Z            0.00600  -0.01661   0.99984
 This molecule is an asymmetric top.
 Rotational symmetry number  1.
 Warning -- assumption of classical behavior for rotation
           may cause significant error
 Rotational temperatures (Kelvin)      0.02515     0.01490     0.01118
 Rotational constants (GHZ):           0.52407     0.31043     0.23290
 Zero-point vibrational energy     883671.3 (Joules/Mol)
                                  211.20251 (Kcal/Mol)
 Warning -- explicit consideration of  29 degrees of freedom as
           vibrations may cause significant error
 Vibrational temperatures:     66.07   114.18   121.45   172.28   216.05
          (Kelvin)            297.06   322.12   336.04   347.77   352.48
                              367.32   405.12   430.03   461.64   487.04
                              492.25   531.00   557.33   572.06   630.42
                              634.90   687.45   727.45   776.81   796.18
                              801.69   809.04   865.05   884.02   908.42
                              963.00   977.69  1030.94  1041.45  1058.50
                             1087.30  1140.14  1160.01  1195.73  1251.65
                             1268.23  1314.05  1319.42  1355.74  1371.69
                             1384.34  1406.00  1421.34  1446.45  1466.81
                             1504.80  1538.91  1562.42  1580.02  1581.76
                             1606.66  1614.98  1644.97  1669.68  1694.64
                             1703.88  1722.86  1758.73  1766.93  1786.96
                             1796.78  1798.91  1823.76  1835.59  1869.21
                             1891.49  1901.96  1929.45  1941.46  1952.91
                             1958.83  1976.12  1987.41  2001.45  2011.03
                             2016.32  2033.75  2054.13  2070.83  2130.36
                             2136.63  2170.87  2174.98  2178.32  2205.58
                             2227.61  2233.81  2384.68  2429.31  2429.87
                             4258.94  4264.41  4373.63  4395.39  4412.08
                             4419.64  4425.56  4431.81  4441.04  4453.10
                             4479.95  4491.59  4506.79  4588.22  4590.66
                             4612.43  4622.89  5304.23  5367.29

 Zero-point correction=                           0.336573 (Hartree/Particle)
 Thermal correction to Energy=                    0.353296
 Thermal correction to Enthalpy=                  0.354240
 Thermal correction to Gibbs Free Energy=         0.293916
 Sum of electronic and zero-point Energies=           -939.277901
 Sum of electronic and thermal Energies=              -939.261178
 Sum of electronic and thermal Enthalpies=            -939.260234
 Sum of electronic and thermal Free Energies=         -939.320558

                     E (Thermal)             CV                S
                      KCal/Mol        Cal/Mol-Kelvin    Cal/Mol-Kelvin
 Total                  221.696             70.372            126.963
 Electronic               0.000              0.000              0.000
 Translational            0.889              2.981             42.841
 Rotational               0.889              2.981             33.406
 Vibrational            219.919             64.410             50.716
 Vibration     1          0.595              1.979              4.986
 Vibration     2          0.600              1.963              3.907
 Vibration     3          0.601              1.960              3.786
 Vibration     4          0.609              1.933              3.105
 Vibration     5          0.618              1.902              2.670
 Vibration     6          0.641              1.831              2.075
 Vibration     7          0.649              1.805              1.927
 Vibration     8          0.654              1.790              1.851
 Vibration     9          0.658              1.776              1.790
 Vibration    10          0.660              1.771              1.766
 Vibration    11          0.666              1.754              1.694
 Vibration    12          0.681              1.708              1.524
 Vibration    13          0.692              1.676              1.423
 Vibration    14          0.706              1.634              1.306
 Vibration    15          0.719              1.599              1.219
 Vibration    16          0.721              1.591              1.202
 Vibration    17          0.741              1.536              1.084
 Vibration    18          0.756              1.497              1.010
 Vibration    19          0.764              1.475              0.972
 Vibration    20          0.798              1.387              0.832
 Vibration    21          0.801              1.380              0.823
 Vibration    22          0.834              1.299              0.716
 Vibration    23          0.861              1.238              0.644
 Vibration    24          0.895              1.162              0.565
 Vibration    25          0.909              1.132              0.537
 Vibration    26          0.913              1.124              0.529
 Vibration    27          0.918              1.113              0.519
 Vibration    28          0.959              1.029              0.448
 Vibration    29          0.974              1.001              0.426

                           ! Non-Optimized Parameters !
 Normal termination of Gaussian 16 at Wed Mar  2 05:53:55 2022.

 ------------------------------------------
 #p b3lyp/6-31G(d) geom=allcheck guess=read
 ------------------------------------------

 Structure from the checkpoint file:  "228.n.pdb.xyz.mst.wat.chk"
 -------------
 228.n.pdb.xyz
 -------------
 Charge =  0 Multiplicity = 1

 SCF Done:  E(RB3LYP) =  -939.594848594     A.U. after   11 cycles
 Normal termination of Gaussian 16 at Wed Mar  2 05:58:10 2022.
 Gaussian 16:  ES64L-G16RevA.03 25-Dec-2016

 ----------------------------------------------------------------------
 #p b3lyp/6-31G(d) scrf=(iefpcm,read,solvent=water) geom=allcheck guess
 =read
 ----------------------------------------------------------------------

 Structure from the checkpoint file:  "228.n.pdb.xyz.mst.wat.chk"
 -------------
 228.n.pdb.xyz
 -------------
 Charge =  0 Multiplicity = 1

                         Standard orientation:
 ---------------------------------------------------------------------
 Center     Atomic      Atomic             Coordinates (Angstroms)
 Number     Number       Type             X           Y           Z
 ---------------------------------------------------------------------
      1          6           0       -4.195392   -1.364560   -0.070085
      2          7           0       -2.807780   -1.205129    0.343890
      3          6           0       -2.676817   -0.210648    1.406078
      4          6           0       -1.212818   -0.016611    1.783626
      5          6           0       -0.319187    0.376580    0.560751
      6          6           0        0.480818    1.682108    0.803633
      7          8           0        1.906064    1.313101    0.845770
      8          6           0        1.999540   -0.016716    0.484004
      9          6           0        0.767534   -0.606850    0.286713
     10          6           0        0.580944   -1.820402   -0.360172
     11          6           0       -0.814693   -2.162408   -0.866777
     12          6           0       -1.875205   -0.994184   -0.793180
     13          6           0       -1.158342    0.372385   -0.746576
     14          6           0       -1.911692    1.674233   -0.869142
     15          6           0       -1.231887    2.806823   -0.637845
     16          6           0        0.243408    2.752999   -0.285787
     17          8           0        0.984785    2.422677   -1.466928
     18          6           0        1.752236   -2.540563   -0.641704
     19          6           0        3.013120   -2.013461   -0.326375
     20          6           0        3.171839   -0.723915    0.210990
     21          8           0        4.374645   -0.119176    0.440671
     22          1           0       -4.634248   -0.450036   -0.509097
     23          1           0       -4.274924   -2.166864   -0.809128
     24          1           0       -4.802629   -1.640476    0.798276
     25          1           0       -3.115123    0.761471    1.118779
     26          1           0       -3.241819   -0.562122    2.276698
     27          1           0       -0.831267   -0.945060    2.220324
     28          1           0       -1.145433    0.750724    2.559832
     29          1           0        0.250524    2.113100    1.779102
     30          1           0       -0.717887   -2.482856   -1.910418
     31          1           0       -1.245353   -3.011540   -0.326129
     32          1           0       -2.462570   -1.046399   -1.715038
     33          1           0       -0.440453    0.367499   -1.572159
     34          1           0       -2.956919    1.693073   -1.166125
     35          1           0       -1.703865    3.780133   -0.724880
     36          1           0        0.579578    3.726382    0.092623
     37          1           0        1.895596    2.252684   -1.164170
     38          1           0        1.699730   -3.504383   -1.139930
     39          1           0        3.902484   -2.593012   -0.556372
     40          1           0        5.094627   -0.708100    0.155580
 ---------------------------------------------------------------------

 SCF Done:  E(RB3LYP) =  -939.612693874     A.U. after   11 cycles

 The electronic state is 1-A.
 Alpha  occ. eigenvalues --  -19.18018 -19.17457 -19.14431 -14.31895 -10.24896
 Alpha  occ. eigenvalues --  -10.24377 -10.24078 -10.23682 -10.21701 -10.20233
 Alpha  occ. eigenvalues --  -10.20187 -10.19762 -10.19373 -10.19233 -10.18979
 Alpha  occ. eigenvalues --  -10.18827 -10.18508 -10.18490 -10.18393 -10.18260
 Alpha  occ. eigenvalues --  -10.18012  -1.06850  -1.04995  -1.01350  -0.92313
 Alpha  occ. eigenvalues --   -0.86296  -0.83652  -0.78418  -0.77888  -0.75516
 Alpha  occ. eigenvalues --   -0.73738  -0.72021  -0.70224  -0.66166  -0.63585
 Alpha  occ. eigenvalues --   -0.62649  -0.61048  -0.59861  -0.59026  -0.54779
 Alpha  occ. eigenvalues --   -0.52910  -0.51609  -0.50666  -0.49974  -0.49447
 Alpha  occ. eigenvalues --   -0.48663  -0.46952  -0.46362  -0.44861  -0.44383
 Alpha  occ. eigenvalues --   -0.44079  -0.42185  -0.41590  -0.41298  -0.40889
 Alpha  occ. eigenvalues --   -0.40340  -0.39569  -0.38487  -0.38204  -0.37883
 Alpha  occ. eigenvalues --   -0.36729  -0.35701  -0.35566  -0.35287  -0.34742
 Alpha  occ. eigenvalues --   -0.33958  -0.33187  -0.32622  -0.31226  -0.31003
 Alpha  occ. eigenvalues --   -0.29541  -0.26912  -0.25614  -0.22446  -0.20508
 Alpha  occ. eigenvalues --   -0.20343
 Alpha virt. eigenvalues --   -0.00469   0.00638   0.01521   0.08261   0.08970
 Alpha virt. eigenvalues --    0.09867   0.10497   0.10560   0.10935   0.12315
 Alpha virt. eigenvalues --    0.13378   0.14019   0.14397   0.14688   0.15460

 Mulliken charges:
               1
     1  C   -0.311965
     2  N   -0.410409
     3  C   -0.129197
     4  C   -0.298742
     5  C   -0.023991
     6  C    0.095203
     7  O   -0.592856
     8  C    0.311877
     9  C    0.000380
    10  C    0.133899
    11  C   -0.341720
    12  C    0.008096
    13  C   -0.145970
    14  C   -0.123426
    15  C   -0.147556
    16  C    0.084325
    17  O   -0.673216
    18  C   -0.238751
    19  C   -0.214413
    20  C    0.271049
    21  O   -0.683782
    22  H    0.128443
    23  H    0.158014
    24  H    0.153409
    25  H    0.122916
    26  H    0.147282
    27  H    0.153445
    28  H    0.154757
    29  H    0.161260
    30  H    0.156947
    31  H    0.157986
    32  H    0.145665
    33  H    0.169866
    34  H    0.154508
    35  H    0.149983
    36  H    0.135816
    37  H    0.432108
    38  H    0.138605
    39  H    0.149067
    40  H    0.461090
 Sum of Mulliken charges =  -0.00000

 Dipole moment (field-independent basis, Debye):
    X=             -0.9600    Y=             -1.1355    Z=             -0.0614  Tot=              1.4882
 Quadrupole moment (field-independent basis, Debye-Ang):
   XX=           -102.7144   YY=           -118.5173   ZZ=           -124.9054
   XY=             -9.9883   XZ=             -3.3572   YZ=              7.9405

 Normal termination of Gaussian 16 at Wed Mar  2 06:02:58 2022.
