 Gaussian 16, Revision A.03,

 ----------------------------------------------------------------------
 #p b3lyp/6-31G(d) opt=(MaxStep=10,MaxCycles=1000) freq scf=(MaxCycle=2
 000,NoVarAcc,NoIncFock) scrf=(iefpcm,read,solvent=water)
 ----------------------------------------------------------------------

 -------------
 229.n.pdb.xyz
 -------------
 Symbolic Z-matrix:
 Charge =  0 Multiplicity = 1

 SCF Done:  E(RB3LYP) =  -155.041878398     A.U. after   10 cycles
 SCF Done:  E(RB3LYP) =  -155.042423688     A.U. after    9 cycles
 SCF Done:  E(RB3LYP) =  -155.042455602     A.U. after    8 cycles
 SCF Done:  E(RB3LYP) =  -155.042454026     A.U. after    7 cycles
 Optimization completed.
    -- Stationary point found.
 Normal termination of Gaussian 16 at Wed Mar  2 04:23:33 2022.

 --------------------------------------------------------------------
 #P Geom=AllCheck Guess=TCheck SCRF=Check GenChk RB3LYP/6-31G(d) Freq
 --------------------------------------------------------------------

 Structure from the checkpoint file:  "229.n.pdb.xyz.mst.wat.chk"
 -------------
 229.n.pdb.xyz
 -------------
 Charge =  0 Multiplicity = 1

 SCF Done:  E(RB3LYP) =  -155.042454026     A.U. after    1 cycles

  Exact polarizability:  35.141  -0.234  31.843  -0.000  -0.010  29.875
 Approx polarizability:  34.508   0.747  33.512  -0.000  -0.010  30.852

                      1                      2                      3
                      A                      A                      A
 Frequencies --    265.3820               336.4353               414.7796
 Red. masses --      1.1428                 1.0758                 2.6652
 Frc consts  --      0.0474                 0.0717                 0.2702
 IR Inten    --     20.3873               187.4837                16.0981

                      4                      5                      6
                      A                      A                      A
 Frequencies --    826.4909               909.1281              1045.6429
 Red. masses --      1.0802                 2.2380                 2.2884
 Frc consts  --      0.4347                 1.0898                 1.4742
 IR Inten    --      0.0240                17.6886                87.0315

                      7                      8                      9
                      A                      A                      A
 Frequencies --   1114.4178              1193.5351              1285.9622
 Red. masses --      2.1703                 1.5123                 1.2132
 Frc consts  --      1.5881                 1.2693                 1.1821
 IR Inten    --     38.2950                 9.1537               129.9986

                     10                     11                     12
                      A                      A                      A
 Frequencies --   1305.5175              1425.5279              1476.8584
 Red. masses --      1.1145                 1.2329                 1.4551
 Frc consts  --      1.1192                 1.4762                 1.8699
 IR Inten    --      0.0286                 0.9827                24.2597

                     13                     14                     15
                      A                      A                      A
 Frequencies --   1506.7988              1519.8048              1553.1466
 Red. masses --      1.0413                 1.0524                 1.0872
 Frc consts  --      1.3929                 1.4322                 1.5452
 IR Inten    --      7.4429                 3.4853                 2.6108

                     16                     17                     18
                      A                      A                      A
 Frequencies --   3001.7889              3028.1008              3066.3037
 Red. masses --      1.0569                 1.1061                 1.0355
 Frc consts  --      5.6108                 5.9758                 5.7365
 IR Inten    --    103.6013               108.0623                25.4444

                     19                     20                     21
                      A                      A                      A
 Frequencies --   3134.4567              3140.7712              3741.0950
 Red. masses --      1.1038                 1.1024                 1.0664
 Frc consts  --      6.3893                 6.4068                 8.7934
 IR Inten    --     66.8201                48.4754                68.0590

 - Thermochemistry -
 -------------------
 Temperature   298.150 Kelvin.  Pressure   1.00000 Atm.
 Atom     1 has atomic number  6 and mass  12.00000

 Molecular mass:    46.04186 amu.
 Principal axes and moments of inertia in atomic units:
                           1         2         3
     Eigenvalues --    51.29541 194.04158 222.72530
           X            0.99908  -0.04296  -0.00001
           Y            0.04296   0.99908  -0.00010
           Z            0.00001   0.00010   1.00000
 This molecule is an asymmetric top.
 Rotational symmetry number  1.
 Rotational temperatures (Kelvin)      1.68853     0.44637     0.38888
 Rotational constants (GHZ):          35.18329     9.30080     8.10299
 Zero-point vibrational energy     211092.7 (Joules/Mol)
                                   50.45237 (Kcal/Mol)
 Warning -- explicit consideration of   3 degrees of freedom as
           vibrations may cause significant error
 Vibrational temperatures:    381.83   484.06   596.78  1189.14  1308.03
          (Kelvin)           1504.45  1603.40  1717.23  1850.21  1878.35
                             2051.02  2124.87  2167.95  2186.66  2234.63
                             4318.90  4356.76  4411.73  4509.78  4518.87
                             5382.60

 Zero-point correction=                           0.080401 (Hartree/Particle)
 Thermal correction to Energy=                    0.084614
 Thermal correction to Enthalpy=                  0.085558
 Thermal correction to Gibbs Free Energy=         0.055098
 Sum of electronic and zero-point Energies=           -154.962053
 Sum of electronic and thermal Energies=              -154.957840
 Sum of electronic and thermal Enthalpies=            -154.956896
 Sum of electronic and thermal Free Energies=         -154.987356

                     E (Thermal)             CV                S
                      KCal/Mol        Cal/Mol-Kelvin    Cal/Mol-Kelvin
 Total                   53.096             13.326             64.109
 Electronic               0.000              0.000              0.000
 Translational            0.889              2.981             37.406
 Rotational               0.889              2.981             22.321
 Vibrational             51.318              7.365              4.382
 Vibration     1          0.671              1.737              1.626
 Vibration     2          0.717              1.603              1.229
 Vibration     3          0.778              1.438              0.910

 Optimization completed.
    -- Stationary point found.
 Normal termination of Gaussian 16 at Wed Mar  2 04:24:06 2022.

 ------------------------------------------
 #p b3lyp/6-31G(d) geom=allcheck guess=read
 ------------------------------------------

 Structure from the checkpoint file:  "229.n.pdb.xyz.mst.wat.chk"
 -------------
 229.n.pdb.xyz
 -------------
 Charge =  0 Multiplicity = 1

 SCF Done:  E(RB3LYP) =  -155.033753605     A.U. after    9 cycles

 1\1\GINC-PIRINEUS15\SP\RB3LYP\6-31G(d)\C2H6O1\UBATOR01\02-Mar-2022\0\\
 #p b3lyp/6-31G(d) geom=allcheck guess=read\\229.n.pdb.xyz\\0,1\C,0,1.0
 052651981,0.1782821317,-0.2317962826\C,0,-0.4168725713,-0.346220716,-0
 .1516389963\O,0,-1.3072492935,0.7698503008,-0.1717073369\H,0,1.7195381
 56,-0.6501159143,-0.2193166091\H,0,1.154966836,0.748318407,-1.15385047
 8\H,0,1.223444046,0.8340715265,0.6166566657\H,0,-0.6173403659,-1.01876
 79636,-0.9983352684\H,0,-0.549994846,-0.9340437219,0.7692357358\H,0,-2
 .2117571594,0.4186259498,-0.1202474302\\Version=ES64L-G16RevA.03\State

 Normal termination of Gaussian 16 at Wed Mar  2 04:24:11 2022.
 Gaussian 16:  ES64L-G16RevA.03 25-Dec-2016

 ----------------------------------------------------------------------
 #p b3lyp/6-31G(d) scrf=(iefpcm,read,solvent=water) geom=allcheck guess
 =read
 ----------------------------------------------------------------------

 Structure from the checkpoint file:  "229.n.pdb.xyz.mst.wat.chk"
 -------------
 229.n.pdb.xyz
 -------------
 Charge =  0 Multiplicity = 1

                         Standard orientation:
 ---------------------------------------------------------------------
 Center     Atomic      Atomic             Coordinates (Angstroms)
 Number     Number       Type             X           Y           Z
 ---------------------------------------------------------------------
      1          6           0        1.225284   -0.220649   -0.000059
      2          6           0       -0.085314    0.545078    0.000109
      3          8           0       -1.155713   -0.399926   -0.000129
      4          1           0        2.072407    0.471426    0.000480
      5          1           0        1.300251   -0.857546    0.886664
      6          1           0        1.300770   -0.856844   -0.887240
      7          1           0       -0.140497    1.194794    0.885675
      8          1           0       -0.140826    1.196541   -0.885205
      9          1           0       -1.986219    0.104456    0.000360
 ---------------------------------------------------------------------

 SCF Done:  E(RB3LYP) =  -155.042428607     A.U. after   10 cycles

 The electronic state is 1-A.
 Alpha  occ. eigenvalues --  -19.13494 -10.22406 -10.17122  -1.00468  -0.74212
 Alpha  occ. eigenvalues --   -0.60336  -0.50484  -0.45759  -0.39553  -0.37739
 Alpha  occ. eigenvalues --   -0.36107  -0.32625  -0.26199
 Alpha virt. eigenvalues --    0.09413   0.12421   0.16018   0.16844   0.17916
 Alpha virt. eigenvalues --    0.20137   0.21994   0.24312   0.53316   0.55861
 Alpha virt. eigenvalues --    0.56421   0.58001   0.67617   0.68446   0.80962

 Mulliken charges:
               1
     1  C   -0.454816
     2  C   -0.021597
     3  O   -0.673179
     4  H    0.152933
     5  H    0.151752
     6  H    0.151750
     7  H    0.128493
     8  H    0.128226
     9  H    0.436437
 Sum of Mulliken charges =  -0.00000

 Dipole moment (field-independent basis, Debye):
    X=             -0.3900    Y=              1.9829    Z=              0.0025  Tot=              2.0209
 Quadrupole moment (field-independent basis, Debye-Ang):
   XX=            -16.0843   YY=            -20.3808   ZZ=            -19.9246
   XY=             -2.1442   XZ=             -0.0021   YZ=              0.0005

 1\1\GINC-PIRINEUS15\SP\RB3LYP\6-31G(d)\C2H6O1\UBATOR01\02-Mar-2022\0\\
 #p b3lyp/6-31G(d) scrf=(iefpcm,read,solvent=water) geom=allcheck guess
 =read\\229.n.pdb.xyz\\0,1\C,0,1.0052651981,0.1782821317,-0.2317962826\
 C,0,-0.4168725713,-0.346220716,-0.1516389963\O,0,-1.3072492935,0.76985
 03008,-0.1717073369\H,0,1.719538156,-0.6501159143,-0.2193166091\H,0,1.
 154966836,0.748318407,-1.153850478\H,0,1.223444046,0.8340715265,0.6166
 566657\H,0,-0.6173403659,-1.0187679636,-0.9983352684\H,0,-0.549994846,
 -0.9340437219,0.7692357358\H,0,-2.2117571594,0.4186259498,-0.120247430

 Normal termination of Gaussian 16 at Wed Mar  2 04:24:18 2022.
