 Gaussian 16, Revision A.03,

 ----------------------------------------------------------------------
 #p b3lyp/6-31G(d) opt=(MaxStep=10,MaxCycles=1000) freq scf=(MaxCycle=2
 000,NoVarAcc,NoIncFock) scrf=(iefpcm,read,solvent=water)
 ----------------------------------------------------------------------

 ------------
 23.n.pdb.xyz
 ------------
 Symbolic Z-matrix:
 Charge =  0 Multiplicity = 1

 SCF Done:  E(RB3LYP) =  -237.081365722     A.U. after   10 cycles
 SCF Done:  E(RB3LYP) =  -237.082132040     A.U. after    8 cycles
 SCF Done:  E(RB3LYP) =  -237.082142186     A.U. after    7 cycles
 SCF Done:  E(RB3LYP) =  -237.082123484     A.U. after    7 cycles
 SCF Done:  E(RB3LYP) =  -237.082124704     A.U. after    7 cycles
 SCF Done:  E(RB3LYP) =  -237.082140925     A.U. after    7 cycles
 SCF Done:  E(RB3LYP) =  -237.082142091     A.U. after    6 cycles
 SCF Done:  E(RB3LYP) =  -237.082123551     A.U. after    7 cycles
 SCF Done:  E(RB3LYP) =  -237.082124865     A.U. after    5 cycles
 SCF Done:  E(RB3LYP) =  -237.082140894     A.U. after    7 cycles
 SCF Done:  E(RB3LYP) =  -237.082142096     A.U. after    6 cycles
 SCF Done:  E(RB3LYP) =  -237.082124743     A.U. after    7 cycles
 Optimization completed.
    -- Stationary point found.
 Normal termination of Gaussian 16 at Tue Mar  1 17:50:51 2022.

 --------------------------------------------------------------------
 #P Geom=AllCheck Guess=TCheck SCRF=Check GenChk RB3LYP/6-31G(d) Freq
 --------------------------------------------------------------------

 Structure from the checkpoint file:  "23.n.pdb.xyz.mst.wat.chk"
 ------------
 23.n.pdb.xyz
 ------------
 Charge =  0 Multiplicity = 1

 SCF Done:  E(RB3LYP) =  -237.082124743     A.U. after    1 cycles

  Exact polarizability:  89.054   0.052  82.174   0.009   0.202  80.978
 Approx polarizability:  85.367   0.031  84.573   0.009   0.467  85.501

                      1                      2                      3
                      A                      A                      A
 Frequencies --     84.1040                98.1238               203.1430
 Red. masses --      1.9556                 1.7020                 1.9711
 Frc consts  --      0.0081                 0.0097                 0.0479
 IR Inten    --      0.0003                 0.0001                 0.0207

                      4                      5                      6
                      A                      A                      A
 Frequencies --    221.1187               235.7666               277.1528
 Red. masses --      1.0355                 1.2759                 1.2833
 Frc consts  --      0.0298                 0.0418                 0.0581
 IR Inten    --      0.0802                 0.0315                 0.0357

                      7                      8                      9
                      A                      A                      A
 Frequencies --    321.9989               387.7841               439.0040
 Red. masses --      2.0728                 2.5477                 2.1440
 Frc consts  --      0.1266                 0.2257                 0.2434
 IR Inten    --      0.0464                 0.2386                 0.4818

                     10                     11                     12
                      A                      A                      A
 Frequencies --    452.3033               772.2696               776.8115
 Red. masses --      2.1586                 1.5086                 1.2142
 Frc consts  --      0.2602                 0.5301                 0.4317
 IR Inten    --      0.3810                 6.2692                 1.3963

                     13                     14                     15
                      A                      A                      A
 Frequencies --    827.4129               894.4702               966.7826
 Red. masses --      1.4201                 2.0941                 1.2492
 Frc consts  --      0.5728                 0.9871                 0.6879
 IR Inten    --      2.7415                 0.0055                 6.2008

                     16                     17                     18
                      A                      A                      A
 Frequencies --    977.7124               999.4617              1039.5975
 Red. masses --      1.5292                 1.2813                 1.9397
 Frc consts  --      0.8613                 0.7541                 1.2352
 IR Inten    --      3.3458                10.4272                 0.1978

                     19                     20                     21
                      A                      A                      A
 Frequencies --   1066.3666              1071.6595              1184.4086
 Red. masses --      1.5123                 2.7397                 2.0371
 Frc consts  --      1.0132                 1.8538                 1.6837
 IR Inten    --      2.3234                 0.3229                 2.2152

                     22                     23                     24
                      A                      A                      A
 Frequencies --   1185.1310              1209.0068              1288.2842
 Red. masses --      1.7891                 1.9686                 1.2925
 Frc consts  --      1.4805                 1.6954                 1.2639
 IR Inten    --      8.2348                 0.1124                 4.3836

                     25                     26                     27
                      A                      A                      A
 Frequencies --   1310.5145              1321.5284              1377.6121
 Red. masses --      1.2506                 1.1402                 1.3987
 Frc consts  --      1.2655                 1.1732                 1.5640
 IR Inten    --      0.8627                 2.6685                 0.2428

                     28                     29                     30
                      A                      A                      A
 Frequencies --   1390.2853              1400.7956              1429.6078
 Red. masses --      1.3611                 1.5997                 1.2897
 Frc consts  --      1.5501                 1.8494                 1.5531
 IR Inten    --      2.5760                 0.6730                 2.9601

                     31                     32                     33
                      A                      A                      A
 Frequencies --   1432.6968              1437.6451              1496.1146
 Red. masses --      1.2641                 1.2239                 1.0716
 Frc consts  --      1.5288                 1.4904                 1.4132
 IR Inten    --      2.8221                 2.0995                 0.0493

                     34                     35                     36
                      A                      A                      A
 Frequencies --   1504.1486              1513.2676              1515.9785
 Red. masses --      1.0668                 1.0424                 1.0468
 Frc consts  --      1.4221                 1.4065                 1.4175
 IR Inten    --      0.5827                10.8375                 3.6802

                     37                     38                     39
                      A                      A                      A
 Frequencies --   1521.8659              1526.4659              1530.2023
 Red. masses --      1.0521                 1.0675                 1.0681
 Frc consts  --      1.4357                 1.4655                 1.4735
 IR Inten    --      3.4830                 6.2556                 8.1963

                     40                     41                     42
                      A                      A                      A
 Frequencies --   1537.2609              3000.3327              3024.3335
 Red. masses --      1.0461                 1.0816                 1.0602
 Frc consts  --      1.4565                 5.7366                 5.7137
 IR Inten    --      4.1974                36.3214                 8.9192

                     43                     44                     45
                      A                      A                      A
 Frequencies --   3030.0153              3049.6171              3052.5749
 Red. masses --      1.0606                 1.0396                 1.0428
 Frc consts  --      5.7371                 5.6967                 5.7249
 IR Inten    --    137.4379                51.4775                56.8371

                     46                     47                     48
                      A                      A                      A
 Frequencies --   3055.2978              3057.8448              3065.0640
 Red. masses --      1.0381                 1.0960                 1.1006
 Frc consts  --      5.7097                 6.0380                 6.0919
 IR Inten    --     25.4975                 6.5944               113.8208

                     49                     50                     51
                      A                      A                      A
 Frequencies --   3113.2166              3114.8213              3117.6374
 Red. masses --      1.1001                 1.0989                 1.1021
 Frc consts  --      6.2819                 6.2815                 6.3111
 IR Inten    --    150.9935                20.4419                51.6218

                     52                     53                     54
                      A                      A                      A
 Frequencies --   3120.1318              3124.9762              3134.1014
 Red. masses --      1.1022                 1.1008                 1.1012
 Frc consts  --      6.3223                 6.3333                 6.3731
 IR Inten    --     57.2974               134.7272                44.3010

 - Thermochemistry -
 -------------------
 Temperature   298.150 Kelvin.  Pressure   1.00000 Atm.
 Atom     1 has atomic number  6 and mass  12.00000

 Molecular mass:    86.10955 amu.
 Principal axes and moments of inertia in atomic units:
                           1         2         3
     Eigenvalues --   276.51641 978.335381135.90750
           X            1.00000  -0.00004  -0.00000
           Y            0.00004   1.00000  -0.00038
           Z            0.00000   0.00038   1.00000
 This molecule is an asymmetric top.
 Rotational symmetry number  1.
 Rotational temperatures (Kelvin)      0.31323     0.08853     0.07625
 Rotational constants (GHZ):           6.52671     1.84471     1.58881
 Zero-point vibrational energy     498159.9 (Joules/Mol)
                                  119.06307 (Kcal/Mol)
 Warning -- explicit consideration of  10 degrees of freedom as
           vibrations may cause significant error
 Vibrational temperatures:    121.01   141.18   292.28   318.14   339.22
          (Kelvin)            398.76   463.28   557.93   631.63   650.76
                             1111.12  1117.66  1190.46  1286.94  1390.98
                             1406.71  1438.00  1495.75  1534.26  1541.88
                             1704.10  1705.14  1739.49  1853.55  1885.54
                             1901.38  1982.08  2000.31  2015.43  2056.89
                             2061.33  2068.45  2152.58  2164.13  2177.25
                             2181.16  2189.63  2196.24  2201.62  2211.78
                             4316.81  4351.34  4359.52  4387.72  4391.97
                             4395.89  4399.56  4409.94  4479.22  4481.53
                             4485.58  4489.17  4496.14  4509.27

 Zero-point correction=                           0.189739 (Hartree/Particle)
 Thermal correction to Energy=                    0.198035
 Thermal correction to Enthalpy=                  0.198979
 Thermal correction to Gibbs Free Energy=         0.157712
 Sum of electronic and zero-point Energies=           -236.892386
 Sum of electronic and thermal Energies=              -236.884090
 Sum of electronic and thermal Enthalpies=            -236.883146
 Sum of electronic and thermal Free Energies=         -236.924413

                     E (Thermal)             CV                S
                      KCal/Mol        Cal/Mol-Kelvin    Cal/Mol-Kelvin
 Total                  124.269             29.776             86.854
 Electronic               0.000              0.000              0.000
 Translational            0.889              2.981             39.272
 Rotational               0.889              2.981             27.221
 Vibrational            122.491             23.814             20.361
 Vibration     1          0.601              1.960              3.793
 Vibration     2          0.604              1.950              3.491
 Vibration     3          0.639              1.835              2.104
 Vibration     4          0.648              1.809              1.950
 Vibration     5          0.655              1.786              1.835
 Vibration     6          0.678              1.716              1.551
 Vibration     7          0.707              1.631              1.300
 Vibration     8          0.756              1.496              1.009
 Vibration     9          0.799              1.385              0.830
 Vibration    10          0.811              1.356              0.789

 Optimization completed.
    -- Stationary point found.
 Normal termination of Gaussian 16 at Tue Mar  1 17:55:17 2022.

 ------------------------------------------
 #p b3lyp/6-31G(d) geom=allcheck guess=read
 ------------------------------------------

 Structure from the checkpoint file:  "23.n.pdb.xyz.mst.wat.chk"
 ------------
 23.n.pdb.xyz
 ------------
 Charge =  0 Multiplicity = 1

 SCF Done:  E(RB3LYP) =  -237.083103302     A.U. after    8 cycles
 Normal termination of Gaussian 16 at Tue Mar  1 17:55:39 2022.
 Gaussian 16:  ES64L-G16RevA.03 25-Dec-2016

 ----------------------------------------------------------------------
 #p b3lyp/6-31G(d) scrf=(iefpcm,read,solvent=water) geom=allcheck guess
 =read
 ----------------------------------------------------------------------

 Structure from the checkpoint file:  "23.n.pdb.xyz.mst.wat.chk"
 ------------
 23.n.pdb.xyz
 ------------
 Charge =  0 Multiplicity = 1

                         Standard orientation:
 ---------------------------------------------------------------------
 Center     Atomic      Atomic             Coordinates (Angstroms)
 Number     Number       Type             X           Y           Z
 ---------------------------------------------------------------------
      1          6           0       -2.573947   -0.173958   -0.299495
      2          6           0       -1.261021   -0.680509    0.303169
      3          6           0        0.000055    0.049239   -0.194569
      4          6           0       -0.003343    1.529436    0.209418
      5          6           0        1.262532   -0.678831    0.302260
      6          6           0        2.576105   -0.171701   -0.298676
      7          1           0       -2.754717    0.876657   -0.052077
      8          1           0       -2.564092   -0.259775   -1.392161
      9          1           0       -3.426087   -0.752357    0.071717
     10          1           0       -1.152476   -1.749237    0.077358
     11          1           0       -1.307156   -0.604174    1.398320
     12          1           0       -0.000457   -0.003038   -1.294429
     13          1           0        0.872185    2.056039   -0.181184
     14          1           0        0.005943    1.631157    1.301954
     15          1           0       -0.892673    2.045117   -0.164727
     16          1           0        1.154800   -1.746929    0.073711
     17          1           0        1.308041   -0.605292    1.397860
     18          1           0        3.425647   -0.760590    0.062051
     19          1           0        2.766819    0.875247   -0.039343
     20          1           0        2.561946   -0.244879   -1.391684
 ---------------------------------------------------------------------

 SCF Done:  E(RB3LYP) =  -237.082056425     A.U. after    7 cycles

 The electronic state is 1-A.
 Alpha  occ. eigenvalues --  -10.17838 -10.17226 -10.17220 -10.16787 -10.16779
 Alpha  occ. eigenvalues --  -10.16532  -0.80694  -0.74340  -0.70258  -0.64716
 Alpha  occ. eigenvalues --   -0.59219  -0.54819  -0.46069  -0.44932  -0.42542
 Alpha  occ. eigenvalues --   -0.41096  -0.39127  -0.38317  -0.36834  -0.35711
 Alpha  occ. eigenvalues --   -0.34522  -0.32977  -0.31234  -0.30685  -0.30179
 Alpha virt. eigenvalues --    0.08812   0.12179   0.12441   0.12957   0.15431
 Alpha virt. eigenvalues --    0.15731   0.16676   0.17557   0.17668   0.18696
 Alpha virt. eigenvalues --    0.18770   0.20672   0.23051   0.23511   0.25116

 Mulliken charges:
               1
     1  C   -0.457895
     2  C   -0.249404
     3  C   -0.056158
     4  C   -0.462687
     5  C   -0.249240
     6  C   -0.457725
     7  H    0.148905
     8  H    0.143144
     9  H    0.143369
    10  H    0.129448
    11  H    0.127561
    12  H    0.115943
    13  H    0.146758
    14  H    0.138913
    15  H    0.146895
    16  H    0.129488
    17  H    0.127498
    18  H    0.143373
    19  H    0.148556
    20  H    0.143256
 Sum of Mulliken charges =  -0.00000

 Dipole moment (field-independent basis, Debye):
    X=             -0.0002    Y=             -0.0591    Z=             -0.0279  Tot=              0.0653
 Quadrupole moment (field-independent basis, Debye-Ang):
   XX=            -42.1046   YY=            -41.5350   ZZ=            -41.2011
   XY=             -0.0050   XZ=             -0.0037   YZ=              0.1568

 Normal termination of Gaussian 16 at Tue Mar  1 17:56:04 2022.
