 Gaussian 16, Revision A.03,

 ----------------------------------------------------------------------
 #p b3lyp/6-31G(d) opt=(MaxStep=10,MaxCycles=1000) freq scf=(MaxCycle=2
 000,NoVarAcc,NoIncFock) scrf=(iefpcm,read,solvent=water)
 ----------------------------------------------------------------------

 -------------
 230.n.pdb.xyz
 -------------
 Symbolic Z-matrix:
 Charge =  0 Multiplicity = 1

 SCF Done:  E(RB3LYP) =  -844.456167357     A.U. after   13 cycles
 SCF Done:  E(RB3LYP) =  -844.459888241     A.U. after   11 cycles
 SCF Done:  E(RB3LYP) =  -844.459251932     A.U. after   12 cycles
 SCF Done:  E(RB3LYP) =  -844.461002784     A.U. after   12 cycles
 SCF Done:  E(RB3LYP) =  -844.461217526     A.U. after   11 cycles
 SCF Done:  E(RB3LYP) =  -844.461365203     A.U. after   11 cycles
 SCF Done:  E(RB3LYP) =  -844.461399006     A.U. after   10 cycles
 SCF Done:  E(RB3LYP) =  -844.461280128     A.U. after   11 cycles
 SCF Done:  E(RB3LYP) =  -844.461378724     A.U. after   11 cycles
 SCF Done:  E(RB3LYP) =  -844.461415913     A.U. after   11 cycles
 SCF Done:  E(RB3LYP) =  -844.461353000     A.U. after    8 cycles
 SCF Done:  E(RB3LYP) =  -844.461415701     A.U. after   11 cycles
 SCF Done:  E(RB3LYP) =  -844.461415724     A.U. after    8 cycles
 SCF Done:  E(RB3LYP) =  -844.461348222     A.U. after   11 cycles
 SCF Done:  E(RB3LYP) =  -844.461351405     A.U. after    7 cycles
 SCF Done:  E(RB3LYP) =  -844.461415703     A.U. after   11 cycles
 SCF Done:  E(RB3LYP) =  -844.461349964     A.U. after   11 cycles
 Optimization completed.
    -- Stationary point found.
 Normal termination of Gaussian 16 at Tue Mar  1 05:20:09 2022.

 --------------------------------------------------------------------
 #P Geom=AllCheck Guess=TCheck SCRF=Check GenChk RB3LYP/6-31G(d) Freq
 --------------------------------------------------------------------

 Structure from the checkpoint file:  "230.n.pdb.xyz.mst.wat.chk"
 -------------
 230.n.pdb.xyz
 -------------
 Charge =  0 Multiplicity = 1

 SCF Done:  E(RB3LYP) =  -844.461349964     A.U. after    1 cycles

  Exact polarizability: 208.199  -5.066 228.202 -26.040   4.687 144.712
 Approx polarizability: 227.244  -1.871 270.076 -40.563   4.894 164.232

 ******    1 imaginary frequencies (negative Signs) ******

                      1                      2                      3
                      A                      A                      A
 Frequencies --    -18.0994                15.3227                29.5092
 Red. masses --      1.8360                 6.7743                 6.0620
 Frc consts  --      0.0004                 0.0009                 0.0031
 IR Inten    --      3.5387                 3.6249                 1.5726

                      4                      5                      6
                      A                      A                      A
 Frequencies --     46.0966                57.7942                84.8511
 Red. masses --      5.4348                 6.7252                 2.7501
 Frc consts  --      0.0068                 0.0132                 0.0117
 IR Inten    --      1.1816                 0.6788                 1.2714

                      7                      8                      9
                      A                      A                      A
 Frequencies --     95.7108                97.7476               140.8055
 Red. masses --      2.7138                 3.7739                 2.1249
 Frc consts  --      0.0146                 0.0212                 0.0248
 IR Inten    --      0.3882                 0.8473                 2.2418

                     10                     11                     12
                      A                      A                      A
 Frequencies --    148.8943               152.4937               168.8160
 Red. masses --      2.3971                 4.1789                 2.1320
 Frc consts  --      0.0313                 0.0573                 0.0358
 IR Inten    --      0.3442                 1.5317                 0.4320

                     13                     14                     15
                      A                      A                      A
 Frequencies --    177.9076               211.8714               264.3007
 Red. masses --      5.8238                 5.8767                 5.3297
 Frc consts  --      0.1086                 0.1554                 0.2194
 IR Inten    --      2.1734                 2.4706                 4.6487

                     16                     17                     18
                      A                      A                      A
 Frequencies --    273.5802               340.7589               363.7231
 Red. masses --      4.4267                 3.7158                 3.9961
 Frc consts  --      0.1952                 0.2542                 0.3115
 IR Inten    --      2.0924                 2.1591                 1.8175

                     19                     20                     21
                      A                      A                      A
 Frequencies --    390.5505               458.3070               487.8338
 Red. masses --      3.6287                 6.9738                 3.6806
 Frc consts  --      0.3261                 0.8630                 0.5161
 IR Inten    --      1.1003                 0.2938                 0.9819

                     22                     23                     24
                      A                      A                      A
 Frequencies --    500.1668               563.5977               646.5036
 Red. masses --      3.6169                 5.6638                 3.7096
 Frc consts  --      0.5331                 1.0600                 0.9135
 IR Inten    --      8.7744                 0.5320                 9.3529

                     25                     26                     27
                      A                      A                      A
 Frequencies --    663.4301               737.9560               744.4833
 Red. masses --      8.1774                 1.0632                 1.1825
 Frc consts  --      2.1206                 0.3411                 0.3862
 IR Inten    --     23.1177                10.9650                 4.0474

                     28                     29                     30
                      A                      A                      A
 Frequencies --    747.9489               754.5245               766.1336
 Red. masses --      3.8014                 9.8837                 1.1143
 Frc consts  --      1.2530                 3.3152                 0.3854
 IR Inten    --     29.4437                 2.6584                 2.0994

                     31                     32                     33
                      A                      A                      A
 Frequencies --    802.1540               805.3900               845.3519
 Red. masses --      1.2205                 1.2179                11.6620
 Frc consts  --      0.4627                 0.4655                 4.9102
 IR Inten    --     26.3231                22.7152                84.2059

                     34                     35                     36
                      A                      A                      A
 Frequencies --    866.5599               884.9284               931.6738
 Red. masses --      1.2404                 1.3937                 5.0379
 Frc consts  --      0.5488                 0.6430                 2.5765
 IR Inten    --      2.8290                 1.1627                16.5414

                     37                     38                     39
                      A                      A                      A
 Frequencies --    953.3540              1001.6883              1009.2579
 Red. masses --      1.3090                 6.0293                 4.6722
 Frc consts  --      0.7010                 3.5644                 2.8040
 IR Inten    --      1.8558                35.4825                 5.1614

                     40                     41                     42
                      A                      A                      A
 Frequencies --   1034.4730              1038.4130              1054.6238
 Red. masses --      1.2138                 4.2965                 3.0609
 Frc consts  --      0.7653                 2.7297                 2.0058
 IR Inten    --     10.2921                87.1338                16.6021

                     43                     44                     45
                      A                      A                      A
 Frequencies --   1066.5018              1076.8309              1079.2811
 Red. masses --      3.0041                 2.6252                 2.1651
 Frc consts  --      2.0132                 1.7935                 1.4859
 IR Inten    --     18.5350                12.1161                 2.2035

                     46                     47                     48
                      A                      A                      A
 Frequencies --   1093.3747              1124.8787              1134.1112
 Red. masses --      1.4988                 2.9261                 2.1494
 Frc consts  --      1.0557                 2.1815                 1.6288
 IR Inten    --     14.2857                45.6764                64.7596

                     49                     50                     51
                      A                      A                      A
 Frequencies --   1191.4928              1208.2259              1217.1863
 Red. masses --      2.5680                 1.8124                 2.1294
 Frc consts  --      2.1480                 1.5589                 1.8588
 IR Inten    --      4.6967                92.0954               119.4308

                     52                     53                     54
                      A                      A                      A
 Frequencies --   1242.0056              1250.6313              1283.0507
 Red. masses --      1.2436                 1.5283                 1.5204
 Frc consts  --      1.1303                 1.4084                 1.4747
 IR Inten    --      2.1398                 3.3701                27.6078

                     55                     56                     57
                      A                      A                      A
 Frequencies --   1285.9730              1308.9883              1323.9749
 Red. masses --      1.3092                 1.5869                 1.3190
 Frc consts  --      1.2756                 1.6021                 1.3622
 IR Inten    --      1.0942                62.1118                28.4343

                     58                     59                     60
                      A                      A                      A
 Frequencies --   1329.7016              1333.0695              1339.7404
 Red. masses --      1.3589                 1.3184                 1.1051
 Frc consts  --      1.4156                 1.3804                 1.1687
 IR Inten    --     14.8904                19.6030                 9.5175

                     61                     62                     63
                      A                      A                      A
 Frequencies --   1342.3902              1345.7532              1374.5294
 Red. masses --      1.2041                 1.0890                 1.6331
 Frc consts  --      1.2784                 1.1620                 1.8179
 IR Inten    --      8.0249                 1.5127                84.9952

                     64                     65                     66
                      A                      A                      A
 Frequencies --   1381.4194              1404.9925              1408.1503
 Red. masses --      2.4139                 3.2055                 1.9011
 Frc consts  --      2.7141                 3.7282                 2.2211
 IR Inten    --    209.8024               479.9031               151.6526

                     67                     68                     69
                      A                      A                      A
 Frequencies --   1420.7202              1426.0798              1449.0208
 Red. masses --      1.5626                 1.6890                 1.3917
 Frc consts  --      1.8583                 2.0238                 1.7216
 IR Inten    --     17.6815                 3.1887                29.5273

                     70                     71                     72
                      A                      A                      A
 Frequencies --   1456.3706              1492.9994              1498.9700
 Red. masses --      3.7124                 1.1635                 1.0777
 Frc consts  --      4.6393                 1.5280                 1.4267
 IR Inten    --      5.8671                13.6570                 0.4660

                     73                     74                     75
                      A                      A                      A
 Frequencies --   1502.6240              1509.7603              1518.0442
 Red. masses --      1.0874                 1.1024                 1.1543
 Frc consts  --      1.4465                 1.4805                 1.5672
 IR Inten    --      1.5425                 1.8644                26.6983

                     76                     77                     78
                      A                      A                      A
 Frequencies --   1524.2140              1527.5963              1535.2347
 Red. masses --      2.8807                 1.2085                 1.1062
 Frc consts  --      3.9431                 1.6616                 1.5361
 IR Inten    --    283.8655                33.8275                 7.1852

                     79                     80                     81
                      A                      A                      A
 Frequencies --   1541.9885              1546.6874              1593.7278
 Red. masses --      4.0917                 1.0919                 9.4097
 Frc consts  --      5.7322                 1.5389                14.0817
 IR Inten    --     46.0980                 1.5211               273.7483

                     82                     83                     84
                      A                      A                      A
 Frequencies --   3028.5641              3030.6137              3034.9512
 Red. masses --      1.0587                 1.0583                 1.0591
 Frc consts  --      5.7213                 5.7270                 5.7476
 IR Inten    --      2.6124                 0.0219                 2.6049

                     85                     86                     87
                      A                      A                      A
 Frequencies --   3038.2077              3051.0199              3051.4079
 Red. masses --      1.0596                 1.0981                 1.0603
 Frc consts  --      5.7628                 6.0226                 5.8165
 IR Inten    --    191.8556                 4.4911                65.4028

                     88                     89                     90
                      A                      A                      A
 Frequencies --   3058.5246              3063.7436              3066.5491
 Red. masses --      1.0999                 1.0678                 1.0557
 Frc consts  --      6.0619                 5.9056                 5.8492
 IR Inten    --      4.5603                35.6876                90.7367

                     91                     92                     93
                      A                      A                      A
 Frequencies --   3071.2201              3082.2576              3091.5619
 Red. masses --      1.1009                 1.1051                 1.1057
 Frc consts  --      6.1184                 6.1857                 6.2266
 IR Inten    --      4.3851               135.8342               106.1429

                     94                     95                     96
                      A                      A                      A
 Frequencies --   3113.1312              3117.7741              3123.3236
 Red. masses --      1.0932                 1.1111                 1.0713
 Frc consts  --      6.2421                 6.3635                 6.1573
 IR Inten    --     35.6415               152.7230                61.9485

                     97                     98                     99
                      A                      A                      A
 Frequencies --   3187.1749              3289.9995              3317.5083
 Red. masses --      1.1038                 1.0940                 1.1029
 Frc consts  --      6.6063                 6.9768                 7.1520
 IR Inten    --     13.2588                 7.7996                 1.2265

 - Thermochemistry -
 -------------------
 Temperature   298.150 Kelvin.  Pressure   1.00000 Atm.
 Atom     1 has atomic number  8 and mass  15.99491

 Molecular mass:   243.13831 amu.
 Principal axes and moments of inertia in atomic units:
                           1         2         3
     Eigenvalues --  1400.82831********************
           X            0.99998  -0.00542   0.00233
           Y            0.00543   0.99996  -0.00699
           Z           -0.00229   0.00700   0.99997
 This molecule is an asymmetric top.
 Rotational symmetry number  1.
 Warning -- assumption of classical behavior for rotation
           may cause significant error
 Rotational temperatures (Kelvin)      0.06183     0.00506     0.00482
 Rotational constants (GHZ):           1.28834     0.10544     0.10039
    1 imaginary frequencies ignored.
 Zero-point vibrational energy     776779.0 (Joules/Mol)
                                  185.65464 (Kcal/Mol)
 Warning -- explicit consideration of  22 degrees of freedom as
           vibrations may cause significant error
 Vibrational temperatures:     22.05    42.46    66.32    83.15   122.08
          (Kelvin)            137.71   140.64   202.59   214.23   219.40
                              242.89   255.97   304.84   380.27   393.62
                              490.28   523.32   561.92   659.40   701.88
                              719.63   810.89   930.17   954.53  1061.75
                             1071.15  1076.13  1085.59  1102.30  1154.12
                             1158.78  1216.27  1246.79  1273.21  1340.47
                             1371.66  1441.21  1452.10  1488.38  1494.04
                             1517.37  1534.46  1549.32  1552.84  1573.12
                             1618.45  1631.73  1714.29  1738.37  1751.26
                             1786.97  1799.38  1846.02  1850.23  1883.34
                             1904.90  1913.14  1917.99  1927.59  1931.40
                             1936.24  1977.64  1987.55  2021.47  2026.01
                             2044.10  2051.81  2084.82  2095.39  2148.09
                             2156.68  2161.94  2172.21  2184.13  2193.00
                             2197.87  2208.86  2218.58  2225.34  2293.02
                             4357.43  4360.38  4366.62  4371.30  4389.74
                             4390.30  4400.53  4408.04  4412.08  4418.80
                             4434.68  4448.07  4479.10  4485.78  4493.77
                             4585.63  4733.58  4773.15

 Zero-point correction=                           0.295860 (Hartree/Particle)
 Thermal correction to Energy=                    0.312694
 Thermal correction to Enthalpy=                  0.313638
 Thermal correction to Gibbs Free Energy=         0.247680
 Sum of electronic and zero-point Energies=           -844.165490
 Sum of electronic and thermal Energies=              -844.148656
 Sum of electronic and thermal Enthalpies=            -844.147712
 Sum of electronic and thermal Free Energies=         -844.213670

                     E (Thermal)             CV                S
                      KCal/Mol        Cal/Mol-Kelvin    Cal/Mol-Kelvin
 Total                  196.218             60.664            138.820
 Electronic               0.000              0.000              0.000
 Translational            0.889              2.981             42.366
 Rotational               0.889              2.981             34.421
 Vibrational            194.441             54.702             62.033
 Vibration     1          0.593              1.986              7.163
 Vibration     2          0.593              1.984              5.862
 Vibration     3          0.595              1.979              4.978
 Vibration     4          0.596              1.974              4.531
 Vibration     5          0.601              1.960              3.775
 Vibration     6          0.603              1.952              3.540
 Vibration     7          0.603              1.951              3.499
 Vibration     8          0.615              1.912              2.793
 Vibration     9          0.618              1.904              2.686
 Vibration    10          0.619              1.900              2.641
 Vibration    11          0.625              1.881              2.449
 Vibration    12          0.628              1.870              2.350
 Vibration    13          0.643              1.823              2.027
 Vibration    14          0.671              1.738              1.633
 Vibration    15          0.676              1.722              1.573
 Vibration    16          0.720              1.594              1.209
 Vibration    17          0.737              1.547              1.106
 Vibration    18          0.758              1.490              0.998
 Vibration    19          0.816              1.343              0.771
 Vibration    20          0.844              1.277              0.689
 Vibration    21          0.856              1.250              0.658
 Vibration    22          0.919              1.110              0.517

 Optimization completed on the basis of negligible forces.
    -- Stationary point found.
 Normal termination of Gaussian 16 at Tue Mar  1 05:45:12 2022.

 ------------------------------------------
 #p b3lyp/6-31G(d) geom=allcheck guess=read
 ------------------------------------------

 Structure from the checkpoint file:  "230.n.pdb.xyz.mst.wat.chk"
 -------------
 230.n.pdb.xyz
 -------------
 Charge =  0 Multiplicity = 1

 SCF Done:  E(RB3LYP) =  -844.446608511     A.U. after   12 cycles
 Normal termination of Gaussian 16 at Tue Mar  1 05:47:12 2022.
 Gaussian 16:  ES64L-G16RevA.03 25-Dec-2016

 ----------------------------------------------------------------------
 #p b3lyp/6-31G(d) scrf=(iefpcm,read,solvent=water) geom=allcheck guess
 =read
 ----------------------------------------------------------------------

 Structure from the checkpoint file:  "230.n.pdb.xyz.mst.wat.chk"
 -------------
 230.n.pdb.xyz
 -------------
 Charge =  0 Multiplicity = 1

                         Standard orientation:
 ---------------------------------------------------------------------
 Center     Atomic      Atomic             Coordinates (Angstroms)
 Number     Number       Type             X           Y           Z
 ---------------------------------------------------------------------
      1          8           0        4.612683    2.396804   -0.351303
      2          7           0        3.763030    1.591918    0.036053
      3          8           0        2.693453    1.919167    0.570258
      4          6           0        4.030767    0.205717   -0.143777
      5          7           0        5.126631   -0.236641   -0.741869
      6          6           0        5.012113   -1.588362   -0.706152
      7          6           0        3.833923   -1.953629   -0.073894
      8          7           0        3.207540   -0.800683    0.287836
      9          6           0        1.902714   -0.753040    0.966070
     10          6           0        0.751477   -0.490391   -0.003609
     11          6           0       -0.601815   -0.487551    0.714115
     12          6           0       -1.777668   -0.237725   -0.235972
     13          6           0       -3.134246   -0.232135    0.472443
     14          6           0       -4.310171    0.010718   -0.476362
     15          6           0       -5.664848    0.013247    0.239225
     16          6           0       -6.820559    0.249835   -0.713283
     17          9           0       -8.031601    0.241632   -0.000813
     18          1           0        5.767362   -2.236359   -1.125084
     19          1           0        3.401934   -2.916217    0.147708
     20          1           0        1.788965   -1.723824    1.451212
     21          1           0        1.953171    0.015573    1.734331
     22          1           0        0.916803    0.474733   -0.491719
     23          1           0        0.760413   -1.259374   -0.784794
     24          1           0       -0.746549   -1.448018    1.226239
     25          1           0       -0.596576    0.282211    1.496920
     26          1           0       -1.631897    0.722251   -0.749979
     27          1           0       -1.780841   -1.007903   -1.018646
     28          1           0       -3.133677    0.539782    1.253362
     29          1           0       -3.278336   -1.190341    0.989100
     30          1           0       -4.310104   -0.761410   -1.256916
     31          1           0       -4.166730    0.969331   -0.992092
     32          1           0       -5.680304    0.793413    1.009676
     33          1           0       -5.821335   -0.945180    0.748729
     34          1           0       -6.737505    1.220172   -1.213517
     35          1           0       -6.880010   -0.533560   -1.475829
 ---------------------------------------------------------------------

 SCF Done:  E(RB3LYP) =  -844.460202367     A.U. after   11 cycles

 The electronic state is 1-A.
 Alpha  occ. eigenvalues --  -24.66749 -19.18967 -19.18866 -14.58557 -14.42839
 Alpha  occ. eigenvalues --  -14.35159 -10.29959 -10.24984 -10.24150 -10.23686
 Alpha  occ. eigenvalues --  -10.22589 -10.18799 -10.18177 -10.18095 -10.18061
 Alpha  occ. eigenvalues --  -10.17716 -10.17660  -1.23448  -1.17084  -1.05922
 Alpha  occ. eigenvalues --   -1.05233  -0.92030  -0.82398  -0.81382  -0.79549
 Alpha  occ. eigenvalues --   -0.76015  -0.71938  -0.70095  -0.66030  -0.62947
 Alpha  occ. eigenvalues --   -0.61306  -0.58461  -0.58186  -0.57795  -0.55187
 Alpha  occ. eigenvalues --   -0.54401  -0.51977  -0.50234  -0.49573  -0.48305
 Alpha  occ. eigenvalues --   -0.47893  -0.46751  -0.45856  -0.45384  -0.44527
 Alpha  occ. eigenvalues --   -0.44047  -0.41796  -0.41112  -0.39841  -0.38344
 Alpha  occ. eigenvalues --   -0.37763  -0.35352  -0.35007  -0.34151  -0.33295
 Alpha  occ. eigenvalues --   -0.32656  -0.32323  -0.32188  -0.32133  -0.31784
 Alpha  occ. eigenvalues --   -0.31466  -0.30939  -0.29664  -0.29328  -0.25640
 Alpha virt. eigenvalues --   -0.09596   0.02514   0.05255   0.08946   0.09858
 Alpha virt. eigenvalues --    0.10554   0.11391   0.11689   0.11913   0.12864
 Alpha virt. eigenvalues --    0.13471   0.13596   0.15375   0.15637   0.16070

 Mulliken charges:
               1
     1  O   -0.437917
     2  N    0.377201
     3  O   -0.443469
     4  C    0.700852
     5  N   -0.493941
     6  C   -0.031252
     7  C    0.046130
     8  N   -0.419011
     9  C   -0.154907
    10  C   -0.267379
    11  C   -0.264351
    12  C   -0.257861
    13  C   -0.255581
    14  C   -0.270854
    15  C   -0.297937
    16  C    0.042258
    17  F   -0.350608
    18  H    0.181008
    19  H    0.212793
    20  H    0.186601
    21  H    0.197372
    22  H    0.159930
    23  H    0.152553
    24  H    0.141059
    25  H    0.142193
    26  H    0.135799
    27  H    0.135445
    28  H    0.135153
    29  H    0.134821
    30  H    0.139662
    31  H    0.139915
    32  H    0.148262
    33  H    0.148086
    34  H    0.144030
    35  H    0.143941
 Sum of Mulliken charges =  -0.00000

 Dipole moment (field-independent basis, Debye):
    X=             -1.9205    Y=             -7.2874    Z=              0.7952  Tot=              7.5780
 Quadrupole moment (field-independent basis, Debye-Ang):
   XX=           -156.9266   YY=           -100.6764   ZZ=            -99.1146
   XY=            -26.5462   XZ=             12.7151   YZ=             -0.0947

 Normal termination of Gaussian 16 at Tue Mar  1 05:49:42 2022.
