 Gaussian 16, Revision A.03,

 ----------------------------------------------------------------------
 #p b3lyp/6-31G(d) opt=(MaxStep=10,MaxCycles=1000) freq scf=(MaxCycle=2
 000,NoVarAcc,NoIncFock) scrf=(iefpcm,read,solvent=water)
 ----------------------------------------------------------------------

 -------------
 231.n.pdb.xyz
 -------------
 Symbolic Z-matrix:
 Charge =  0 Multiplicity = 1

 SCF Done:  E(RB3LYP) =  -233.669259158     A.U. after   11 cycles
 SCF Done:  E(RB3LYP) =  -233.670146140     A.U. after    9 cycles
 SCF Done:  E(RB3LYP) =  -233.670200142     A.U. after    8 cycles
 SCF Done:  E(RB3LYP) =  -233.670186467     A.U. after    7 cycles
 SCF Done:  E(RB3LYP) =  -233.670187650     A.U. after    7 cycles
 SCF Done:  E(RB3LYP) =  -233.670199428     A.U. after    7 cycles
 SCF Done:  E(RB3LYP) =  -233.670200139     A.U. after    7 cycles
 SCF Done:  E(RB3LYP) =  -233.670187122     A.U. after    7 cycles
 SCF Done:  E(RB3LYP) =  -233.670187972     A.U. after    7 cycles
 SCF Done:  E(RB3LYP) =  -233.670199459     A.U. after    8 cycles
 SCF Done:  E(RB3LYP) =  -233.670200109     A.U. after    7 cycles
 SCF Done:  E(RB3LYP) =  -233.670188774     A.U. after    8 cycles
 SCF Done:  E(RB3LYP) =  -233.670189972     A.U. after    7 cycles
 SCF Done:  E(RB3LYP) =  -233.670199723     A.U. after    8 cycles
 SCF Done:  E(RB3LYP) =  -233.670200191     A.U. after    7 cycles
 SCF Done:  E(RB3LYP) =  -233.670189229     A.U. after    8 cycles
 Optimization completed.
    -- Stationary point found.
 Normal termination of Gaussian 16 at Tue Mar  1 06:03:00 2022.

 --------------------------------------------------------------------
 #P Geom=AllCheck Guess=TCheck SCRF=Check GenChk RB3LYP/6-31G(d) Freq
 --------------------------------------------------------------------

 Structure from the checkpoint file:  "231.n.pdb.xyz.mst.wat.chk"
 -------------
 231.n.pdb.xyz
 -------------
 Charge =  0 Multiplicity = 1

 SCF Done:  E(RB3LYP) =  -233.670189229     A.U. after    1 cycles

  Exact polarizability:  63.474   0.393  59.868  -0.717  -0.793  57.007
 Approx polarizability:  63.060  -0.068  60.445  -0.074  -1.303  60.414

                      1                      2                      3
                      A                      A                      A
 Frequencies --    117.4518               186.2989               213.3318
 Red. masses --      2.4578                 1.1208                 1.0552
 Frc consts  --      0.0200                 0.0229                 0.0283
 IR Inten    --     60.8537               146.4504                 2.0483

                      4                      5                      6
                      A                      A                      A
 Frequencies --    228.6419               261.0811               336.5198
 Red. masses --      1.3807                 1.6666                 2.2419
 Frc consts  --      0.0425                 0.0669                 0.1496
 IR Inten    --      5.6040                 3.8951                 0.7230

                      7                      8                      9
                      A                      A                      A
 Frequencies --    422.6281               485.2671               819.1244
 Red. masses --      1.9057                 3.6222                 2.4724
 Frc consts  --      0.2006                 0.5026                 0.9774
 IR Inten    --      2.2198                13.1716                 5.4404

                     10                     11                     12
                      A                      A                      A
 Frequencies --    923.2378               937.0671               964.5761
 Red. masses --      1.4282                 1.1858                 1.4722
 Frc consts  --      0.7172                 0.6135                 0.8070
 IR Inten    --      6.0508                 2.0051                 2.7584

                     13                     14                     15
                      A                      A                      A
 Frequencies --    976.9371              1070.3909              1132.2657
 Red. masses --      1.5334                 6.1066                 1.6877
 Frc consts  --      0.8623                 4.1223                 1.2748
 IR Inten    --     10.3400               152.6426                12.8101

                     16                     17                     18
                      A                      A                      A
 Frequencies --   1182.7212              1205.5344              1260.1227
 Red. masses --      1.6621                 1.7128                 1.1631
 Frc consts  --      1.3698                 1.4666                 1.0882
 IR Inten    --      8.8461                 1.9527                61.8114

                     19                     20                     21
                      A                      A                      A
 Frequencies --   1283.5636              1349.6898              1384.5469
 Red. masses --      1.2732                 1.4229                 1.3291
 Frc consts  --      1.2359                 1.5272                 1.5011
 IR Inten    --     14.8397                 6.6878                 3.1976

                     22                     23                     24
                      A                      A                      A
 Frequencies --   1413.0564              1435.4659              1471.3142
 Red. masses --      1.3419                 1.2619                 1.4282
 Frc consts  --      1.5786                 1.5321                 1.8216
 IR Inten    --      6.2963                 2.5850                 7.2140

                     25                     26                     27
                      A                      A                      A
 Frequencies --   1504.5295              1510.3022              1521.2745
 Red. masses --      1.0500                 1.0519                 1.0465
 Frc consts  --      1.4003                 1.4137                 1.4270
 IR Inten    --      4.7132                 1.2292                 9.1486

                     28                     29                     30
                      A                      A                      A
 Frequencies --   1529.6248              1543.9309              2990.6591
 Red. masses --      1.0774                 1.0823                 1.0593
 Frc consts  --      1.4853                 1.5200                 5.5821
 IR Inten    --      9.6350                 5.5467                92.2725

                     31                     32                     33
                      A                      A                      A
 Frequencies --   3020.8624              3036.4716              3048.0443
 Red. masses --      1.0923                 1.0929                 1.0382
 Frc consts  --      5.8727                 5.9372                 5.6830
 IR Inten    --     58.7044               120.1364                47.3070

                     34                     35                     36
                      A                      A                      A
 Frequencies --   3053.7193              3110.5170              3115.1801
 Red. masses --      1.0373                 1.1003                 1.1009
 Frc consts  --      5.6991                 6.2721                 6.2944
 IR Inten    --     48.0345                33.0456               112.1151

                     37                     38                     39
                      A                      A                      A
 Frequencies --   3125.8031              3140.3304              3729.1041
 Red. masses --      1.1022                 1.1008                 1.0665
 Frc consts  --      6.3449                 6.3961                 8.7380
 IR Inten    --     63.2038                44.6997                74.4085

 - Thermochemistry -
 -------------------
 Temperature   298.150 Kelvin.  Pressure   1.00000 Atm.
 Atom     1 has atomic number  6 and mass  12.00000

 Molecular mass:    74.07317 amu.
 Principal axes and moments of inertia in atomic units:
                           1         2         3
     Eigenvalues --   237.81800 512.53706 679.60094
           X            0.99992   0.00830  -0.00969
           Y           -0.00832   0.99996  -0.00106
           Z            0.00969   0.00114   0.99995
 This molecule is an asymmetric top.
 Rotational symmetry number  1.
 Rotational temperatures (Kelvin)      0.36420     0.16899     0.12745
 Rotational constants (GHZ):           7.58875     3.52119     2.65559
 Zero-point vibrational energy     359126.1 (Joules/Mol)
                                   85.83319 (Kcal/Mol)
 Warning -- explicit consideration of   8 degrees of freedom as
           vibrations may cause significant error
 Vibrational temperatures:    168.99   268.04   306.94   328.96   375.64
          (Kelvin)            484.18   608.07   698.19  1178.54  1328.33
                             1348.23  1387.81  1405.59  1540.05  1629.08
                             1701.67  1734.50  1813.04  1846.76  1941.90
                             1992.05  2033.07  2065.32  2116.89  2164.68
                             2172.99  2188.77  2200.79  2221.37  4302.89
                             4346.35  4368.81  4385.46  4393.62  4475.34
                             4482.05  4497.33  4518.23  5365.35

 Zero-point correction=                           0.136784 (Hartree/Particle)
 Thermal correction to Energy=                    0.143749
 Thermal correction to Enthalpy=                  0.144693
 Thermal correction to Gibbs Free Energy=         0.106883
 Sum of electronic and zero-point Energies=           -233.533405
 Sum of electronic and thermal Energies=              -233.526441
 Sum of electronic and thermal Enthalpies=            -233.525496
 Sum of electronic and thermal Free Energies=         -233.563306

                     E (Thermal)             CV                S
                      KCal/Mol        Cal/Mol-Kelvin    Cal/Mol-Kelvin
 Total                   90.204             23.950             79.578
 Electronic               0.000              0.000              0.000
 Translational            0.889              2.981             38.823
 Rotational               0.889              2.981             25.919
 Vibrational             88.426             17.988             14.836
 Vibration     1          0.608              1.935              3.142
 Vibration     2          0.632              1.859              2.264
 Vibration     3          0.644              1.821              2.015
 Vibration     4          0.651              1.797              1.890
 Vibration     5          0.669              1.744              1.655
 Vibration     6          0.717              1.603              1.229
 Vibration     7          0.785              1.421              0.883
 Vibration     8          0.841              1.283              0.696

 Optimization completed.
    -- Stationary point found.
 Normal termination of Gaussian 16 at Tue Mar  1 06:05:28 2022.

 ------------------------------------------
 #p b3lyp/6-31G(d) geom=allcheck guess=read
 ------------------------------------------

 Structure from the checkpoint file:  "231.n.pdb.xyz.mst.wat.chk"
 -------------
 231.n.pdb.xyz
 -------------
 Charge =  0 Multiplicity = 1

 SCF Done:  E(RB3LYP) =  -233.662303165     A.U. after   10 cycles
 Normal termination of Gaussian 16 at Tue Mar  1 06:05:45 2022.
 Gaussian 16:  ES64L-G16RevA.03 25-Dec-2016

 ----------------------------------------------------------------------
 #p b3lyp/6-31G(d) scrf=(iefpcm,read,solvent=water) geom=allcheck guess
 =read
 ----------------------------------------------------------------------

 Structure from the checkpoint file:  "231.n.pdb.xyz.mst.wat.chk"
 -------------
 231.n.pdb.xyz
 -------------
 Charge =  0 Multiplicity = 1

                         Standard orientation:
 ---------------------------------------------------------------------
 Center     Atomic      Atomic             Coordinates (Angstroms)
 Number     Number       Type             X           Y           Z
 ---------------------------------------------------------------------
      1          6           0        0.565836    1.460328    0.131034
      2          6           0        0.451577    0.006370   -0.336095
      3          6           0        1.707665   -0.799492    0.008521
      4          6           0       -0.786088   -0.668338    0.249289
      5          8           0       -1.948199    0.038310   -0.181181
      6          1           0       -0.345568    2.015408   -0.104192
      7          1           0        1.410859    1.963734   -0.349235
      8          1           0        0.720106    1.507789    1.216050
      9          1           0        0.328402    0.004024   -1.427965
     10          1           0        1.864925   -0.836824    1.093059
     11          1           0        1.635010   -1.829868   -0.355546
     12          1           0        2.597144   -0.346097   -0.439980
     13          1           0       -0.717099   -0.673922    1.349213
     14          1           0       -0.824467   -1.716434   -0.081711
     15          1           0       -2.717660   -0.387496    0.233251
 ---------------------------------------------------------------------

 SCF Done:  E(RB3LYP) =  -233.670070959     A.U. after   10 cycles

 The electronic state is 1-A.
 Alpha  occ. eigenvalues --  -19.13550 -10.21979 -10.18248 -10.17008 -10.16582
 Alpha  occ. eigenvalues --   -1.00524  -0.79336  -0.67825  -0.66380  -0.55588
 Alpha  occ. eigenvalues --   -0.49977  -0.46537  -0.43309  -0.41405  -0.38391
 Alpha  occ. eigenvalues --   -0.37523  -0.35880  -0.33109  -0.32559  -0.30957
 Alpha  occ. eigenvalues --   -0.26163
 Alpha virt. eigenvalues --    0.09087   0.10197   0.13634   0.15325   0.15997
 Alpha virt. eigenvalues --    0.17102   0.17960   0.18793   0.19383   0.21897
 Alpha virt. eigenvalues --    0.23969   0.24312   0.25956   0.27407   0.51434

 Mulliken charges:
               1
     1  C   -0.449515
     2  C   -0.079668
     3  C   -0.457122
     4  C   -0.016464
     5  O   -0.675304
     6  H    0.150406
     7  H    0.142350
     8  H    0.137944
     9  H    0.128425
    10  H    0.144214
    11  H    0.145866
    12  H    0.148871
    13  H    0.119644
    14  H    0.123152
    15  H    0.437199
 Sum of Mulliken charges =  -0.00000

 Dipole moment (field-independent basis, Debye):
    X=             -0.2664    Y=             -1.5436    Z=              1.1241  Tot=              1.9280
 Quadrupole moment (field-independent basis, Debye-Ang):
   XX=            -29.4639   YY=            -32.9834   ZZ=            -33.0508
   XY=              3.1931   XZ=             -2.9183   YZ=             -0.3330

 Normal termination of Gaussian 16 at Tue Mar  1 06:06:07 2022.
