 Gaussian 16, Revision A.03,

 ----------------------------------------------------------------------
 #p b3lyp/6-31G(d) opt=(MaxStep=10,MaxCycles=1000) freq scf=(MaxCycle=2
 000,NoVarAcc,NoIncFock) scrf=(iefpcm,read,solvent=water)
 ----------------------------------------------------------------------

 -------------
 232.n.pdb.xyz
 -------------
 Symbolic Z-matrix:
 Charge =  0 Multiplicity = 1

 SCF Done:  E(RB3LYP) =  -155.724036113     A.U. after   12 cycles
 SCF Done:  E(RB3LYP) =  -155.751837903     A.U. after   11 cycles
 SCF Done:  E(RB3LYP) =  -155.800146016     A.U. after   11 cycles
 SCF Done:  E(RB3LYP) =  -155.862586638     A.U. after   12 cycles
 SCF Done:  E(RB3LYP) =  -155.906094267     A.U. after   11 cycles
 SCF Done:  E(RB3LYP) =  -155.934092077     A.U. after   11 cycles
 SCF Done:  E(RB3LYP) =  -155.948034261     A.U. after   11 cycles
 SCF Done:  E(RB3LYP) =  -155.965925984     A.U. after   11 cycles
 SCF Done:  E(RB3LYP) =  -155.981493272     A.U. after   10 cycles
 SCF Done:  E(RB3LYP) =  -155.987413421     A.U. after   11 cycles
 SCF Done:  E(RB3LYP) =  -155.989478971     A.U. after   10 cycles
 SCF Done:  E(RB3LYP) =  -155.989521745     A.U. after    9 cycles
 SCF Done:  E(RB3LYP) =  -155.989541736     A.U. after    9 cycles
 SCF Done:  E(RB3LYP) =  -155.989567710     A.U. after   10 cycles
 SCF Done:  E(RB3LYP) =  -155.989566974     A.U. after    8 cycles
 SCF Done:  E(RB3LYP) =  -155.989572855     A.U. after    8 cycles
 SCF Done:  E(RB3LYP) =  -155.989573982     A.U. after    7 cycles
 Optimization completed.
    -- Stationary point found.
 Normal termination of Gaussian 16 at Tue Mar  1 15:34:45 2022.

 --------------------------------------------------------------------
 #P Geom=AllCheck Guess=TCheck SCRF=Check GenChk RB3LYP/6-31G(d) Freq
 --------------------------------------------------------------------

 Structure from the checkpoint file:  "232.n.pdb.xyz.mst.wat.chk"
 -------------
 232.n.pdb.xyz
 -------------
 Charge =  0 Multiplicity = 1

 SCF Done:  E(RB3LYP) =  -155.989573982     A.U. after    1 cycles

  Exact polarizability:  80.793  -0.001  62.787  -0.456   0.000  21.082
 Approx polarizability:  87.365  -0.001  70.334   1.038   0.000  24.172

                      1                      2                      3
                      A                      A                      A
 Frequencies --     25.9484               218.4741               491.1373
 Red. masses --      1.6841                 1.9361                 1.3440
 Frc consts  --      0.0007                 0.0544                 0.1910
 IR Inten    --      0.2073                 0.2200                17.2044

                      4                      5                      6
                      A                      A                      A
 Frequencies --    607.4051               754.1793               877.6035
 Red. masses --      1.7332                 1.6486                 1.9795
 Frc consts  --      0.3767                 0.5525                 0.8983
 IR Inten    --      8.6278                 2.9653                 1.4451

                      7                      8                      9
                      A                      A                      A
 Frequencies --    934.6572               939.0633              1038.1469
 Red. masses --      1.4319                 1.3737                 1.1221
 Frc consts  --      0.7370                 0.7137                 0.7125
 IR Inten    --     12.9485                92.0979                 1.9261

                     10                     11                     12
                      A                      A                      A
 Frequencies --   1044.4804              1055.1663              1109.4886
 Red. masses --      1.0879                 1.5880                 1.5799
 Frc consts  --      0.6993                 1.0417                 1.1458
 IR Inten    --     42.1190                 0.1285                16.5803

                     13                     14                     15
                      A                      A                      A
 Frequencies --   1317.7158              1337.1568              1453.2189
 Red. masses --      1.2758                 1.2452                 1.1574
 Frc consts  --      1.3052                 1.3117                 1.4401
 IR Inten    --      0.0815                 0.0017                 3.9412

                     16                     17                     18
                      A                      A                      A
 Frequencies --   1464.0512              1683.9071              1714.1394
 Red. masses --      1.2845                 5.3283                 3.7462
 Frc consts  --      1.6221                 8.9017                 6.4854
 IR Inten    --     11.4870                 1.9150                 4.2000

                     19                     20                     21
                      A                      A                      A
 Frequencies --   3165.0065              3168.9277              3171.8364
 Red. masses --      1.0796                 1.0602                 1.0681
 Frc consts  --      6.3716                 6.2730                 6.3315
 IR Inten    --      9.0096                37.0949                13.7459

                     22                     23                     24
                      A                      A                      A
 Frequencies --   3181.5220              3254.0720              3254.6956
 Red. masses --      1.0909                 1.1159                 1.1160
 Frc consts  --      6.5061                 6.9617                 6.9649
 IR Inten    --      6.2087                33.8267                13.2081

 - Thermochemistry -
 -------------------
 Temperature   298.150 Kelvin.  Pressure   1.00000 Atm.
 Atom     1 has atomic number  6 and mass  12.00000

 Molecular mass:    54.04695 amu.
 Principal axes and moments of inertia in atomic units:
                           1         2         3
     Eigenvalues --    84.69189 319.24543 398.38658
           X            0.99999   0.00000  -0.00514
           Y           -0.00000   1.00000  -0.00000
           Z            0.00514   0.00000   0.99999
 This molecule is an asymmetric top.
 Rotational symmetry number  1.
 Rotational temperatures (Kelvin)      1.02269     0.27131     0.21741
 Rotational constants (GHZ):          21.30949     5.65315     4.53013
 Zero-point vibrational energy     222876.3 (Joules/Mol)
                                   53.26870 (Kcal/Mol)
 Warning -- explicit consideration of   4 degrees of freedom as
           vibrations may cause significant error
 Vibrational temperatures:     37.33   314.34   706.64   873.92  1085.10
          (Kelvin)           1262.68  1344.76  1351.10  1493.66  1502.77
                             1518.15  1596.31  1895.90  1923.87  2090.86
                             2106.44  2422.77  2466.26  4553.74  4559.38
                             4563.57  4577.50  4681.88  4682.78

 Zero-point correction=                           0.084889 (Hartree/Particle)
 Thermal correction to Energy=                    0.089925
 Thermal correction to Enthalpy=                  0.090869
 Thermal correction to Gibbs Free Energy=         0.056658
 Sum of electronic and zero-point Energies=           -155.904685
 Sum of electronic and thermal Energies=              -155.899649
 Sum of electronic and thermal Enthalpies=            -155.898705
 Sum of electronic and thermal Free Energies=         -155.932916

                     E (Thermal)             CV                S
                      KCal/Mol        Cal/Mol-Kelvin    Cal/Mol-Kelvin
 Total                   56.429             15.987             72.004
 Electronic               0.000              0.000              0.000
 Translational            0.889              2.981             37.884
 Rotational               0.889              2.981             23.892
 Vibrational             54.651             10.026             10.229
 Vibration     1          0.593              1.985              6.117
 Vibration     2          0.646              1.813              1.972
 Vibration     3          0.847              1.270              0.681
 Vibration     4          0.966              1.016              0.437

                           ! Non-Optimized Parameters !
 Normal termination of Gaussian 16 at Tue Mar  1 15:35:33 2022.

 ------------------------------------------
 #p b3lyp/6-31G(d) geom=allcheck guess=read
 ------------------------------------------

 Structure from the checkpoint file:  "232.n.pdb.xyz.mst.wat.chk"
 -------------
 232.n.pdb.xyz
 -------------
 Charge =  0 Multiplicity = 1

 SCF Done:  E(RB3LYP) =  -155.986423161     A.U. after    9 cycles
 Normal termination of Gaussian 16 at Tue Mar  1 15:35:40 2022.
 Gaussian 16:  ES64L-G16RevA.03 25-Dec-2016

 ----------------------------------------------------------------------
 #p b3lyp/6-31G(d) scrf=(iefpcm,read,solvent=water) geom=allcheck guess
 =read
 ----------------------------------------------------------------------

 Structure from the checkpoint file:  "232.n.pdb.xyz.mst.wat.chk"
 -------------
 232.n.pdb.xyz
 -------------
 Charge =  0 Multiplicity = 1

                         Standard orientation:
 ---------------------------------------------------------------------
 Center     Atomic      Atomic             Coordinates (Angstroms)
 Number     Number       Type             X           Y           Z
 ---------------------------------------------------------------------
      1          6           0       -1.536388   -0.499074   -0.065151
      2          6           0       -0.730453    0.561142    0.085163
      3          6           0        0.730401    0.561115   -0.085160
      4          6           0        1.536407   -0.499062    0.065148
      5          1           0       -2.606796   -0.423014    0.094558
      6          1           0       -1.154370   -1.473193   -0.357985
      7          1           0       -1.173834    1.523784    0.335719
      8          1           0        1.173792    1.523628   -0.335720
      9          1           0        2.606929   -0.422757   -0.094622
     10          1           0        1.154476   -1.473167    0.358052
 ---------------------------------------------------------------------

 SCF Done:  E(RB3LYP) =  -155.988615551     A.U. after    8 cycles

 The electronic state is 1-A.
 Alpha  occ. eigenvalues --  -10.19420 -10.19388 -10.18407 -10.18406  -0.80231
 Alpha  occ. eigenvalues --   -0.72645  -0.61815  -0.52846  -0.48850  -0.43557
 Alpha  occ. eigenvalues --   -0.42070  -0.36610  -0.34765  -0.31417  -0.23475
 Alpha virt. eigenvalues --   -0.02903   0.07871   0.11112   0.12582   0.15543
 Alpha virt. eigenvalues --    0.18600   0.19590   0.21557   0.31188   0.34022
 Alpha virt. eigenvalues --    0.41176   0.47355   0.52829   0.53392   0.57556

 Mulliken charges:
               1
     1  C   -0.359298
     2  C   -0.104125
     3  C   -0.104144
     4  C   -0.359211
     5  H    0.158983
     6  H    0.155503
     7  H    0.148923
     8  H    0.148918
     9  H    0.158958
    10  H    0.155492
 Sum of Mulliken charges =   0.00000

 Dipole moment (field-independent basis, Debye):
    X=              0.0002    Y=              0.1509    Z=              0.0001  Tot=              0.1509
 Quadrupole moment (field-independent basis, Debye-Ang):
   XX=            -22.4483   YY=            -22.2800   ZZ=            -27.6284
   XY=              0.0002   XZ=             -0.6389   YZ=             -0.0001

 Normal termination of Gaussian 16 at Tue Mar  1 15:35:48 2022.
