 Gaussian 16, Revision A.03,

 ----------------------------------------------------------------------
 #p b3lyp/6-31G(d) opt=(MaxStep=10,MaxCycles=1000) freq scf=(MaxCycle=2
 000,NoVarAcc,NoIncFock) scrf=(iefpcm,read,solvent=water)
 ----------------------------------------------------------------------

 -------------
 235.n.pdb.xyz
 -------------
 Symbolic Z-matrix:
 Charge =  0 Multiplicity = 1

 SCF Done:  E(RB3LYP) =  -573.041733859     A.U. after   13 cycles
 SCF Done:  E(RB3LYP) =  -573.044796831     A.U. after   10 cycles
 SCF Done:  E(RB3LYP) =  -573.044493782     A.U. after   11 cycles
 SCF Done:  E(RB3LYP) =  -573.045672937     A.U. after   10 cycles
 SCF Done:  E(RB3LYP) =  -573.045736448     A.U. after   10 cycles
 SCF Done:  E(RB3LYP) =  -573.045837545     A.U. after    9 cycles
 SCF Done:  E(RB3LYP) =  -573.045863297     A.U. after    9 cycles
 SCF Done:  E(RB3LYP) =  -573.045869460     A.U. after    9 cycles
 SCF Done:  E(RB3LYP) =  -573.045869181     A.U. after    7 cycles
 SCF Done:  E(RB3LYP) =  -573.045868943     A.U. after    7 cycles
 SCF Done:  E(RB3LYP) =  -573.045869212     A.U. after    7 cycles
 SCF Done:  E(RB3LYP) =  -573.045868939     A.U. after    7 cycles
 Optimization completed on the basis of negligible forces.
    -- Stationary point found.
 Normal termination of Gaussian 16 at Tue Mar  1 21:25:46 2022.

 --------------------------------------------------------------------
 #P Geom=AllCheck Guess=TCheck SCRF=Check GenChk RB3LYP/6-31G(d) Freq
 --------------------------------------------------------------------

 Structure from the checkpoint file:  "235.n.pdb.xyz.mst.wat.chk"
 -------------
 235.n.pdb.xyz
 -------------
 Charge =  0 Multiplicity = 1

 SCF Done:  E(RB3LYP) =  -573.045868939     A.U. after    1 cycles

  Exact polarizability: 196.200   9.359 112.506  -5.316  15.041 144.138
 Approx polarizability: 216.886   6.020 121.550 -10.473  21.625 171.157

                      1                      2                      3
                      A                      A                      A
 Frequencies --     45.1102                68.3173                92.1834
 Red. masses --      4.5334                 4.8225                 3.7222
 Frc consts  --      0.0054                 0.0133                 0.0186
 IR Inten    --      6.7287                 7.3597                 0.4556

                      4                      5                      6
                      A                      A                      A
 Frequencies --    151.8844               157.5058               183.3485
 Red. masses --      1.2767                 1.8610                 2.3980
 Frc consts  --      0.0174                 0.0272                 0.0475
 IR Inten    --      1.9546                 5.0584                 1.8352

                      7                      8                      9
                      A                      A                      A
 Frequencies --    246.7650               261.0846               306.0739
 Red. masses --      4.0365                 3.4642                 4.7209
 Frc consts  --      0.1448                 0.1391                 0.2606
 IR Inten    --     12.8052                 0.2959                 5.3149

                     10                     11                     12
                      A                      A                      A
 Frequencies --    350.1861               413.3939               470.1117
 Red. masses --      4.1703                 3.2409                 4.7505
 Frc consts  --      0.3013                 0.3263                 0.6186
 IR Inten    --     12.9639                 5.0517                 9.2065

                     13                     14                     15
                      A                      A                      A
 Frequencies --    557.7770               564.9805               609.4220
 Red. masses --      2.5264                 3.5035                 3.6181
 Frc consts  --      0.4631                 0.6589                 0.7917
 IR Inten    --      8.0033                10.2675                 4.2046

                     16                     17                     18
                      A                      A                      A
 Frequencies --    622.3769               654.8897               689.8415
 Red. masses --      6.9959                 5.7061                 5.3973
 Frc consts  --      1.5966                 1.4419                 1.5133
 IR Inten    --      4.5950                19.0431                 8.8643

                     19                     20                     21
                      A                      A                      A
 Frequencies --    733.1036               758.9893               826.7814
 Red. masses --      2.1762                 2.8457                 1.8029
 Frc consts  --      0.6891                 0.9659                 0.7261
 IR Inten    --     31.2963                 5.8466                22.5408

                     22                     23                     24
                      A                      A                      A
 Frequencies --    848.5315               893.0409               952.4275
 Red. masses --      1.9317                 3.0215                 1.5903
 Frc consts  --      0.8194                 1.4198                 0.8499
 IR Inten    --     22.3756                 2.5522                 4.6917

                     25                     26                     27
                      A                      A                      A
 Frequencies --    962.5944               980.9150              1000.7018
 Red. masses --      1.6694                 1.5217                 2.1036
 Frc consts  --      0.9114                 0.8626                 1.2411
 IR Inten    --     13.4468                13.5118                13.8888

                     28                     29                     30
                      A                      A                      A
 Frequencies --   1011.0414              1030.4004              1042.4378
 Red. masses --      1.3618                 2.5589                 4.5030
 Frc consts  --      0.8201                 1.6007                 2.8831
 IR Inten    --      0.1796                16.5485                15.3764

                     31                     32                     33
                      A                      A                      A
 Frequencies --   1066.3638              1074.2024              1138.9919
 Red. masses --      2.3630                 2.3840                 2.0629
 Frc consts  --      1.5832                 1.6208                 1.5768
 IR Inten    --      1.2381                 3.3571                89.4317

                     34                     35                     36
                      A                      A                      A
 Frequencies --   1141.7675              1161.1494              1173.4402
 Red. masses --      1.5736                 1.3418                 1.3530
 Frc consts  --      1.2086                 1.0659                 1.0977
 IR Inten    --     43.9459                 1.4050                25.8125

                     37                     38                     39
                      A                      A                      A
 Frequencies --   1223.0045              1242.4638              1254.1800
 Red. masses --      1.6762                 1.5026                 1.8390
 Frc consts  --      1.4772                 1.3666                 1.7043
 IR Inten    --      6.3828                 7.6489                 5.8005

                     40                     41                     42
                      A                      A                      A
 Frequencies --   1286.6647              1301.3696              1315.5250
 Red. masses --      2.7937                 2.7372                 2.1916
 Frc consts  --      2.7249                 2.7312                 2.2346
 IR Inten    --     44.4568                 4.7746                45.8588

                     43                     44                     45
                      A                      A                      A
 Frequencies --   1322.3107              1351.3711              1363.2429
 Red. masses --      1.4318                 1.4893                 1.4756
 Frc consts  --      1.4750                 1.6025                 1.6158
 IR Inten    --     14.0717                70.5337                15.6453

                     46                     47                     48
                      A                      A                      A
 Frequencies --   1411.1681              1435.1274              1461.8447
 Red. masses --      1.3398                 2.2724                 1.4008
 Frc consts  --      1.5720                 2.7575                 1.7637
 IR Inten    --     50.7157               196.7091                52.5621

                     49                     50                     51
                      A                      A                      A
 Frequencies --   1481.8140              1486.3456              1511.6042
 Red. masses --      1.9034                 1.1506                 1.0429
 Frc consts  --      2.4624                 1.4977                 1.4041
 IR Inten    --     46.4641                 3.8616                12.0909

                     52                     53                     54
                      A                      A                      A
 Frequencies --   1516.3710              1527.9386              1535.0392
 Red. masses --      1.1042                 2.0690                 1.1824
 Frc consts  --      1.4959                 2.8459                 1.6415
 IR Inten    --      4.7535                21.8200                22.3743

                     55                     56                     57
                      A                      A                      A
 Frequencies --   1636.1669              1651.2172              1750.5156
 Red. masses --      5.0257                 5.6086                10.3540
 Frc consts  --      7.9269                 9.0098                18.6935
 IR Inten    --     33.8595                20.0115               759.5177

                     58                     59                     60
                      A                      A                      A
 Frequencies --   3026.7473              3059.2747              3081.0192
 Red. masses --      1.0839                 1.0413                 1.0670
 Frc consts  --      5.8504                 5.7423                 5.9677
 IR Inten    --     75.0011                70.1343                29.1460

                     61                     62                     63
                      A                      A                      A
 Frequencies --   3096.1805              3127.8642              3139.4174
 Red. masses --      1.0623                 1.0976                 1.0987
 Frc consts  --      6.0001                 6.3270                 6.3802
 IR Inten    --     29.7571                40.3164                16.9037

                     64                     65                     66
                      A                      A                      A
 Frequencies --   3149.1945              3177.3589              3184.7082
 Red. masses --      1.1048                 1.0895                 1.1011
 Frc consts  --      6.4556                 6.4807                 6.5796
 IR Inten    --     41.4693                53.6542                 7.2901

                     67                     68                     69
                      A                      A                      A
 Frequencies --   3192.5845              3212.7486              3235.3814
 Red. masses --      1.0900                 1.0896                 1.0960
 Frc consts  --      6.5457                 6.6265                 6.7593
 IR Inten    --     31.3166                13.3357                24.0233

 - Thermochemistry -
 -------------------
 Temperature   298.150 Kelvin.  Pressure   1.00000 Atm.
 Atom     1 has atomic number  6 and mass  12.00000

 Molecular mass:   176.09496 amu.
 Principal axes and moments of inertia in atomic units:
                           1         2         3
     Eigenvalues --   954.311633799.770314020.98541
           X            0.99988   0.01228   0.00911
           Y           -0.01204   0.99958  -0.02623
           Z           -0.00943   0.02612   0.99961
 This molecule is an asymmetric top.
 Rotational symmetry number  1.
 Warning -- assumption of classical behavior for rotation
           may cause significant error
 Rotational temperatures (Kelvin)      0.09076     0.02279     0.02154
 Rotational constants (GHZ):           1.89114     0.47496     0.44883
 Zero-point vibrational energy     550221.8 (Joules/Mol)
                                  131.50616 (Kcal/Mol)
 Warning -- explicit consideration of  15 degrees of freedom as
           vibrations may cause significant error
 Vibrational temperatures:     64.90    98.29   132.63   218.53   226.62
          (Kelvin)            263.80   355.04   375.64   440.37   503.84
                              594.78   676.39   802.52   812.88   876.82
                              895.46   942.24   992.53  1054.77  1092.02
                             1189.55  1220.85  1284.89  1370.33  1384.96
                             1411.32  1439.79  1454.66  1482.52  1499.84
                             1534.26  1545.54  1638.76  1642.75  1670.64
                             1688.32  1759.63  1787.63  1804.49  1851.22
                             1872.38  1892.75  1902.51  1944.32  1961.40
                             2030.36  2064.83  2103.27  2132.00  2138.52
                             2174.86  2181.72  2198.36  2208.58  2354.08
                             2375.73  2518.60  4354.81  4401.61  4432.90
                             4454.71  4500.30  4516.92  4530.99  4571.51
                             4582.08  4593.42  4622.43  4654.99

 Zero-point correction=                           0.209568 (Hartree/Particle)
 Thermal correction to Energy=                    0.220789
 Thermal correction to Enthalpy=                  0.221733
 Thermal correction to Gibbs Free Energy=         0.171650
 Sum of electronic and zero-point Energies=           -572.836301
 Sum of electronic and thermal Energies=              -572.825080
 Sum of electronic and thermal Enthalpies=            -572.824136
 Sum of electronic and thermal Free Energies=         -572.874219

                     E (Thermal)             CV                S
                      KCal/Mol        Cal/Mol-Kelvin    Cal/Mol-Kelvin
 Total                  138.547             42.638            105.407
 Electronic               0.000              0.000              0.000
 Translational            0.889              2.981             41.405
 Rotational               0.889              2.981             31.056
 Vibrational            136.769             36.676             32.946
 Vibration     1          0.595              1.979              5.021
 Vibration     2          0.598              1.969              4.201
 Vibration     3          0.602              1.955              3.613
 Vibration     4          0.619              1.901              2.648
 Vibration     5          0.621              1.894              2.580
 Vibration     6          0.631              1.862              2.294
 Vibration     7          0.661              1.768              1.754
 Vibration     8          0.669              1.744              1.655
 Vibration     9          0.696              1.662              1.383
 Vibration    10          0.727              1.575              1.165
 Vibration    11          0.777              1.441              0.915
 Vibration    12          0.827              1.316              0.737
 Vibration    13          0.913              1.123              0.528
 Vibration    14          0.921              1.107              0.514
 Vibration    15          0.968              1.012              0.434

 Optimization completed.
    -- Stationary point found.
 Normal termination of Gaussian 16 at Tue Mar  1 21:41:44 2022.

 ------------------------------------------
 #p b3lyp/6-31G(d) geom=allcheck guess=read
 ------------------------------------------

 Structure from the checkpoint file:  "235.n.pdb.xyz.mst.wat.chk"
 -------------
 235.n.pdb.xyz
 -------------
 Charge =  0 Multiplicity = 1

 SCF Done:  E(RB3LYP) =  -573.032619580     A.U. after   12 cycles
 Normal termination of Gaussian 16 at Tue Mar  1 21:43:18 2022.
 Gaussian 16:  ES64L-G16RevA.03 25-Dec-2016

 ----------------------------------------------------------------------
 #p b3lyp/6-31G(d) scrf=(iefpcm,read,solvent=water) geom=allcheck guess
 =read
 ----------------------------------------------------------------------

 Structure from the checkpoint file:  "235.n.pdb.xyz.mst.wat.chk"
 -------------
 235.n.pdb.xyz
 -------------
 Charge =  0 Multiplicity = 1

                         Standard orientation:
 ---------------------------------------------------------------------
 Center     Atomic      Atomic             Coordinates (Angstroms)
 Number     Number       Type             X           Y           Z
 ---------------------------------------------------------------------
      1          6           0       -1.176613    1.929915   -0.697642
      2          7           0       -1.386066    0.564541   -0.257405
      3          6           0       -0.455107   -0.517755   -0.596046
      4          6           0       -1.065112   -1.733460    0.150548
      5          6           0       -2.552276   -1.389851    0.286760
      6          6           0       -2.600379    0.127337    0.184425
      7          8           0       -3.570104    0.847692    0.423480
      8          6           0        0.976541   -0.222032   -0.208972
      9          6           0        1.335134    0.222833    1.068084
     10          6           0        2.678656    0.441436    1.356947
     11          6           0        3.624621    0.202815    0.359056
     12          7           0        3.305983   -0.220417   -0.872038
     13          6           0        2.005850   -0.417174   -1.132993
     14          1           0       -0.281151    2.356446   -0.239759
     15          1           0       -1.069112    1.975834   -1.787532
     16          1           0       -2.049896    2.507828   -0.396493
     17          1           0       -0.481126   -0.687198   -1.681445
     18          1           0       -0.604751   -1.814851    1.138383
     19          1           0       -0.874110   -2.664154   -0.387567
     20          1           0       -3.006963   -1.731487    1.218463
     21          1           0       -3.147869   -1.795403   -0.538312
     22          1           0        0.573160    0.400314    1.820197
     23          1           0        2.991697    0.789105    2.334627
     24          1           0        4.681957    0.361479    0.555777
     25          1           0        1.761681   -0.752703   -2.139081
 ---------------------------------------------------------------------

 SCF Done:  E(RB3LYP) =  -573.045173267     A.U. after   11 cycles

 The electronic state is 1-A.
 Alpha  occ. eigenvalues --  -19.11710 -14.36693 -14.33947 -10.28601 -10.23833
 Alpha  occ. eigenvalues --  -10.22712 -10.22704 -10.21218 -10.21070 -10.20855
 Alpha  occ. eigenvalues --  -10.20188 -10.19454 -10.19210  -1.03408  -0.95207
 Alpha  occ. eigenvalues --   -0.94354  -0.81972  -0.79878  -0.77553  -0.71044
 Alpha  occ. eigenvalues --   -0.69623  -0.63772  -0.63010  -0.60176  -0.53983
 Alpha  occ. eigenvalues --   -0.52859  -0.51456  -0.48708  -0.47646  -0.45672
 Alpha  occ. eigenvalues --   -0.44761  -0.43938  -0.42080  -0.41207  -0.40709
 Alpha  occ. eigenvalues --   -0.39902  -0.39328  -0.38470  -0.37695  -0.37240
 Alpha  occ. eigenvalues --   -0.35853  -0.33480  -0.28950  -0.26870  -0.26311
 Alpha  occ. eigenvalues --   -0.25610  -0.24413
 Alpha virt. eigenvalues --   -0.03299  -0.01574   0.02466   0.09358   0.10804
 Alpha virt. eigenvalues --    0.11190   0.12602   0.13075   0.14910   0.15435
 Alpha virt. eigenvalues --    0.16070   0.16546   0.17366   0.17832   0.18746

 Mulliken charges:
               1
     1  C   -0.325918
     2  N   -0.413962
     3  C   -0.033541
     4  C   -0.301512
     5  C   -0.375868
     6  C    0.596525
     7  O   -0.598141
     8  C    0.144776
     9  C   -0.146403
    10  C   -0.149978
    11  C    0.034524
    12  N   -0.472341
    13  C   -0.020089
    14  H    0.173680
    15  H    0.171310
    16  H    0.182134
    17  H    0.164739
    18  H    0.169871
    19  H    0.171583
    20  H    0.180890
    21  H    0.188064
    22  H    0.170872
    23  H    0.166025
    24  H    0.162396
    25  H    0.160365
 Sum of Mulliken charges =  -0.00000

 Dipole moment (field-independent basis, Debye):
    X=              2.0984    Y=             -1.6620    Z=              0.5889  Tot=              2.7409
 Quadrupole moment (field-independent basis, Debye-Ang):
   XX=           -101.1300   YY=            -72.9292   ZZ=            -71.0663
   XY=             11.2471   XZ=             12.2566   YZ=             -0.1610

 Normal termination of Gaussian 16 at Tue Mar  1 21:44:58 2022.
