 Gaussian 16, Revision A.03,

 ----------------------------------------------------------------------
 #p b3lyp/6-31G(d) opt=(MaxStep=10,MaxCycles=1000) freq scf=(MaxCycle=2
 000,NoVarAcc,NoIncFock) scrf=(iefpcm,read,solvent=water)
 ----------------------------------------------------------------------

 -------------
 236.n.pdb.xyz
 -------------
 Symbolic Z-matrix:
 Charge =  0 Multiplicity = 1

 SCF Done:  E(RB3LYP) =  -608.017208663     A.U. after   13 cycles
 SCF Done:  E(RB3LYP) =  -608.020077493     A.U. after   11 cycles
 SCF Done:  E(RB3LYP) =  -608.018275059     A.U. after   11 cycles
 SCF Done:  E(RB3LYP) =  -608.020727880     A.U. after   11 cycles
 SCF Done:  E(RB3LYP) =  -608.021007935     A.U. after   11 cycles
 SCF Done:  E(RB3LYP) =  -608.021192724     A.U. after   10 cycles
 SCF Done:  E(RB3LYP) =  -608.021353422     A.U. after   10 cycles
 SCF Done:  E(RB3LYP) =  -608.021681475     A.U. after   11 cycles
 SCF Done:  E(RB3LYP) =  -607.974825593     A.U. after   12 cycles
 SCF Done:  E(RB3LYP) =  -608.022481884     A.U. after   12 cycles
 SCF Done:  E(RB3LYP) =  -608.023464115     A.U. after   11 cycles
 SCF Done:  E(RB3LYP) =  -608.023446784     A.U. after   10 cycles
 SCF Done:  E(RB3LYP) =  -608.023496239     A.U. after    9 cycles
 SCF Done:  E(RB3LYP) =  -608.023495760     A.U. after    8 cycles
 SCF Done:  E(RB3LYP) =  -608.023498873     A.U. after    8 cycles
 SCF Done:  E(RB3LYP) =  -608.023497182     A.U. after    8 cycles
 SCF Done:  E(RB3LYP) =  -608.023498751     A.U. after    7 cycles
 Optimization completed.
    -- Stationary point found.
 Normal termination of Gaussian 16 at Wed Mar  2 00:36:02 2022.

 --------------------------------------------------------------------
 #P Geom=AllCheck Guess=TCheck SCRF=Check GenChk RB3LYP/6-31G(d) Freq
 --------------------------------------------------------------------

 Structure from the checkpoint file:  "236.n.pdb.xyz.mst.wat.chk"
 -------------
 236.n.pdb.xyz
 -------------
 Charge =  0 Multiplicity = 1

 SCF Done:  E(RB3LYP) =  -608.023498751     A.U. after    1 cycles

  Exact polarizability: 144.835   3.739 125.968  10.054  -1.903  87.644
 Approx polarizability: 160.629   4.945 146.300  15.269  -3.563  96.776

                      1                      2                      3
                      A                      A                      A
 Frequencies --     46.2826                85.7505               137.0776
 Red. masses --      5.3467                 1.9976                 6.4377
 Frc consts  --      0.0067                 0.0087                 0.0713
 IR Inten    --      2.0676                 0.7592                 0.4639

                      4                      5                      6
                      A                      A                      A
 Frequencies --    147.4581               177.9929               192.6032
 Red. masses --     10.8906                 3.2565                 1.0707
 Frc consts  --      0.1395                 0.0608                 0.0234
 IR Inten    --     12.1225                 1.1832                 0.4403

                      7                      8                      9
                      A                      A                      A
 Frequencies --    236.4670               269.4495               297.1588
 Red. masses --      1.6847                 2.7241                 2.9468
 Frc consts  --      0.0555                 0.1165                 0.1533
 IR Inten    --      2.4081                 2.5351                12.9768

                     10                     11                     12
                      A                      A                      A
 Frequencies --    303.2693               345.0609               389.0298
 Red. masses --      2.0513                 3.8813                10.7968
 Frc consts  --      0.1112                 0.2723                 0.9627
 IR Inten    --      2.0948                19.1061                61.4990

                     13                     14                     15
                      A                      A                      A
 Frequencies --    412.6725               485.9860               504.1941
 Red. masses --      8.7523                 3.9958                 9.2811
 Frc consts  --      0.8782                 0.5560                 1.3901
 IR Inten    --      3.9449                47.6247                24.0211

                     16                     17                     18
                      A                      A                      A
 Frequencies --    623.2313               643.6678               680.7651
 Red. masses --      7.9164                 1.1888                 2.8720
 Frc consts  --      1.8117                 0.2902                 0.7842
 IR Inten    --      4.9425                20.0455                50.6465

                     19                     20                     21
                      A                      A                      A
 Frequencies --    685.9692               731.6952               749.7904
 Red. masses --      1.3406                 4.0955                 5.9111
 Frc consts  --      0.3717                 1.2919                 1.9579
 IR Inten    --    195.8289                85.9849                68.6228

                     22                     23                     24
                      A                      A                      A
 Frequencies --    753.2581               756.9856               795.0373
 Red. masses --      6.3114                 5.8954                 1.3345
 Frc consts  --      2.1099                 1.9904                 0.4970
 IR Inten    --     11.2373                11.1826                 7.6943

                     25                     26                     27
                      A                      A                      A
 Frequencies --    898.8044               914.1243              1020.2934
 Red. masses --      1.8886                 2.5068                 1.8958
 Frc consts  --      0.8989                 1.2342                 1.1628
 IR Inten    --      2.7611                 9.8445                17.1404

                     28                     29                     30
                      A                      A                      A
 Frequencies --   1037.3781              1054.2458              1084.4543
 Red. masses --      2.5268                 1.9795                 1.9234
 Frc consts  --      1.6021                 1.2963                 1.3327
 IR Inten    --      2.7306                 5.1664                 4.5083

                     31                     32                     33
                      A                      A                      A
 Frequencies --   1152.0934              1180.2262              1201.9457
 Red. masses --      2.5384                 2.8231                 2.4076
 Frc consts  --      1.9851                 2.3169                 2.0493
 IR Inten    --      5.3895                32.9848                60.6824

                     34                     35                     36
                      A                      A                      A
 Frequencies --   1263.5409              1327.5028              1375.7269
 Red. masses --      3.0791                 1.6065                 2.5640
 Frc consts  --      2.8963                 1.6680                 2.8591
 IR Inten    --    159.8109               215.9856               398.0750

                     37                     38                     39
                      A                      A                      A
 Frequencies --   1382.8045              1415.7944              1418.1968
 Red. masses --      1.3036                 1.2925                 2.9322
 Frc consts  --      1.4687                 1.5264                 3.4747
 IR Inten    --     18.2638                57.3917               235.4140

                     40                     41                     42
                      A                      A                      A
 Frequencies --   1432.3153              1440.6790              1469.7577
 Red. masses --      1.2369                 2.1965                 2.3075
 Frc consts  --      1.4951                 2.6861                 2.9368
 IR Inten    --     13.2700               286.9598               157.0505

                     43                     44                     45
                      A                      A                      A
 Frequencies --   1505.8417              1507.4298              1512.5418
 Red. masses --      1.0525                 1.0593                 1.0518
 Frc consts  --      1.4061                 1.4182                 1.4178
 IR Inten    --     16.0292                 1.1862                16.1150

                     46                     47                     48
                      A                      A                      A
 Frequencies --   1527.7791              1534.0515              1752.9689
 Red. masses --      1.0709                 1.0526                 9.8504
 Frc consts  --      1.4728                 1.4594                17.8342
 IR Inten    --     18.7748                 1.1432               738.3295

                     49                     50                     51
                      A                      A                      A
 Frequencies --   1768.1638              1814.4806              3074.3574
 Red. masses --      6.9107                12.1015                 1.0494
 Frc consts  --     12.7296                23.4743                 5.8439
 IR Inten    --   1390.4048               158.6399                35.9206

                     52                     53                     54
                      A                      A                      A
 Frequencies --   3076.2041              3092.8601              3115.8678
 Red. masses --      1.0463                 1.0383                 1.1047
 Frc consts  --      5.8337                 5.8518                 6.3191
 IR Inten    --     27.6603                22.3686                15.9738

                     55                     56                     57
                      A                      A                      A
 Frequencies --   3140.2285              3158.6679              3164.7259
 Red. masses --      1.1015                 1.1031                 1.1004
 Frc consts  --      6.3997                 6.4844                 6.4931
 IR Inten    --     50.1480                40.0870                30.6536

                     58                     59                     60
                      A                      A                      A
 Frequencies --   3194.2550              3560.0630              3566.6928
 Red. masses --      1.1027                 1.0779                 1.0792
 Frc consts  --      6.6287                 8.0488                 8.0887
 IR Inten    --     13.6015               210.9906               153.3856

 - Thermochemistry -
 -------------------
 Temperature   298.150 Kelvin.  Pressure   1.00000 Atm.
 Atom     1 has atomic number  6 and mass  12.00000

 Molecular mass:   170.06914 amu.
 Principal axes and moments of inertia in atomic units:
                           1         2         3
     Eigenvalues --  1352.998242124.031802782.93538
           X            0.99988  -0.00467  -0.01465
           Y            0.00497   0.99978   0.02051
           Z            0.01455  -0.02058   0.99968
 This molecule is an asymmetric top.
 Rotational symmetry number  1.
 Warning -- assumption of classical behavior for rotation
           may cause significant error
 Rotational temperatures (Kelvin)      0.06402     0.04078     0.03112
 Rotational constants (GHZ):           1.33388     0.84968     0.64850
 Zero-point vibrational energy     464078.8 (Joules/Mol)
                                  110.91750 (Kcal/Mol)
 Warning -- explicit consideration of  15 degrees of freedom as
           vibrations may cause significant error
 Vibrational temperatures:     66.59   123.38   197.22   212.16   256.09
          (Kelvin)            277.11   340.22   387.68   427.55   436.34
                              496.47   559.73   593.74   699.23   725.42
                              896.69   926.09   979.47   986.96  1052.75
                             1078.78  1083.77  1089.13  1143.88  1293.18
                             1315.22  1467.97  1492.56  1516.82  1560.29
                             1657.61  1698.08  1729.33  1817.95  1909.98
                             1979.36  1989.55  2037.01  2040.47  2060.78
                             2072.82  2114.65  2166.57  2168.86  2176.21
                             2198.13  2207.16  2522.13  2543.99  2610.63
                             4423.31  4425.97  4449.94  4483.04  4518.09
                             4544.62  4553.33  4595.82  5122.14  5131.68

 Zero-point correction=                           0.176758 (Hartree/Particle)
 Thermal correction to Energy=                    0.188288
 Thermal correction to Enthalpy=                  0.189233
 Thermal correction to Gibbs Free Energy=         0.139378
 Sum of electronic and zero-point Energies=           -607.846740
 Sum of electronic and thermal Energies=              -607.835210
 Sum of electronic and thermal Enthalpies=            -607.834266
 Sum of electronic and thermal Free Energies=         -607.884120

                     E (Thermal)             CV                S
                      KCal/Mol        Cal/Mol-Kelvin    Cal/Mol-Kelvin
 Total                  118.153             42.999            104.927
 Electronic               0.000              0.000              0.000
 Translational            0.889              2.981             41.301
 Rotational               0.889              2.981             30.459
 Vibrational            116.375             37.037             33.167
 Vibration     1          0.595              1.979              4.970
 Vibration     2          0.601              1.959              3.755
 Vibration     3          0.614              1.916              2.844
 Vibration     4          0.617              1.905              2.705
 Vibration     5          0.628              1.869              2.349
 Vibration     6          0.635              1.850              2.203
 Vibration     7          0.655              1.785              1.829
 Vibration     8          0.674              1.729              1.600
 Vibration     9          0.691              1.679              1.433
 Vibration    10          0.695              1.668              1.399
 Vibration    11          0.723              1.585              1.189
 Vibration    12          0.757              1.494              1.004
 Vibration    13          0.776              1.443              0.917
 Vibration    14          0.842              1.281              0.694
 Vibration    15          0.859              1.241              0.648

 Optimization completed.
    -- Stationary point found.
 Normal termination of Gaussian 16 at Wed Mar  2 00:48:14 2022.

 ------------------------------------------
 #p b3lyp/6-31G(d) geom=allcheck guess=read
 ------------------------------------------

 Structure from the checkpoint file:  "236.n.pdb.xyz.mst.wat.chk"
 -------------
 236.n.pdb.xyz
 -------------
 Charge =  0 Multiplicity = 1

 SCF Done:  E(RB3LYP) =  -608.001375521     A.U. after   11 cycles
 Normal termination of Gaussian 16 at Wed Mar  2 00:49:28 2022.
 Gaussian 16:  ES64L-G16RevA.03 25-Dec-2016

 ----------------------------------------------------------------------
 #p b3lyp/6-31G(d) scrf=(iefpcm,read,solvent=water) geom=allcheck guess
 =read
 ----------------------------------------------------------------------

 Structure from the checkpoint file:  "236.n.pdb.xyz.mst.wat.chk"
 -------------
 236.n.pdb.xyz
 -------------
 Charge =  0 Multiplicity = 1

                         Standard orientation:
 ---------------------------------------------------------------------
 Center     Atomic      Atomic             Coordinates (Angstroms)
 Number     Number       Type             X           Y           Z
 ---------------------------------------------------------------------
      1          6           0        2.698651   -0.645414   -1.221463
      2          6           0        1.502291    0.300623   -1.135510
      3          6           0        0.729776    0.288090    0.234658
      4          6           0        1.666739    0.651678    1.397623
      5          6           0       -0.341912    1.367799    0.097741
      6          8           0       -0.077180    2.558130    0.172908
      7          7           0       -1.626931    0.950775   -0.186233
      8          6           0       -2.101074   -0.350625   -0.188976
      9          8           0       -3.265512   -0.622558   -0.429454
     10          7           0       -1.158398   -1.317267    0.115785
     11          6           0        0.166085   -1.111855    0.451259
     12          8           0        0.852535   -2.039741    0.852953
     13          1           0        3.154980   -0.562202   -2.212416
     14          1           0        2.401721   -1.684659   -1.065514
     15          1           0        3.461897   -0.397400   -0.479702
     16          1           0        1.829289    1.334179   -1.285943
     17          1           0        0.794576    0.073637   -1.937605
     18          1           0        2.104385    1.634704    1.219292
     19          1           0        1.122430    0.681080    2.345052
     20          1           0        2.461828   -0.088175    1.480280
     21          1           0       -2.324001    1.673824   -0.348276
     22          1           0       -1.511874   -2.267954    0.194703
 ---------------------------------------------------------------------

 SCF Done:  E(RB3LYP) =  -608.022092420     A.U. after   11 cycles

 The electronic state is 1-A.
 Alpha  occ. eigenvalues --  -19.14659 -19.14619 -19.14509 -14.39227 -14.39199
 Alpha  occ. eigenvalues --  -10.35073 -10.31884 -10.31881 -10.23116 -10.20236
 Alpha  occ. eigenvalues --  -10.18444 -10.17620  -1.08855  -1.06153  -1.05865
 Alpha  occ. eigenvalues --   -0.96455  -0.92435  -0.83296  -0.74287  -0.69726
 Alpha  occ. eigenvalues --   -0.66603  -0.65366  -0.62538  -0.56842  -0.55662
 Alpha  occ. eigenvalues --   -0.49725  -0.49014  -0.47162  -0.46648  -0.45268
 Alpha  occ. eigenvalues --   -0.44746  -0.43717  -0.42770  -0.40271  -0.39086
 Alpha  occ. eigenvalues --   -0.38180  -0.37692  -0.36299  -0.35504  -0.33638
 Alpha  occ. eigenvalues --   -0.30884  -0.29618  -0.29435  -0.28852  -0.26361
 Alpha virt. eigenvalues --   -0.04208  -0.00030   0.06412   0.09517   0.10757
 Alpha virt. eigenvalues --    0.12348   0.13879   0.14659   0.15540   0.16773
 Alpha virt. eigenvalues --    0.17914   0.17957   0.19130   0.19985   0.21684

 Mulliken charges:
               1
     1  C   -0.458752
     2  C   -0.267430
     3  C   -0.136421
     4  C   -0.460316
     5  C    0.666157
     6  O   -0.538529
     7  N   -0.667507
     8  C    0.786571
     9  O   -0.538550
    10  N   -0.667145
    11  C    0.667562
    12  O   -0.534241
    13  H    0.158371
    14  H    0.165116
    15  H    0.160044
    16  H    0.172272
    17  H    0.163375
    18  H    0.172451
    19  H    0.167076
    20  H    0.177271
    21  H    0.406588
    22  H    0.406036
 Sum of Mulliken charges =  -0.00000

 Dipole moment (field-independent basis, Debye):
    X=              0.3300    Y=             -0.1462    Z=             -0.9393  Tot=              1.0063
 Quadrupole moment (field-independent basis, Debye-Ang):
   XX=            -76.5942   YY=            -78.7285   ZZ=            -67.9268
   XY=             -0.2171   XZ=             -4.1198   YZ=              0.8247

 Normal termination of Gaussian 16 at Wed Mar  2 00:50:51 2022.
