 Gaussian 16, Revision A.03,

 ----------------------------------------------------------------------
 #p b3lyp/6-31G(d) opt=(MaxStep=10,MaxCycles=1000) freq scf=(MaxCycle=2
 000,NoVarAcc,NoIncFock) scrf=(iefpcm,read,solvent=water)
 ----------------------------------------------------------------------

 -------------
 237.n.pdb.xyz
 -------------
 Symbolic Z-matrix:
 Charge =  0 Multiplicity = 1

 SCF Done:  E(RB3LYP) =  -464.967252832     A.U. after   12 cycles
 SCF Done:  E(RB3LYP) =  -464.969167770     A.U. after   10 cycles
 SCF Done:  E(RB3LYP) =  -464.968426974     A.U. after   10 cycles
 SCF Done:  E(RB3LYP) =  -464.969149850     A.U. after   10 cycles
 SCF Done:  E(RB3LYP) =  -464.969367965     A.U. after   10 cycles
 SCF Done:  E(RB3LYP) =  -464.969420622     A.U. after   10 cycles
 SCF Done:  E(RB3LYP) =  -464.969358499     A.U. after   10 cycles
 SCF Done:  E(RB3LYP) =  -464.969389297     A.U. after   10 cycles
 SCF Done:  E(RB3LYP) =  -464.969441641     A.U. after   10 cycles
 SCF Done:  E(RB3LYP) =  -464.969454868     A.U. after    9 cycles
 SCF Done:  E(RB3LYP) =  -464.969434964     A.U. after    9 cycles
 SCF Done:  E(RB3LYP) =  -464.969407039     A.U. after    8 cycles
 SCF Done:  E(RB3LYP) =  -464.969451342     A.U. after   10 cycles
 SCF Done:  E(RB3LYP) =  -464.969451572     A.U. after    8 cycles
 SCF Done:  E(RB3LYP) =  -464.969451706     A.U. after    8 cycles
 Optimization completed.
    -- Stationary point found.
 Normal termination of Gaussian 16 at Wed Mar  2 03:15:11 2022.

 --------------------------------------------------------------------
 #P Geom=AllCheck Guess=TCheck SCRF=Check GenChk RB3LYP/6-31G(d) Freq
 --------------------------------------------------------------------

 Structure from the checkpoint file:  "237.n.pdb.xyz.mst.wat.chk"
 -------------
 237.n.pdb.xyz
 -------------
 Charge =  0 Multiplicity = 1

 SCF Done:  E(RB3LYP) =  -464.969451706     A.U. after    1 cycles

  Exact polarizability: 120.829  -1.226 121.306  -4.136  -4.726 106.387
 Approx polarizability: 120.655   0.625 124.490  -6.569  -8.580 118.740

                      1                      2                      3
                      A                      A                      A
 Frequencies --     27.4810                49.8450                61.7135
 Red. masses --      8.1886                 1.7551                 2.9964
 Frc consts  --      0.0036                 0.0026                 0.0067
 IR Inten    --      2.3947                 0.2627                 0.1834

                      4                      5                      6
                      A                      A                      A
 Frequencies --     88.7175               106.9742               131.5198
 Red. masses --      1.8781                 2.3503                 3.0477
 Frc consts  --      0.0087                 0.0158                 0.0311
 IR Inten    --      0.0137                 0.3512                 1.1012

                      7                      8                      9
                      A                      A                      A
 Frequencies --    175.7855               240.2537               251.1926
 Red. masses --      2.8557                 1.2760                 1.3181
 Frc consts  --      0.0520                 0.0434                 0.0490
 IR Inten    --      0.0323                 0.0697                 0.0779

                     10                     11                     12
                      A                      A                      A
 Frequencies --    253.0347               297.0678               320.7029
 Red. masses --      1.6753                 2.7684                 4.5049
 Frc consts  --      0.0632                 0.1439                 0.2730
 IR Inten    --      0.2961                 0.0743                 3.8453

                     13                     14                     15
                      A                      A                      A
 Frequencies --    346.8582               399.1404               531.8603
 Red. masses --      3.8692                 2.8152                 2.8233
 Frc consts  --      0.2743                 0.2643                 0.4705
 IR Inten    --      6.6301                 0.4893                17.1654

                     16                     17                     18
                      A                      A                      A
 Frequencies --    618.5931               651.1006               736.0776
 Red. masses --      1.2173                 3.8351                 1.2921
 Frc consts  --      0.2744                 0.9579                 0.4125
 IR Inten    --    150.9417                60.9728                20.2634

                     19                     20                     21
                      A                      A                      A
 Frequencies --    750.8701               758.9200               853.3612
 Red. masses --      1.3479                 1.9717                 1.3103
 Frc consts  --      0.4478                 0.6691                 0.5622
 IR Inten    --     41.2648                15.7050                 0.5117

                     22                     23                     24
                      A                      A                      A
 Frequencies --    863.9377               902.7204               917.0498
 Red. masses --      1.6127                 2.4836                 1.8200
 Frc consts  --      0.7092                 1.1925                 0.9018
 IR Inten    --      1.7276                 0.5425                 8.5114

                     25                     26                     27
                      A                      A                      A
 Frequencies --    935.0205               986.9914              1047.2086
 Red. masses --      1.9342                 1.9062                 2.9857
 Frc consts  --      0.9963                 1.0941                 1.9291
 IR Inten    --      4.1693                 9.3082                 4.0582

                     28                     29                     30
                      A                      A                      A
 Frequencies --   1063.8160              1072.4545              1088.4391
 Red. masses --      2.2426                 1.3835                 2.0726
 Frc consts  --      1.4953                 0.9375                 1.4467
 IR Inten    --      2.3179                 0.9297                 0.7177

                     31                     32                     33
                      A                      A                      A
 Frequencies --   1131.2530              1137.8085              1161.8317
 Red. masses --      2.1594                 2.1170                 2.5762
 Frc consts  --      1.6282                 1.6148                 2.0489
 IR Inten    --    153.0780                30.9648               204.5628

                     34                     35                     36
                      A                      A                      A
 Frequencies --   1201.6497              1254.2807              1281.6172
 Red. masses --      1.9556                 1.4376                 1.2830
 Frc consts  --      1.6638                 1.3326                 1.2416
 IR Inten    --     49.9142                 0.3299                18.7932

                     37                     38                     39
                      A                      A                      A
 Frequencies --   1289.0940              1308.0529              1335.4769
 Red. masses --      1.2549                 1.2569                 1.2016
 Frc consts  --      1.2287                 1.2670                 1.2626
 IR Inten    --      2.2151                 0.9876                 3.6041

                     40                     41                     42
                      A                      A                      A
 Frequencies --   1339.7014              1348.6392              1353.8486
 Red. masses --      1.1347                 1.2788                 1.3870
 Frc consts  --      1.1999                 1.3704                 1.4978
 IR Inten    --      2.3293                 2.5539                19.3148

                     43                     44                     45
                      A                      A                      A
 Frequencies --   1402.5644              1407.3997              1430.7307
 Red. masses --      1.6662                 1.5753                 1.5427
 Frc consts  --      1.9312                 1.8385                 1.8606
 IR Inten    --     41.9889                23.7051                10.1446

                     46                     47                     48
                      A                      A                      A
 Frequencies --   1432.8134              1435.1749              1499.2441
 Red. masses --      1.3243                 1.3473                 1.0760
 Frc consts  --      1.6018                 1.6351                 1.4250
 IR Inten    --      6.9988                12.9827                 2.2634

                     49                     50                     51
                      A                      A                      A
 Frequencies --   1502.6623              1513.6937              1514.5893
 Red. masses --      1.0662                 1.0637                 1.0615
 Frc consts  --      1.4185                 1.4360                 1.4347
 IR Inten    --      1.8201                 0.5600                 1.4475

                     52                     53                     54
                      A                      A                      A
 Frequencies --   1516.8568              1518.6462              1531.8912
 Red. masses --      1.0412                 1.0416                 1.0871
 Frc consts  --      1.4115                 1.4153                 1.5030
 IR Inten    --      7.0180                 6.9470                10.0099

                     55                     56                     57
                      A                      A                      A
 Frequencies --   1534.6781              1791.2427              3044.1850
 Red. masses --      1.0896                10.0490                 1.0609
 Frc consts  --      1.5120                18.9969                 5.7924
 IR Inten    --      1.9541               518.1639                13.6952

                     58                     59                     60
                      A                      A                      A
 Frequencies --   3047.9103              3050.3655              3052.2995
 Red. masses --      1.0607                 1.0543                 1.0528
 Frc consts  --      5.8055                 5.7799                 5.7788
 IR Inten    --     12.0928                37.3499                17.2056

                     61                     62                     63
                      A                      A                      A
 Frequencies --   3053.5879              3054.5740              3061.5037
 Red. masses --      1.0452                 1.0495                 1.0802
 Frc consts  --      5.7420                 5.7697                 5.9654
 IR Inten    --    112.2756                52.4867                60.6062

                     64                     65                     66
                      A                      A                      A
 Frequencies --   3076.0230              3082.4383              3094.4126
 Red. masses --      1.0976                 1.0961                 1.1038
 Frc consts  --      6.1190                 6.1358                 6.2274
 IR Inten    --      6.4694                18.3739                63.5112

                     67                     68                     69
                      A                      A                      A
 Frequencies --   3099.9220              3116.4051              3119.1534
 Red. masses --      1.1029                 1.1034                 1.1033
 Frc consts  --      6.2444                 6.3138                 6.3243
 IR Inten    --     36.9891               119.6835               142.4700

                     70                     71                     72
                      A                      A                      A
 Frequencies --   3122.7079              3126.2806              3662.9978
 Red. masses --      1.1019                 1.1016                 1.0644
 Frc consts  --      6.3309                 6.3436                 8.4147
 IR Inten    --     64.5909                74.8811               149.6622

 - Thermochemistry -
 -------------------
 Temperature   298.150 Kelvin.  Pressure   1.00000 Atm.
 Atom     1 has atomic number  6 and mass  12.00000

 Molecular mass:   144.11503 amu.
 Principal axes and moments of inertia in atomic units:
                           1         2         3
     Eigenvalues --  1686.789561841.075643248.90201
           X            0.93724   0.34866   0.00299
           Y           -0.34867   0.93721   0.00853
           Z            0.00017  -0.00904   0.99996
 This molecule is an asymmetric top.
 Rotational symmetry number  1.
 Warning -- assumption of classical behavior for rotation
           may cause significant error
 Rotational temperatures (Kelvin)      0.05135     0.04705     0.02666
 Rotational constants (GHZ):           1.06993     0.98026     0.55549
 Zero-point vibrational energy     613498.4 (Joules/Mol)
                                  146.62963 (Kcal/Mol)
 Warning -- explicit consideration of  16 degrees of freedom as
           vibrations may cause significant error
 Vibrational temperatures:     39.54    71.72    88.79   127.64   153.91
          (Kelvin)            189.23   252.92   345.67   361.41   364.06
                              427.41   461.42   499.05   574.27   765.23
                              890.02   936.79  1059.05  1080.33  1091.92
                             1227.80  1243.01  1298.81  1319.43  1345.29
                             1420.06  1506.70  1530.59  1543.02  1566.02
                             1627.62  1637.05  1671.62  1728.91  1804.63
                             1843.96  1854.72  1882.00  1921.45  1927.53
                             1940.39  1947.89  2017.98  2024.93  2058.50
                             2061.50  2064.90  2157.08  2162.00  2177.87
                             2179.16  2182.42  2184.99  2204.05  2208.06
                             2577.20  4379.90  4385.26  4388.80  4391.58
                             4393.43  4394.85  4404.82  4425.71  4434.94
                             4452.17  4460.10  4483.81  4487.77  4492.88
                             4498.02  5270.24

 Zero-point correction=                           0.233669 (Hartree/Particle)
 Thermal correction to Energy=                    0.246181
 Thermal correction to Enthalpy=                  0.247126
 Thermal correction to Gibbs Free Energy=         0.193451
 Sum of electronic and zero-point Energies=           -464.735783
 Sum of electronic and thermal Energies=              -464.723270
 Sum of electronic and thermal Enthalpies=            -464.722326
 Sum of electronic and thermal Free Energies=         -464.776000

                     E (Thermal)             CV                S
                      KCal/Mol        Cal/Mol-Kelvin    Cal/Mol-Kelvin
 Total                  154.481             43.905            112.967
 Electronic               0.000              0.000              0.000
 Translational            0.889              2.981             40.807
 Rotational               0.889              2.981             30.690
 Vibrational            152.704             37.943             41.469
 Vibration     1          0.593              1.984              6.003
 Vibration     2          0.595              1.978              4.824
 Vibration     3          0.597              1.973              4.402
 Vibration     4          0.602              1.957              3.688
 Vibration     5          0.606              1.944              3.323
 Vibration     6          0.612              1.922              2.924
 Vibration     7          0.628              1.872              2.373
 Vibration     8          0.657              1.779              1.801
 Vibration     9          0.663              1.761              1.722
 Vibration    10          0.664              1.758              1.709
 Vibration    11          0.691              1.679              1.433
 Vibration    12          0.706              1.634              1.307
 Vibration    13          0.725              1.582              1.180
 Vibration    14          0.765              1.472              0.966
 Vibration    15          0.887              1.180              0.583
 Vibration    16          0.978              0.993              0.419

                           ! Non-Optimized Parameters !
 Normal termination of Gaussian 16 at Wed Mar  2 03:26:29 2022.

 ------------------------------------------
 #p b3lyp/6-31G(d) geom=allcheck guess=read
 ------------------------------------------

 Structure from the checkpoint file:  "237.n.pdb.xyz.mst.wat.chk"
 -------------
 237.n.pdb.xyz
 -------------
 Charge =  0 Multiplicity = 1

 SCF Done:  E(RB3LYP) =  -464.959085156     A.U. after   10 cycles
 Normal termination of Gaussian 16 at Wed Mar  2 03:27:30 2022.
 Gaussian 16:  ES64L-G16RevA.03 25-Dec-2016

 ----------------------------------------------------------------------
 #p b3lyp/6-31G(d) scrf=(iefpcm,read,solvent=water) geom=allcheck guess
 =read
 ----------------------------------------------------------------------

 Structure from the checkpoint file:  "237.n.pdb.xyz.mst.wat.chk"
 -------------
 237.n.pdb.xyz
 -------------
 Charge =  0 Multiplicity = 1

                         Standard orientation:
 ---------------------------------------------------------------------
 Center     Atomic      Atomic             Coordinates (Angstroms)
 Number     Number       Type             X           Y           Z
 ---------------------------------------------------------------------
      1          6           0        1.241603    3.322019    0.348723
      2          6           0        0.719698    2.093842   -0.397927
      3          6           0        0.786010    0.816499    0.446534
      4          6           0        0.250396   -0.450453   -0.288345
      5          6           0       -1.197416   -0.812691    0.074007
      6          6           0       -2.239377    0.238630   -0.316478
      7          6           0       -3.664164   -0.198658    0.029494
      8          6           0        1.172334   -1.618438    0.005309
      9          8           0        2.329040   -1.526674   -0.682553
     10          8           0        0.944067   -2.531544    0.778521
     11          1           0        2.282920    3.182779    0.660006
     12          1           0        0.649914    3.518017    1.249619
     13          1           0        1.197692    4.216810   -0.280358
     14          1           0        1.306263    1.940830   -1.312483
     15          1           0       -0.312029    2.271579   -0.721171
     16          1           0        0.217114    0.948649    1.374964
     17          1           0        1.828527    0.658935    0.744390
     18          1           0        0.324262   -0.263849   -1.366394
     19          1           0       -1.251026   -0.998163    1.153452
     20          1           0       -1.454652   -1.761773   -0.411614
     21          1           0       -2.020396    1.187019    0.186980
     22          1           0       -2.169267    0.439092   -1.393348
     23          1           0       -3.772804   -0.375476    1.105557
     24          1           0       -3.928894   -1.127838   -0.487361
     25          1           0       -4.394218    0.563325   -0.258587
     26          1           0        2.897230   -2.278674   -0.419302
 ---------------------------------------------------------------------

 SCF Done:  E(RB3LYP) =  -464.968824565     A.U. after   10 cycles

 The electronic state is 1-A.
 Alpha  occ. eigenvalues --  -19.19000 -19.13897 -10.31789 -10.19823 -10.18485
 Alpha  occ. eigenvalues --  -10.17885 -10.17859 -10.17768 -10.17070 -10.17007
 Alpha  occ. eigenvalues --   -1.09983  -1.01019  -0.82024  -0.77533  -0.74516
 Alpha  occ. eigenvalues --   -0.67431  -0.65776  -0.59804  -0.58311  -0.55792
 Alpha  occ. eigenvalues --   -0.49262  -0.48064  -0.47304  -0.45868  -0.44233
 Alpha  occ. eigenvalues --   -0.42184  -0.41312  -0.40217  -0.39103  -0.38866
 Alpha  occ. eigenvalues --   -0.36792  -0.36056  -0.34470  -0.33259  -0.33203
 Alpha  occ. eigenvalues --   -0.32570  -0.32297  -0.31539  -0.31070  -0.27176
 Alpha virt. eigenvalues --    0.01117   0.08811   0.10182   0.10628   0.11686
 Alpha virt. eigenvalues --    0.13408   0.13649   0.15217   0.15311   0.16516
 Alpha virt. eigenvalues --    0.17383   0.18384   0.18749   0.19173   0.19790

 Mulliken charges:
               1
     1  C   -0.453372
     2  C   -0.261409
     3  C   -0.270785
     4  C   -0.156639
     5  C   -0.253827
     6  C   -0.261013
     7  C   -0.452029
     8  C    0.580257
     9  O   -0.592196
    10  O   -0.526048
    11  H    0.146787
    12  H    0.146929
    13  H    0.147669
    14  H    0.140962
    15  H    0.146546
    16  H    0.149818
    17  H    0.151700
    18  H    0.162419
    19  H    0.140986
    20  H    0.138093
    21  H    0.144935
    22  H    0.137250
    23  H    0.145728
    24  H    0.145659
    25  H    0.146324
    26  H    0.455257
 Sum of Mulliken charges =  -0.00000

 Dipole moment (field-independent basis, Debye):
    X=              0.7666    Y=              1.6249    Z=             -1.2587  Tot=              2.1938
 Quadrupole moment (field-independent basis, Debye-Ang):
   XX=            -57.0922   YY=            -66.9771   ZZ=            -64.4492
   XY=             -3.8222   XZ=             -0.1919   YZ=              4.6402

 Normal termination of Gaussian 16 at Wed Mar  2 03:28:46 2022.
