 Gaussian 16, Revision A.03,

 ----------------------------------------------------------------------
 #p b3lyp/6-31G(d) opt=(MaxStep=10,MaxCycles=1000) freq scf=(MaxCycle=2
 000,NoVarAcc,NoIncFock) scrf=(iefpcm,read,solvent=water)
 ----------------------------------------------------------------------

 -------------
 238.n.pdb.xyz
 -------------
 Symbolic Z-matrix:
 Charge =  0 Multiplicity = 1

 SCF Done:  E(RB3LYP) =  -790.614371836     A.U. after   12 cycles
 SCF Done:  E(RB3LYP) =  -790.616682351     A.U. after   10 cycles
 SCF Done:  E(RB3LYP) =  -790.616214841     A.U. after   11 cycles
 SCF Done:  E(RB3LYP) =  -790.617599788     A.U. after    9 cycles
 SCF Done:  E(RB3LYP) =  -790.617775002     A.U. after   10 cycles
 SCF Done:  E(RB3LYP) =  -790.617214442     A.U. after   10 cycles
 SCF Done:  E(RB3LYP) =  -790.617948829     A.U. after   10 cycles
 SCF Done:  E(RB3LYP) =  -790.618032753     A.U. after    9 cycles
 SCF Done:  E(RB3LYP) =  -790.618033805     A.U. after    8 cycles
 SCF Done:  E(RB3LYP) =  -790.618046647     A.U. after    8 cycles
 SCF Done:  E(RB3LYP) =  -790.618051307     A.U. after    8 cycles
 SCF Done:  E(RB3LYP) =  -790.618051461     A.U. after    7 cycles
 SCF Done:  E(RB3LYP) =  -790.618053302     A.U. after    7 cycles
 SCF Done:  E(RB3LYP) =  -790.618053208     A.U. after    6 cycles
 SCF Done:  E(RB3LYP) =  -790.618054241     A.U. after    6 cycles
 Optimization completed.
    -- Stationary point found.
 Normal termination of Gaussian 16 at Wed Mar  2 04:21:44 2022.

 --------------------------------------------------------------------
 #P Geom=AllCheck Guess=TCheck SCRF=Check GenChk RB3LYP/6-31G(d) Freq
 --------------------------------------------------------------------

 Structure from the checkpoint file:  "238.n.pdb.xyz.mst.wat.chk"
 -------------
 238.n.pdb.xyz
 -------------
 Charge =  0 Multiplicity = 1

 SCF Done:  E(RB3LYP) =  -790.618054241     A.U. after    1 cycles

  Exact polarizability: 269.192  -7.567 252.795  -5.179  13.169 157.086
 Approx polarizability: 278.825  -9.463 270.369  -4.244  18.618 174.633

 ******    1 imaginary frequencies (negative Signs) ******

                      1                      2                      3
                      A                      A                      A
 Frequencies --    -17.7808                24.5233                39.6490
 Red. masses --      2.7478                 3.9754                 4.2433
 Frc consts  --      0.0005                 0.0014                 0.0039
 IR Inten    --      0.5408                 0.0480                 0.2030

                      4                      5                      6
                      A                      A                      A
 Frequencies --     53.5317                67.4307                70.9375
 Red. masses --      3.6519                 3.9871                 3.7063
 Frc consts  --      0.0062                 0.0107                 0.0110
 IR Inten    --      1.7997                 0.5966                 1.1591

                      7                      8                      9
                      A                      A                      A
 Frequencies --     91.0344               126.8410               129.3270
 Red. masses --      3.5257                 2.9531                 2.5049
 Frc consts  --      0.0172                 0.0280                 0.0247
 IR Inten    --      2.2902                 2.4087                 3.4223

                     10                     11                     12
                      A                      A                      A
 Frequencies --    153.6673               158.5574               184.9028
 Red. masses --      2.9299                 2.5581                 4.3794
 Frc consts  --      0.0408                 0.0379                 0.0882
 IR Inten    --      0.0292                15.7572                 0.7368

                     13                     14                     15
                      A                      A                      A
 Frequencies --    212.9736               225.1217               245.4805
 Red. masses --      2.9175                 1.2224                 2.1653
 Frc consts  --      0.0780                 0.0365                 0.0769
 IR Inten    --      1.8813                 0.2074                 8.9123

                     16                     17                     18
                      A                      A                      A
 Frequencies --    262.0337               292.7913               315.8590
 Red. masses --      1.3799                 3.2519                 3.3918
 Frc consts  --      0.0558                 0.1642                 0.1994
 IR Inten    --      2.3849                 3.1171                11.0340

                     19                     20                     21
                      A                      A                      A
 Frequencies --    333.7473               362.4699               372.8284
 Red. masses --      2.6660                 1.2625                 1.9221
 Frc consts  --      0.1750                 0.0977                 0.1574
 IR Inten    --     15.9803               185.1120                13.5733

                     22                     23                     24
                      A                      A                      A
 Frequencies --    397.2311               449.5766               473.2930
 Red. masses --      2.2769                 2.8442                 3.3036
 Frc consts  --      0.2117                 0.3387                 0.4360
 IR Inten    --      2.7932                 7.5767                 5.8765

                     25                     26                     27
                      A                      A                      A
 Frequencies --    477.6972               482.0684               510.5702
 Red. masses --      2.4865                 2.8769                 2.7196
 Frc consts  --      0.3343                 0.3939                 0.4177
 IR Inten    --     20.1822                 1.9588                17.7226

                     28                     29                     30
                      A                      A                      A
 Frequencies --    553.4850               556.7789               566.3322
 Red. masses --      3.1108                 3.4569                 2.7166
 Frc consts  --      0.5615                 0.6314                 0.5134
 IR Inten    --      8.5095                 1.1925                 1.1700

                     31                     32                     33
                      A                      A                      A
 Frequencies --    628.1630               669.0891               743.0131
 Red. masses --      4.9587                 2.1470                 3.9048
 Frc consts  --      1.1528                 0.5663                 1.2701
 IR Inten    --     10.6824                15.7514                 1.1821

                     34                     35                     36
                      A                      A                      A
 Frequencies --    768.0941               805.9032               816.7027
 Red. masses --      1.3351                 3.5859                 1.6536
 Frc consts  --      0.4641                 1.3722                 0.6499
 IR Inten    --     82.7148                10.8290               106.0361

                     37                     38                     39
                      A                      A                      A
 Frequencies --    847.6419               856.1644               872.4890
 Red. masses --      2.0274                 2.0949                 1.9802
 Frc consts  --      0.8583                 0.9048                 0.8881
 IR Inten    --     24.7054                27.4371                17.3763

                     40                     41                     42
                      A                      A                      A
 Frequencies --    902.4320               917.9517               934.8662
 Red. masses --      2.7227                 1.4910                 1.6006
 Frc consts  --      1.3064                 0.7403                 0.8242
 IR Inten    --     46.4486                 5.0703                 6.1416

                     43                     44                     45
                      A                      A                      A
 Frequencies --    937.1426               939.1251               951.3161
 Red. masses --      1.2256                 1.3554                 1.6367
 Frc consts  --      0.6342                 0.7043                 0.8727
 IR Inten    --      5.1557                48.2918                10.0310

                     46                     47                     48
                      A                      A                      A
 Frequencies --    956.9014               965.6938               981.6744
 Red. masses --      1.8291                 1.4277                 1.2475
 Frc consts  --      0.9868                 0.7845                 0.7083
 IR Inten    --      4.5474                 1.6389                 0.1616

                     49                     50                     51
                      A                      A                      A
 Frequencies --    993.9406              1040.5261              1056.0543
 Red. masses --      1.8707                 3.7450                 1.1263
 Frc consts  --      1.0889                 2.3889                 0.7401
 IR Inten    --      3.6590                97.2134                19.5854

                     52                     53                     54
                      A                      A                      A
 Frequencies --   1074.6933              1078.1603              1101.5349
 Red. masses --      2.0804                 2.5968                 2.1483
 Frc consts  --      1.4157                 1.7785                 1.5358
 IR Inten    --      9.7499                76.1333                21.2118

                     55                     56                     57
                      A                      A                      A
 Frequencies --   1107.5191              1121.4452              1130.3029
 Red. masses --      2.1730                 2.8233                 2.2222
 Frc consts  --      1.5704                 2.0920                 1.6727
 IR Inten    --     39.6297                88.8981                19.3502

                     58                     59                     60
                      A                      A                      A
 Frequencies --   1154.9410              1170.0576              1190.7952
 Red. masses --      1.7422                 1.9811                 1.2035
 Frc consts  --      1.3692                 1.5980                 1.0055
 IR Inten    --     61.8190                28.3320                25.2023

                     61                     62                     63
                      A                      A                      A
 Frequencies --   1200.0392              1209.1371              1218.8298
 Red. masses --      2.2011                 1.9033                 2.1157
 Frc consts  --      1.8676                 1.6395                 1.8518
 IR Inten    --      4.8323                65.5046                21.0285

                     64                     65                     66
                      A                      A                      A
 Frequencies --   1232.9729              1240.2197              1267.8460
 Red. masses --      1.3464                 1.2418                 1.1768
 Frc consts  --      1.2059                 1.1253                 1.1145
 IR Inten    --      0.4668                15.6315                75.9078

                     67                     68                     69
                      A                      A                      A
 Frequencies --   1277.7300              1304.4459              1317.6386
 Red. masses --      2.9841                 1.1647                 1.3391
 Frc consts  --      2.8704                 1.1677                 1.3698
 IR Inten    --    335.9167                22.0946                 5.3074

                     70                     71                     72
                      A                      A                      A
 Frequencies --   1330.0991              1331.6657              1342.6480
 Red. masses --      1.3974                 1.3586                 1.4426
 Frc consts  --      1.4566                 1.4195                 1.5322
 IR Inten    --     40.3121                78.7629                12.4870

                     73                     74                     75
                      A                      A                      A
 Frequencies --   1362.8079              1369.6689              1388.4344
 Red. masses --      1.3746                 3.4982                 1.3319
 Frc consts  --      1.5042                 3.8665                 1.5128
 IR Inten    --     29.4866                13.0992                37.1841

                     76                     77                     78
                      A                      A                      A
 Frequencies --   1396.0757              1420.2285              1433.5529
 Red. masses --      1.3840                 1.3447                 1.2778
 Frc consts  --      1.5893                 1.5980                 1.5472
 IR Inten    --     12.2731                12.8924                 8.7637

                     79                     80                     81
                      A                      A                      A
 Frequencies --   1437.2024              1457.6028              1464.6591
 Red. masses --      1.3304                 1.1984                 1.6271
 Frc consts  --      1.6191                 1.5002                 2.0566
 IR Inten    --     21.8316                 4.1544                10.8910

                     82                     83                     84
                      A                      A                      A
 Frequencies --   1482.8656              1494.9760              1499.2520
 Red. masses --      1.1064                 1.1020                 2.2258
 Frc consts  --      1.4334                 1.4511                 2.9477
 IR Inten    --      7.6370                20.3761                58.0848

                     85                     86                     87
                      A                      A                      A
 Frequencies --   1506.9079              1510.3528              1519.6364
 Red. masses --      1.0591                 1.0646                 1.2353
 Frc consts  --      1.4170                 1.4308                 1.6808
 IR Inten    --      3.0531                 4.8235                64.7214

                     88                     89                     90
                      A                      A                      A
 Frequencies --   1523.7406              1528.0012              1540.0432
 Red. masses --      1.1401                 1.0845                 1.1517
 Frc consts  --      1.5597                 1.4919                 1.6094
 IR Inten    --     24.3535                 6.4530                31.8418

                     91                     92                     93
                      A                      A                      A
 Frequencies --   1546.3116              1643.9448              1656.0664
 Red. masses --      1.8827                 6.3038                 5.9126
 Frc consts  --      2.6523                10.0375                 9.5540
 IR Inten    --     59.8017                13.3107                60.6619

                     94                     95                     96
                      A                      A                      A
 Frequencies --   1723.3859              2935.6201              2953.7284
 Red. masses --      4.6024                 1.0812                 1.0729
 Frc consts  --      8.0537                 5.4897                 5.5148
 IR Inten    --     19.8190               150.5350               115.0835

                     97                     98                     99
                      A                      A                      A
 Frequencies --   3039.1739              3048.9161              3052.9189
 Red. masses --      1.0831                 1.0556                 1.0375
 Frc consts  --      5.8942                 5.7816                 5.6975
 IR Inten    --     61.2675                70.2124                36.0887

                    100                    101                    102
                      A                      A                      A
 Frequencies --   3053.9860              3060.3149              3094.0974
 Red. masses --      1.0614                 1.0365                 1.0953
 Frc consts  --      5.8326                 5.7194                 6.1783
 IR Inten    --     36.0603                32.1810                 5.5792

                    103                    104                    105
                      A                      A                      A
 Frequencies --   3100.8785              3106.3737              3121.2537
 Red. masses --      1.1008                 1.1010                 1.1002
 Frc consts  --      6.2363                 6.2598                 6.3149
 IR Inten    --    126.0984                27.6854                37.1714

                    106                    107                    108
                      A                      A                      A
 Frequencies --   3123.7964              3134.3870              3137.5281
 Red. masses --      1.1021                 1.1019                 1.1017
 Frc consts  --      6.3360                 6.3782                 6.3901
 IR Inten    --     75.0367                44.8669                82.0253

                    109                    110                    111
                      A                      A                      A
 Frequencies --   3161.3270              3181.1441              3194.6860
 Red. masses --      1.0586                 1.0911                 1.0873
 Frc consts  --      6.2335                 6.5057                 6.5382
 IR Inten    --     24.5965                18.1168                13.9888

                    112                    113                    114
                      A                      A                      A
 Frequencies --   3206.9271              3222.0829              3243.0560
 Red. masses --      1.0889                 1.0956                 1.1157
 Frc consts  --      6.5983                 6.7014                 6.9137
 IR Inten    --     21.8780                49.8041                32.4862

                    115                    116                    117
                      A                      A                      A
 Frequencies --   3246.0469              3492.5685              3749.6885
 Red. masses --      1.0919                 1.0735                 1.0659
 Frc consts  --      6.7784                 7.7150                 8.8298
 IR Inten    --     14.5592                 5.5531                93.5996

 - Thermochemistry -
 -------------------
 Temperature   298.150 Kelvin.  Pressure   1.00000 Atm.
 Atom     1 has atomic number  6 and mass  12.00000

 Molecular mass:   249.17288 amu.
 Principal axes and moments of inertia in atomic units:
                           1         2         3
     Eigenvalues --  2318.29553********************
           X            0.99997  -0.00833   0.00016
           Y            0.00833   0.99996   0.00217
           Z           -0.00018  -0.00217   1.00000
 This molecule is an asymmetric top.
 Rotational symmetry number  1.
 Warning -- assumption of classical behavior for rotation
           may cause significant error
 Rotational temperatures (Kelvin)      0.03736     0.00739     0.00635
 Rotational constants (GHZ):           0.77848     0.15395     0.13231
    1 imaginary frequencies ignored.
 Zero-point vibrational energy     943522.0 (Joules/Mol)
                                  225.50718 (Kcal/Mol)
 Warning -- explicit consideration of  29 degrees of freedom as
           vibrations may cause significant error
 Vibrational temperatures:     35.28    57.05    77.02    97.02   102.06
          (Kelvin)            130.98   182.50   186.07   221.09   228.13
                              266.03   306.42   323.90   353.19   377.01
                              421.26   454.45   480.19   521.51   536.42
                              571.53   646.84   680.96   687.30   693.59
                              734.60   796.34   801.08   814.83   903.79
                              962.67  1069.03  1105.12  1159.51  1175.05
                             1219.57  1231.83  1255.32  1298.40  1320.73
                             1345.06  1348.34  1351.19  1368.73  1376.77
                             1389.42  1412.41  1430.06  1497.08  1519.43
                             1546.24  1551.23  1584.86  1593.47  1613.51
                             1626.25  1661.70  1683.45  1713.29  1726.59
                             1739.68  1753.62  1773.97  1784.40  1824.15
                             1838.37  1876.81  1895.79  1913.72  1915.97
                             1931.77  1960.78  1970.65  1997.65  2008.64
                             2043.39  2062.56  2067.81  2097.17  2107.32
                             2133.51  2150.94  2157.09  2168.10  2173.06
                             2186.42  2192.32  2198.45  2215.78  2224.80
                             2365.27  2382.71  2479.57  4223.70  4249.76
                             4372.69  4386.71  4392.47  4394.00  4403.11
                             4451.72  4461.47  4469.38  4490.79  4494.45
                             4509.68  4514.20  4548.44  4576.96  4596.44
                             4614.05  4635.86  4666.03  4670.34  5025.03
                             5394.97

 Zero-point correction=                           0.359369 (Hartree/Particle)
 Thermal correction to Energy=                    0.378104
 Thermal correction to Enthalpy=                  0.379048
 Thermal correction to Gibbs Free Energy=         0.311288
 Sum of electronic and zero-point Energies=           -790.258686
 Sum of electronic and thermal Energies=              -790.239951
 Sum of electronic and thermal Enthalpies=            -790.239006
 Sum of electronic and thermal Free Energies=         -790.306766

                     E (Thermal)             CV                S
                      KCal/Mol        Cal/Mol-Kelvin    Cal/Mol-Kelvin
 Total                  237.264             71.132            142.612
 Electronic               0.000              0.000              0.000
 Translational            0.889              2.981             42.439
 Rotational               0.889              2.981             34.271
 Vibrational            235.486             65.170             65.902
 Vibration     1          0.593              1.985              6.229
 Vibration     2          0.594              1.981              5.277
 Vibration     3          0.596              1.976              4.682
 Vibration     4          0.598              1.970              4.227
 Vibration     5          0.598              1.968              4.127
 Vibration     6          0.602              1.956              3.638
 Vibration     7          0.611              1.926              2.993
 Vibration     8          0.612              1.924              2.956
 Vibration     9          0.619              1.899              2.626
 Vibration    10          0.621              1.893              2.567
 Vibration    11          0.631              1.860              2.278
 Vibration    12          0.644              1.821              2.018
 Vibration    13          0.650              1.803              1.918
 Vibration    14          0.660              1.770              1.763
 Vibration    15          0.669              1.742              1.648
 Vibration    16          0.688              1.687              1.458
 Vibration    17          0.703              1.643              1.331
 Vibration    18          0.715              1.608              1.242
 Vibration    19          0.736              1.550              1.111
 Vibration    20          0.744              1.528              1.068
 Vibration    21          0.764              1.476              0.973
 Vibration    22          0.808              1.362              0.797
 Vibration    23          0.830              1.309              0.728
 Vibration    24          0.834              1.300              0.716
 Vibration    25          0.838              1.290              0.705
 Vibration    26          0.866              1.227              0.632
 Vibration    27          0.909              1.132              0.537
 Vibration    28          0.912              1.125              0.530
 Vibration    29          0.922              1.104              0.511

 Optimization completed.
    -- Stationary point found.
 Normal termination of Gaussian 16 at Wed Mar  2 05:02:02 2022.

 ------------------------------------------
 #p b3lyp/6-31G(d) geom=allcheck guess=read
 ------------------------------------------

 Structure from the checkpoint file:  "238.n.pdb.xyz.mst.wat.chk"
 -------------
 238.n.pdb.xyz
 -------------
 Charge =  0 Multiplicity = 1

 SCF Done:  E(RB3LYP) =  -790.604088080     A.U. after   11 cycles
 Normal termination of Gaussian 16 at Wed Mar  2 05:04:41 2022.
 Gaussian 16:  ES64L-G16RevA.03 25-Dec-2016

 ----------------------------------------------------------------------
 #p b3lyp/6-31G(d) scrf=(iefpcm,read,solvent=water) geom=allcheck guess
 =read
 ----------------------------------------------------------------------

 Structure from the checkpoint file:  "238.n.pdb.xyz.mst.wat.chk"
 -------------
 238.n.pdb.xyz
 -------------
 Charge =  0 Multiplicity = 1

                         Standard orientation:
 ---------------------------------------------------------------------
 Center     Atomic      Atomic             Coordinates (Angstroms)
 Number     Number       Type             X           Y           Z
 ---------------------------------------------------------------------
      1          6           0        5.624061   -1.331959    0.573809
      2          6           0        5.180452   -0.124546   -0.256941
      3          6           0        6.197457    1.012690   -0.160154
      4          7           0        3.869001    0.363377    0.201772
      5          6           0        2.761850   -0.518211   -0.165054
      6          6           0        1.428623    0.128951    0.185784
      7          8           0        1.310886    1.311745   -0.604906
      8          6           0        0.264290   -0.816006   -0.075937
      9          8           0       -0.928605   -0.123643    0.298847
     10          6           0       -2.130298   -0.752059    0.114444
     11          6           0       -3.271739    0.005132    0.446855
     12          6           0       -3.129459    1.428965    0.944230
     13          6           0       -2.871844    2.412189   -0.171444
     14          6           0       -3.655912    3.451634   -0.460087
     15          6           0       -4.524599   -0.586042    0.285987
     16          6           0       -4.663288   -1.893630   -0.189621
     17          6           0       -3.523309   -2.625613   -0.513100
     18          6           0       -2.253314   -2.060786   -0.361557
     19          1           0        6.585296   -1.711314    0.215371
     20          1           0        4.900808   -2.149661    0.513848
     21          1           0        5.733148   -1.052347    1.628252
     22          1           0        5.120300   -0.445003   -1.313677
     23          1           0        5.900904    1.863257   -0.782785
     24          1           0        6.285339    1.362346    0.873971
     25          1           0        7.183829    0.679258   -0.494317
     26          1           0        3.691358    1.259163   -0.251653
     27          1           0        2.852424   -1.461486    0.382414
     28          1           0        2.764797   -0.768677   -1.241651
     29          1           0        1.432644    0.390381    1.252647
     30          1           0        0.558818    1.820334   -0.258898
     31          1           0        0.369558   -1.733315    0.514777
     32          1           0        0.220244   -1.083525   -1.138178
     33          1           0       -2.298773    1.473753    1.658531
     34          1           0       -4.039892    1.717278    1.478432
     35          1           0       -1.979220    2.228630   -0.766531
     36          1           0       -4.556589    3.660890    0.111918
     37          1           0       -3.426742    4.132332   -1.274439
     38          1           0       -5.406230   -0.006022    0.542792
     39          1           0       -5.649539   -2.330754   -0.303291
     40          1           0       -3.610326   -3.641981   -0.883424
     41          1           0       -1.371219   -2.636241   -0.611320
 ---------------------------------------------------------------------

 SCF Done:  E(RB3LYP) =  -790.615820386     A.U. after   10 cycles

 The electronic state is 1-A.
 Alpha  occ. eigenvalues --  -19.18336 -19.14863 -14.31222 -10.24935 -10.23911
 Alpha  occ. eigenvalues --  -10.23886 -10.20877 -10.20545 -10.19578 -10.19114
 Alpha  occ. eigenvalues --  -10.19108 -10.19003 -10.18952 -10.18860 -10.18438
 Alpha  occ. eigenvalues --  -10.17745 -10.17021 -10.16814  -1.06988  -1.02022
 Alpha  occ. eigenvalues --   -0.90096  -0.85641  -0.79925  -0.78428  -0.75827
 Alpha  occ. eigenvalues --   -0.74787  -0.72779  -0.68585  -0.67884  -0.66782
 Alpha  occ. eigenvalues --   -0.60652  -0.58989  -0.58481  -0.56612  -0.55682
 Alpha  occ. eigenvalues --   -0.53609  -0.52511  -0.48991  -0.48279  -0.47969
 Alpha  occ. eigenvalues --   -0.46610  -0.45754  -0.45249  -0.44598  -0.43720
 Alpha  occ. eigenvalues --   -0.42551  -0.41787  -0.41230  -0.40112  -0.38657
 Alpha  occ. eigenvalues --   -0.38350  -0.38172  -0.37336  -0.37238  -0.36831
 Alpha  occ. eigenvalues --   -0.35590  -0.34958  -0.34596  -0.34090  -0.33113
 Alpha  occ. eigenvalues --   -0.33016  -0.32156  -0.32025  -0.27625  -0.25885
 Alpha  occ. eigenvalues --   -0.24802  -0.22688  -0.22126
 Alpha virt. eigenvalues --   -0.00639   0.00864   0.02530   0.06922   0.09287
 Alpha virt. eigenvalues --    0.09814   0.10581   0.12042   0.12204   0.12830
 Alpha virt. eigenvalues --    0.13743   0.13806   0.15034   0.15331   0.15415

 Mulliken charges:
               1
     1  C   -0.450568
     2  C    0.070559
     3  C   -0.464960
     4  N   -0.613693
     5  C   -0.127566
     6  C    0.093073
     7  O   -0.672682
     8  C   -0.043621
     9  O   -0.550146
    10  C    0.332466
    11  C    0.100726
    12  C   -0.386833
    13  C   -0.055915
    14  C   -0.372066
    15  C   -0.208958
    16  C   -0.153115
    17  C   -0.163959
    18  C   -0.209869
    19  H    0.146893
    20  H    0.150937
    21  H    0.143530
    22  H    0.111062
    23  H    0.148439
    24  H    0.147572
    25  H    0.151038
    26  H    0.325860
    27  H    0.156755
    28  H    0.125246
    29  H    0.141798
    30  H    0.438256
    31  H    0.160022
    32  H    0.157458
    33  H    0.168098
    34  H    0.157408
    35  H    0.144674
    36  H    0.148593
    37  H    0.151811
    38  H    0.144196
    39  H    0.144393
    40  H    0.150056
    41  H    0.163031
 Sum of Mulliken charges =  -0.00000

 Dipole moment (field-independent basis, Debye):
    X=              0.1741    Y=             -1.3529    Z=             -0.2189  Tot=              1.3815
 Quadrupole moment (field-independent basis, Debye-Ang):
   XX=           -105.7941   YY=           -103.1525   ZZ=           -112.9800
   XY=             -3.1858   XZ=             -5.0371   YZ=              2.3269

 Normal termination of Gaussian 16 at Wed Mar  2 05:07:56 2022.
