 Gaussian 16, Revision A.03,

 ----------------------------------------------------------------------
 #p b3lyp/6-31G(d) opt=(MaxStep=10,MaxCycles=1000) freq scf=(MaxCycle=2
 000,NoVarAcc,NoIncFock) scrf=(iefpcm,read,solvent=water)
 ----------------------------------------------------------------------

 -------------
 239.n.pdb.xyz
 -------------
 Symbolic Z-matrix:
 Charge =  0 Multiplicity = 1

 SCF Done:  E(RB3LYP) =  -191.860984729     A.U. after   11 cycles
 SCF Done:  E(RB3LYP) =  -191.861712132     A.U. after   10 cycles
 SCF Done:  E(RB3LYP) =  -191.861496710     A.U. after   10 cycles
 SCF Done:  E(RB3LYP) =  -191.861908523     A.U. after    9 cycles
 SCF Done:  E(RB3LYP) =  -191.861909597     A.U. after    8 cycles
 Optimization completed.
    -- Stationary point found.
 Normal termination of Gaussian 16 at Wed Mar  2 04:24:04 2022.

 --------------------------------------------------------------------
 #P Geom=AllCheck Guess=TCheck SCRF=Check GenChk RB3LYP/6-31G(d) Freq
 --------------------------------------------------------------------

 Structure from the checkpoint file:  "239.n.pdb.xyz.mst.wat.chk"
 -------------
 239.n.pdb.xyz
 -------------
 Charge =  0 Multiplicity = 1

 SCF Done:  E(RB3LYP) =  -191.861909597     A.U. after    1 cycles

  Exact polarizability:  61.590  -8.830  28.593   0.002  -0.002  23.231
 Approx polarizability:  73.966 -12.434  32.542   0.002  -0.002  24.973

                      1                      2                      3
                      A                      A                      A
 Frequencies --    162.6328               216.3019               351.6719
 Red. masses --      1.0803                 4.3567                 3.1728
 Frc consts  --      0.0168                 0.1201                 0.2312
 IR Inten    --    216.0821                10.1297                 0.3227

                      4                      5                      6
                      A                      A                      A
 Frequencies --    559.7850               618.4540               682.8386
 Red. masses --      6.8957                 1.2225                 1.2593
 Frc consts  --      1.2731                 0.2755                 0.3459
 IR Inten    --      4.0440                67.2618                51.8618

                      7                      8                      9
                      A                      A                      A
 Frequencies --    906.9545              1039.7703              1056.0809
 Red. masses --      3.4717                 1.6333                 7.5902
 Frc consts  --      1.6825                 1.0404                 4.9877
 IR Inten    --     15.4558                 6.4203               153.5142

                     10                     11                     12
                      A                      A                      A
 Frequencies --   1248.6183              1260.2430              1464.7262
 Red. masses --      1.0909                 1.0611                 1.3957
 Frc consts  --      1.0021                 0.9929                 1.7643
 IR Inten    --    118.3915                 0.6268                55.4687

                     13                     14                     15
                      A                      A                      A
 Frequencies --   1526.1070              2239.1964              3017.8154
 Red. masses --      1.0779                 5.9319                 1.0554
 Frc consts  --      1.4791                17.5237                 5.6628
 IR Inten    --      1.3202                 1.3658                58.2090

                     16                     17                     18
                      A                      A                      A
 Frequencies --   3043.1421              3490.4326              3707.5113
 Red. masses --      1.1057                 1.1619                 1.0665
 Frc consts  --      6.0332                 8.3401                 8.6377
 IR Inten    --     53.6438                82.6517                89.5467

 - Thermochemistry -
 -------------------
 Temperature   298.150 Kelvin.  Pressure   1.00000 Atm.
 Atom     1 has atomic number  8 and mass  15.99491

 Molecular mass:    56.02621 amu.
 Principal axes and moments of inertia in atomic units:
                           1         2         3
     Eigenvalues --    52.46483 388.46579 429.70475
           X            0.99954  -0.03032   0.00001
           Y            0.03032   0.99954  -0.00001
           Z           -0.00001   0.00001   1.00000
 This molecule is an asymmetric top.
 Rotational symmetry number  1.
 Rotational temperatures (Kelvin)      1.65089     0.22296     0.20157
 Rotational constants (GHZ):          34.39906     4.64582     4.19996
 Zero-point vibrational energy     159057.2 (Joules/Mol)
                                   38.01558 (Kcal/Mol)
 Warning -- explicit consideration of   5 degrees of freedom as
           vibrations may cause significant error
 Vibrational temperatures:    233.99   311.21   505.98   805.41   889.82
          (Kelvin)            982.45  1304.91  1496.00  1519.46  1796.48
                             1813.21  2107.41  2195.73  3221.70  4341.96
                             4378.40  5021.95  5334.28

 Zero-point correction=                           0.060582 (Hartree/Particle)
 Thermal correction to Energy=                    0.065535
 Thermal correction to Enthalpy=                  0.066479
 Thermal correction to Gibbs Free Energy=         0.033697
 Sum of electronic and zero-point Energies=           -191.801328
 Sum of electronic and thermal Energies=              -191.796374
 Sum of electronic and thermal Enthalpies=            -191.795430
 Sum of electronic and thermal Free Energies=         -191.828212

                     E (Thermal)             CV                S
                      KCal/Mol        Cal/Mol-Kelvin    Cal/Mol-Kelvin
 Total                   41.124             15.860             68.996
 Electronic               0.000              0.000              0.000
 Translational            0.889              2.981             37.991
 Rotational               0.889              2.981             23.686
 Vibrational             39.347              9.898              7.319
 Vibration     1          0.623              1.888              2.519
 Vibration     2          0.645              1.816              1.990
 Vibration     3          0.728              1.572              1.159
 Vibration     4          0.915              1.118              0.524
 Vibration     5          0.978              0.993              0.419

 Optimization completed.
    -- Stationary point found.
 Normal termination of Gaussian 16 at Wed Mar  2 04:24:38 2022.

 ------------------------------------------
 #p b3lyp/6-31G(d) geom=allcheck guess=read
 ------------------------------------------

 Structure from the checkpoint file:  "239.n.pdb.xyz.mst.wat.chk"
 -------------
 239.n.pdb.xyz
 -------------
 Charge =  0 Multiplicity = 1

 SCF Done:  E(RB3LYP) =  -191.848963275     A.U. after   10 cycles
 Normal termination of Gaussian 16 at Wed Mar  2 04:24:45 2022.
 Gaussian 16:  ES64L-G16RevA.03 25-Dec-2016

 ----------------------------------------------------------------------
 #p b3lyp/6-31G(d) scrf=(iefpcm,read,solvent=water) geom=allcheck guess
 =read
 ----------------------------------------------------------------------

 Structure from the checkpoint file:  "239.n.pdb.xyz.mst.wat.chk"
 -------------
 239.n.pdb.xyz
 -------------
 Charge =  0 Multiplicity = 1

                         Standard orientation:
 ---------------------------------------------------------------------
 Center     Atomic      Atomic             Coordinates (Angstroms)
 Number     Number       Type             X           Y           Z
 ---------------------------------------------------------------------
      1          8           0       -1.460570   -0.578286    0.000020
      2          6           0       -0.613854    0.570891    0.000039
      3          6           0        0.785758    0.138117   -0.000017
      4          6           0        1.942295   -0.210740   -0.000019
      5          1           0       -2.375466   -0.247185   -0.000287
      6          1           0       -0.795020    1.200010   -0.882989
      7          1           0       -0.794822    1.199677    0.883124
      8          1           0        2.964674   -0.515815   -0.000022
 ---------------------------------------------------------------------

 SCF Done:  E(RB3LYP) =  -191.862033018     A.U. after   10 cycles

 The electronic state is 1-A.
 Alpha  occ. eigenvalues --  -19.14806 -10.25621 -10.19599 -10.18984  -1.01941
 Alpha  occ. eigenvalues --   -0.77217  -0.69242  -0.53408  -0.51584  -0.46173
 Alpha  occ. eigenvalues --   -0.46033  -0.35588  -0.29210  -0.28502  -0.26371
 Alpha virt. eigenvalues --    0.02705   0.05152   0.11476   0.13222   0.14811
 Alpha virt. eigenvalues --    0.18778   0.23313   0.24456   0.42202   0.45760
 Alpha virt. eigenvalues --    0.51380   0.52535   0.58469   0.65705   0.68416

 Mulliken charges:
               1
     1  O   -0.663769
     2  C   -0.150366
     3  C    0.295718
     4  C   -0.507522
     5  H    0.449395
     6  H    0.175085
     7  H    0.175128
     8  H    0.226333
 Sum of Mulliken charges =  -0.00000

 Dipole moment (field-independent basis, Debye):
    X=             -1.2921    Y=              2.0726    Z=             -0.0003  Tot=              2.4424
 Quadrupole moment (field-independent basis, Debye-Ang):
   XX=            -13.4404   YY=            -24.4909   ZZ=            -24.3403
   XY=             -3.8209   XZ=              0.0015   YZ=              0.0001

 Normal termination of Gaussian 16 at Wed Mar  2 04:24:52 2022.
