 Gaussian 16, Revision A.03,

 ----------------------------------------------------------------------
 #p b3lyp/6-31G(d) opt=(MaxStep=10,MaxCycles=1000) freq scf=(MaxCycle=2
 000,NoVarAcc,NoIncFock) scrf=(iefpcm,read,solvent=water)
 ----------------------------------------------------------------------

 ------------
 24.n.pdb.xyz
 ------------
 Symbolic Z-matrix:
 Charge =  0 Multiplicity = 1

 SCF Done:  E(RB3LYP) =  -1827.80345244     A.U. after   13 cycles
 SCF Done:  E(RB3LYP) =  -1827.80768411     A.U. after   10 cycles
 SCF Done:  E(RB3LYP) =  -1827.80982956     A.U. after   11 cycles
 SCF Done:  E(RB3LYP) =  -1827.80927989     A.U. after   10 cycles
 SCF Done:  E(RB3LYP) =  -1827.81101375     A.U. after   10 cycles
 SCF Done:  E(RB3LYP) =  -1827.81126550     A.U. after   10 cycles
 SCF Done:  E(RB3LYP) =  -1827.81092968     A.U. after   11 cycles
 SCF Done:  E(RB3LYP) =  -1827.81122999     A.U. after   10 cycles
 SCF Done:  E(RB3LYP) =  -1827.81135889     A.U. after   10 cycles
 SCF Done:  E(RB3LYP) =  -1827.81140915     A.U. after   10 cycles
 SCF Done:  E(RB3LYP) =  -1827.81156589     A.U. after   10 cycles
 SCF Done:  E(RB3LYP) =  -1827.81153271     A.U. after   10 cycles
 SCF Done:  E(RB3LYP) =  -1827.81163962     A.U. after   10 cycles
 SCF Done:  E(RB3LYP) =  -1827.81160657     A.U. after    9 cycles
 SCF Done:  E(RB3LYP) =  -1827.81159906     A.U. after    8 cycles
 SCF Done:  E(RB3LYP) =  -1827.81159725     A.U. after    7 cycles
 SCF Done:  E(RB3LYP) =  -1827.81159665     A.U. after    6 cycles
 Optimization completed.
    -- Stationary point found.
 Normal termination of Gaussian 16 at Tue Mar  1 21:59:36 2022.

 --------------------------------------------------------------------
 #P Geom=AllCheck Guess=TCheck SCRF=Check GenChk RB3LYP/6-31G(d) Freq
 --------------------------------------------------------------------

 Structure from the checkpoint file:  "24.n.pdb.xyz.mst.wat.chk"
 ------------
 24.n.pdb.xyz
 ------------
 Charge =  0 Multiplicity = 1

 SCF Done:  E(RB3LYP) =  -1827.81159665     A.U. after    1 cycles

  Exact polarizability: 367.540  18.665 292.300  32.752 -13.480 229.377
 Approx polarizability: 366.600  21.653 323.451  39.043 -15.893 260.710

 ******    1 imaginary frequencies (negative Signs) ******

                      1                      2                      3
                      A                      A                      A
 Frequencies --     -7.9131                10.6388                13.0082
 Red. masses --      4.8433                 3.9200                 7.4121
 Frc consts  --      0.0002                 0.0003                 0.0007
 IR Inten    --      0.5832                 0.4784                 0.6800

                      4                      5                      6
                      A                      A                      A
 Frequencies --     21.7221                36.4821                43.7475
 Red. masses --      4.9641                 8.4808                 3.7862
 Frc consts  --      0.0014                 0.0067                 0.0043
 IR Inten    --      0.7648                 2.5757                 0.5268

                      7                      8                      9
                      A                      A                      A
 Frequencies --     54.2043                79.3952                82.9353
 Red. masses --      5.7844                 1.9968                 3.8279
 Frc consts  --      0.0100                 0.0074                 0.0155
 IR Inten    --      0.3386                 0.1110                 0.4459

                     10                     11                     12
                      A                      A                      A
 Frequencies --     91.7422               105.9372               113.4129
 Red. masses --      6.0508                 3.9265                 3.9319
 Frc consts  --      0.0300                 0.0260                 0.0298
 IR Inten    --      1.7818                 3.8498                 6.5744

                     13                     14                     15
                      A                      A                      A
 Frequencies --    122.2691               127.7945               169.3743
 Red. masses --      3.0052                 2.9879                 4.8319
 Frc consts  --      0.0265                 0.0287                 0.0817
 IR Inten    --      4.2253                 2.6829                 2.8377

                     16                     17                     18
                      A                      A                      A
 Frequencies --    182.7128               193.1640               208.3636
 Red. masses --      3.8738                 4.0425                 1.0901
 Frc consts  --      0.0762                 0.0889                 0.0279
 IR Inten    --      0.2388                 2.7935                 0.0862

                     19                     20                     21
                      A                      A                      A
 Frequencies --    228.8945               246.3200               256.6230
 Red. masses --      6.0576                 1.0651                 2.8636
 Frc consts  --      0.1870                 0.0381                 0.1111
 IR Inten    --     12.3347                 0.4201                 5.8101

                     22                     23                     24
                      A                      A                      A
 Frequencies --    257.3499               260.6418               308.3329
 Red. masses --      3.2569                 1.1801                 3.6410
 Frc consts  --      0.1271                 0.0472                 0.2039
 IR Inten    --      4.3991                 0.7231                 0.9784

                     25                     26                     27
                      A                      A                      A
 Frequencies --    322.9476               339.0906               344.4734
 Red. masses --      3.4077                 3.7247                 2.3873
 Frc consts  --      0.2094                 0.2523                 0.1669
 IR Inten    --     11.5917                 7.0259                 2.9106

                     28                     29                     30
                      A                      A                      A
 Frequencies --    357.6961               384.9896               420.2306
 Red. masses --      2.6540                 3.3381                 2.6961
 Frc consts  --      0.2001                 0.2915                 0.2805
 IR Inten    --      0.3958                 5.1759                 2.8685

                     31                     32                     33
                      A                      A                      A
 Frequencies --    431.7439               435.5765               444.5653
 Red. masses --      3.2247                 3.1424                 3.0401
 Frc consts  --      0.3542                 0.3513                 0.3540
 IR Inten    --      2.2216                21.3348                15.2050

                     34                     35                     36
                      A                      A                      A
 Frequencies --    448.4204               495.8196               515.7748
 Red. masses --      2.7888                 2.7613                 2.7484
 Frc consts  --      0.3304                 0.4000                 0.4308
 IR Inten    --      3.9008                 0.5415                12.6864

                     37                     38                     39
                      A                      A                      A
 Frequencies --    547.8008               570.7097               586.3142
 Red. masses --      3.2184                 2.6937                 2.3646
 Frc consts  --      0.5690                 0.5169                 0.4789
 IR Inten    --     15.3682                12.5167                 8.4721

                     40                     41                     42
                      A                      A                      A
 Frequencies --    641.7770               655.7375               686.9883
 Red. masses --      5.0006                 6.4550                 4.4769
 Frc consts  --      1.2135                 1.6353                 1.2449
 IR Inten    --     43.6072                 0.5965                22.0528

                     43                     44                     45
                      A                      A                      A
 Frequencies --    716.1126               736.3683               741.9127
 Red. masses --      5.3601                 4.2252                 1.2216
 Frc consts  --      1.6195                 1.3498                 0.3962
 IR Inten    --     45.9857                26.2772                11.4069

                     46                     47                     48
                      A                      A                      A
 Frequencies --    747.8345               765.8352               783.2390
 Red. masses --      4.3712                 4.4181                 1.1501
 Frc consts  --      1.4403                 1.5267                 0.4157
 IR Inten    --     39.1231                34.6228                 9.5035

                     49                     50                     51
                      A                      A                      A
 Frequencies --    826.0707               827.4986               844.5457
 Red. masses --      2.1113                 1.2479                 2.8135
 Frc consts  --      0.8489                 0.5035                 1.1823
 IR Inten    --     71.3868                 1.6020                17.7511

                     52                     53                     54
                      A                      A                      A
 Frequencies --    854.4161               855.7681               899.4109
 Red. masses --      1.6833                 2.8926                 2.1469
 Frc consts  --      0.7240                 1.2481                 1.0233
 IR Inten    --      6.4663                35.0650                 3.1673

                     55                     56                     57
                      A                      A                      A
 Frequencies --    923.9837               930.1007               932.1552
 Red. masses --      2.1622                 1.6126                 1.6179
 Frc consts  --      1.0876                 0.8219                 0.8283
 IR Inten    --     53.6159                 0.1946                 0.1166

                     58                     59                     60
                      A                      A                      A
 Frequencies --    954.4808               959.5337               960.1257
 Red. masses --      1.3232                 3.4076                 1.4425
 Frc consts  --      0.7102                 1.8485                 0.7835
 IR Inten    --      0.5182                 9.2234                 2.1571

                     61                     62                     63
                      A                      A                      A
 Frequencies --    971.2487              1022.6901              1028.9974
 Red. masses --      1.1979                 3.1775                 2.4997
 Frc consts  --      0.6658                 1.9580                 1.5595
 IR Inten    --      0.2806                13.3248                 5.2166

                     64                     65                     66
                      A                      A                      A
 Frequencies --   1037.6378              1042.9305              1055.4564
 Red. masses --      2.0232                 2.9888                 1.4060
 Frc consts  --      1.2835                 1.9154                 0.9228
 IR Inten    --     14.4546                23.6021                 0.8003

                     67                     68                     69
                      A                      A                      A
 Frequencies --   1060.1750              1064.8938              1066.9761
 Red. masses --      1.7865                 1.4679                 3.2237
 Frc consts  --      1.1831                 0.9808                 2.1623
 IR Inten    --      4.8440                 2.0796                10.2688

                     70                     71                     72
                      A                      A                      A
 Frequencies --   1082.3542              1086.6555              1149.1156
 Red. masses --      3.4086                 1.6098                 1.4505
 Frc consts  --      2.3527                 1.1200                 1.1285
 IR Inten    --     11.3059                 2.9072                 1.3317

                     73                     74                     75
                      A                      A                      A
 Frequencies --   1172.6256              1178.7193              1188.3304
 Red. masses --      1.3301                 2.6497                 1.3764
 Frc consts  --      1.0776                 2.1690                 1.1452
 IR Inten    --      3.6865               698.5597                67.8778

                     76                     77                     78
                      A                      A                      A
 Frequencies --   1217.2707              1229.1497              1233.0605
 Red. masses --      1.3175                 1.2967                 1.6985
 Frc consts  --      1.1502                 1.1543                 1.5216
 IR Inten    --     60.6631                 7.6729                25.4841

                     79                     80                     81
                      A                      A                      A
 Frequencies --   1241.7685              1251.8951              1277.1457
 Red. masses --      1.9430                 1.8061                 2.7116
 Frc consts  --      1.7652                 1.6678                 2.6059
 IR Inten    --    100.4351                20.8554                28.9428

                     82                     83                     84
                      A                      A                      A
 Frequencies --   1289.2380              1290.2583              1293.9203
 Red. masses --      1.7164                 1.9982                 1.1759
 Frc consts  --      1.6808                 1.9599                 1.1599
 IR Inten    --     20.2193                40.1415                28.3529

                     85                     86                     87
                      A                      A                      A
 Frequencies --   1298.0241              1300.2131              1330.3091
 Red. masses --      1.9745                 1.4309                 1.1923
 Frc consts  --      1.9601                 1.4252                 1.2432
 IR Inten    --     45.5757               110.0667                17.9447

                     88                     89                     90
                      A                      A                      A
 Frequencies --   1332.2312              1350.5136              1368.5802
 Red. masses --      1.3959                 1.4571                 1.4239
 Frc consts  --      1.4597                 1.5658                 1.5713
 IR Inten    --     78.7508                34.3236                12.8228

                     91                     92                     93
                      A                      A                      A
 Frequencies --   1370.7495              1372.7699              1390.3986
 Red. masses --      1.7087                 1.8741                 1.6495
 Frc consts  --      1.8916                 2.0808                 1.8788
 IR Inten    --    173.2644                 7.7163               204.3135

                     94                     95                     96
                      A                      A                      A
 Frequencies --   1406.7044              1406.9038              1414.0957
 Red. masses --      1.3202                 1.3698                 1.4923
 Frc consts  --      1.5392                 1.5975                 1.7582
 IR Inten    --     19.7633                57.7763                26.9979

                     97                     98                     99
                      A                      A                      A
 Frequencies --   1417.8936              1434.8239              1439.3731
 Red. masses --      1.5497                 1.2573                 1.3813
 Frc consts  --      1.8356                 1.5250                 1.6862
 IR Inten    --     55.4354                15.7413                 9.6900

                    100                    101                    102
                      A                      A                      A
 Frequencies --   1471.8766              1473.4955              1479.5915
 Red. masses --      2.3706                 1.0874                 1.1016
 Frc consts  --      3.0259                 1.3911                 1.4209
 IR Inten    --      9.1215                21.1364                 1.2435

                    103                    104                    105
                      A                      A                      A
 Frequencies --   1489.2714              1491.4767              1497.9928
 Red. masses --      1.0484                 1.1002                 1.2002
 Frc consts  --      1.3700                 1.4419                 1.5867
 IR Inten    --      0.6320                15.5223                 5.0755

                    106                    107                    108
                      A                      A                      A
 Frequencies --   1503.3315              1504.7913              1506.3678
 Red. masses --      1.1000                 1.0479                 1.0539
 Frc consts  --      1.4647                 1.3981                 1.4090
 IR Inten    --     25.4517                 0.6547                 3.3165

                    109                    110                    111
                      A                      A                      A
 Frequencies --   1508.3063              1516.5285              1518.2732
 Red. masses --      1.0621                 1.0555                 1.0960
 Frc consts  --      1.4237                 1.4302                 1.4886
 IR Inten    --     11.1518                 2.2313                 8.9118

                    112                    113                    114
                      A                      A                      A
 Frequencies --   1532.9213              1539.2811              1565.9617
 Red. masses --      1.0546                 1.0951                 2.4527
 Frc consts  --      1.4601                 1.5287                 3.5437
 IR Inten    --     13.2019                18.7255               305.5742

                    115                    116                    117
                      A                      A                      A
 Frequencies --   1615.8717              1672.5902              1769.2562
 Red. masses --      5.9855                 5.8353                11.3318
 Frc consts  --      9.2080                 9.6182                20.8992
 IR Inten    --     14.6375               154.1444               397.0670

                    118                    119                    120
                      A                      A                      A
 Frequencies --   3035.1961              3037.5995              3059.3512
 Red. masses --      1.0595                 1.0704                 1.0613
 Frc consts  --      5.7507                 5.8194                 5.8528
 IR Inten    --     71.0225                54.4043                 6.4587

                    121                    122                    123
                      A                      A                      A
 Frequencies --   3066.7957              3069.9738              3071.4145
 Red. masses --      1.0601                 1.0362                 1.1026
 Frc consts  --      5.8745                 5.7542                 6.1285
 IR Inten    --     68.3204                23.8247                23.0319

                    124                    125                    126
                      A                      A                      A
 Frequencies --   3071.8922              3078.9041              3079.4909
 Red. masses --      1.0368                 1.0381                 1.0633
 Frc consts  --      5.7643                 5.7983                 5.9409
 IR Inten    --     37.9370                21.2866                49.1680

                    127                    128                    129
                      A                      A                      A
 Frequencies --   3090.9637              3111.9527              3134.1681
 Red. masses --      1.1010                 1.1051                 1.0918
 Frc consts  --      6.1976                 6.3058                 6.3191
 IR Inten    --      1.2737                94.3510                 2.1504

                    130                    131                    132
                      A                      A                      A
 Frequencies --   3135.5875              3138.5798              3138.8888
 Red. masses --      1.1030                 1.0754                 1.1029
 Frc consts  --      6.3897                 6.2414                 6.4023
 IR Inten    --     20.6513                22.8607                26.9717

                    133                    134                    135
                      A                      A                      A
 Frequencies --   3143.3410              3144.7417              3146.4737
 Red. masses --      1.0728                 1.1036                 1.0703
 Frc consts  --      6.2450                 6.4304                 6.2429
 IR Inten    --     13.6566                55.6317                43.0945

                    136                    137                    138
                      A                      A                      A
 Frequencies --   3151.2821              3177.6969              3182.4564
 Red. masses --      1.1026                 1.1004                 1.1000
 Frc consts  --      6.4514                 6.5470                 6.5642
 IR Inten    --     62.3415                 9.0726                26.8777

                    139                    140                    141
                      A                      A                      A
 Frequencies --   3187.1888              3188.5536              3206.9918
 Red. masses --      1.0893                 1.0892                 1.1103
 Frc consts  --      6.5197                 6.5242                 6.7278
 IR Inten    --     37.5183                37.0853                15.6496

                    142                    143                    144
                      A                      A                      A
 Frequencies --   3214.4511              3239.1437              3239.8614
 Red. masses --      1.1106                 1.0903                 1.0904
 Frc consts  --      6.7612                 6.7400                 6.7435
 IR Inten    --      6.7364                36.8966                14.7953

 - Thermochemistry -
 -------------------
 Temperature   298.150 Kelvin.  Pressure   1.00000 Atm.
 Atom     1 has atomic number  6 and mass  12.00000

 Molecular mass:   359.14188 amu.
 Principal axes and moments of inertia in atomic units:
                           1         2         3
     Eigenvalues --  3689.69301********************
           X            0.99999  -0.00408   0.00193
           Y            0.00411   0.99989  -0.01413
           Z           -0.00187   0.01414   0.99990
 This molecule is an asymmetric top.
 Rotational symmetry number  1.
 Warning -- assumption of classical behavior for rotation
           may cause significant error
 Rotational temperatures (Kelvin)      0.02347     0.00247     0.00233
 Rotational constants (GHZ):           0.48913     0.05145     0.04864
    1 imaginary frequencies ignored.
 Zero-point vibrational energy    1121327.6 (Joules/Mol)
                                  268.00373 (Kcal/Mol)
 Warning -- explicit consideration of  38 degrees of freedom as
           vibrations may cause significant error
 Vibrational temperatures:     15.31    18.72    31.25    52.49    62.94
          (Kelvin)             77.99   114.23   119.33   132.00   152.42
                              163.18   175.92   183.87   243.69   262.88
                              277.92   299.79   329.33   354.40   369.22
                              370.27   375.01   443.62   464.65   487.88
                              495.62   514.64   553.91   604.62   621.18
                              626.70   639.63   645.18   713.37   742.08
                              788.16   821.12   843.58   923.37   943.46
                              988.42  1030.33  1059.47  1067.45  1075.97
                             1101.87  1126.91  1188.53  1190.59  1215.11
                             1229.31  1231.26  1294.05  1329.41  1338.21
                             1341.16  1373.29  1380.55  1381.41  1397.41
                             1471.42  1480.50  1492.93  1500.54  1518.57
                             1525.36  1532.14  1535.14  1557.27  1563.45
                             1653.32  1687.15  1695.91  1709.74  1751.38
                             1768.47  1774.10  1786.63  1801.20  1837.53
                             1854.93  1856.39  1861.66  1867.57  1870.72
                             1914.02  1916.78  1943.09  1969.08  1972.20
                             1975.11  2000.47  2023.93  2024.22  2034.57
                             2040.03  2064.39  2070.94  2117.70  2120.03
                             2128.80  2142.73  2145.90  2155.28  2162.96
                             2165.06  2167.33  2170.12  2181.95  2184.46
                             2205.53  2214.68  2253.07  2324.88  2406.48
                             2545.57  4366.97  4370.43  4401.72  4412.44
                             4417.01  4419.08  4419.77  4429.86  4430.70
                             4447.21  4477.41  4509.37  4511.41  4515.72
                             4516.16  4522.57  4524.58  4527.07  4533.99
                             4572.00  4578.85  4585.65  4587.62  4614.15
                             4624.88  4660.41  4661.44

 Zero-point correction=                           0.427091 (Hartree/Particle)
 Thermal correction to Energy=                    0.451983
 Thermal correction to Enthalpy=                  0.452927
 Thermal correction to Gibbs Free Energy=         0.367703
 Sum of electronic and zero-point Energies=          -1827.384506
 Sum of electronic and thermal Energies=             -1827.359614
 Sum of electronic and thermal Enthalpies=           -1827.358670
 Sum of electronic and thermal Free Energies=        -1827.443894

                     E (Thermal)             CV                S
                      KCal/Mol        Cal/Mol-Kelvin    Cal/Mol-Kelvin
 Total                  283.623             92.235            179.369
 Electronic               0.000              0.000              0.000
 Translational            0.889              2.981             43.529
 Rotational               0.889              2.981             36.816
 Vibrational            281.846             86.273             99.024
 Vibration     1          0.593              1.987              7.888
 Vibration     2          0.593              1.987              7.489
 Vibration     3          0.593              1.985              6.470
 Vibration     4          0.594              1.982              5.442
 Vibration     5          0.595              1.980              5.082
 Vibration     6          0.596              1.976              4.658
 Vibration     7          0.600              1.963              3.906
 Vibration     8          0.600              1.961              3.820
 Vibration     9          0.602              1.955              3.623
 Vibration    10          0.605              1.944              3.342
 Vibration    11          0.607              1.938              3.210
 Vibration    12          0.610              1.931              3.064
 Vibration    13          0.611              1.925              2.979
 Vibration    14          0.625              1.880              2.442
 Vibration    15          0.630              1.863              2.301
 Vibration    16          0.635              1.849              2.197
 Vibration    17          0.642              1.828              2.058
 Vibration    18          0.652              1.797              1.888
 Vibration    19          0.661              1.769              1.757
 Vibration    20          0.666              1.752              1.685
 Vibration    21          0.667              1.750              1.680
 Vibration    22          0.669              1.745              1.657
 Vibration    23          0.698              1.658              1.371
 Vibration    24          0.708              1.630              1.295
 Vibration    25          0.719              1.597              1.216
 Vibration    26          0.723              1.587              1.191
 Vibration    27          0.733              1.559              1.132
 Vibration    28          0.754              1.502              1.019
 Vibration    29          0.783              1.426              0.891
 Vibration    30          0.793              1.401              0.853
 Vibration    31          0.796              1.393              0.841
 Vibration    32          0.804              1.373              0.812
 Vibration    33          0.807              1.364              0.801
 Vibration    34          0.851              1.259              0.669
 Vibration    35          0.871              1.215              0.620
 Vibration    36          0.903              1.144              0.549
 Vibration    37          0.927              1.095              0.503
 Vibration    38          0.943              1.061              0.474

                           ! Non-Optimized Parameters !
 Normal termination of Gaussian 16 at Tue Mar  1 23:09:24 2022.

 ------------------------------------------
 #p b3lyp/6-31G(d) geom=allcheck guess=read
 ------------------------------------------

 Structure from the checkpoint file:  "24.n.pdb.xyz.mst.wat.chk"
 ------------
 24.n.pdb.xyz
 ------------
 Charge =  0 Multiplicity = 1

 SCF Done:  E(RB3LYP) =  -1827.80112882     A.U. after   11 cycles
 Normal termination of Gaussian 16 at Tue Mar  1 23:13:15 2022.
 Gaussian 16:  ES64L-G16RevA.03 25-Dec-2016

 ----------------------------------------------------------------------
 #p b3lyp/6-31G(d) scrf=(iefpcm,read,solvent=water) geom=allcheck guess
 =read
 ----------------------------------------------------------------------

 Structure from the checkpoint file:  "24.n.pdb.xyz.mst.wat.chk"
 ------------
 24.n.pdb.xyz
 ------------
 Charge =  0 Multiplicity = 1

                         Standard orientation:
 ---------------------------------------------------------------------
 Center     Atomic      Atomic             Coordinates (Angstroms)
 Number     Number       Type             X           Y           Z
 ---------------------------------------------------------------------
      1          6           0       -7.486778    1.567647    0.934617
      2          6           0       -7.500251    0.200789    0.251205
      3          6           0       -8.579337    0.142091   -0.827119
      4          6           0       -7.657232   -0.950562    1.243978
      5          8           0       -6.253497    0.019755   -0.526586
      6          6           0       -5.045859    0.008704    0.058979
      7          8           0       -4.843615    0.150414    1.252875
      8          6           0       -3.960080   -0.210257   -0.976947
      9          6           0       -2.547204   -0.174374   -0.397876
     10          6           0       -1.471636   -0.404694   -1.475049
     11          6           0       -0.064727   -0.363776   -0.923407
     12          6           0        0.678967    0.822016   -0.901795
     13          6           0        1.963432    0.880097   -0.367691
     14          6           0        2.572437   -0.265171    0.189586
     15          6           0        1.831346   -1.466728    0.154376
     16          6           0        0.547657   -1.502064   -0.386448
     17          7           0        3.852196   -0.210195    0.747411
     18          6           0        4.497604    1.076262    0.965710
     19          6           0        5.260574    1.543323   -0.270945
     20         17           0        6.025888    3.166790    0.032007
     21          6           0        4.428509   -1.390611    1.368722
     22          6           0        4.981728   -2.443759    0.415242
     23         17           0        6.473796   -1.869611   -0.465561
     24          1           0       -7.326712    2.359867    0.197616
     25          1           0       -6.701338    1.620216    1.688013
     26          1           0       -8.452458    1.741836    1.417969
     27          1           0       -8.436288    0.939627   -1.561626
     28          1           0       -9.565991    0.263625   -0.372830
     29          1           0       -8.554471   -0.819457   -1.347209
     30          1           0       -8.624564   -0.867328    1.747705
     31          1           0       -6.866899   -0.928874    1.993689
     32          1           0       -7.626158   -1.911017    0.721214
     33          1           0       -4.158068   -1.171886   -1.465923
     34          1           0       -4.084999    0.548296   -1.758256
     35          1           0       -2.450578   -0.936687    0.382501
     36          1           0       -2.374356    0.791426    0.089007
     37          1           0       -1.652835   -1.373806   -1.955976
     38          1           0       -1.580769    0.357545   -2.255878
     39          1           0        0.249769    1.728218   -1.321208
     40          1           0        2.494943    1.822593   -0.397564
     41          1           0        2.252800   -2.382709    0.547186
     42          1           0        0.013882   -2.448847   -0.392022
     43          1           0        5.194647    0.980067    1.800463
     44          1           0        3.755711    1.829441    1.248354
     45          1           0        4.603527    1.666430   -1.130122
     46          1           0        6.061863    0.852654   -0.523080
     47          1           0        5.223072   -1.069441    2.043059
     48          1           0        3.677508   -1.896168    1.990509
     49          1           0        5.283452   -3.331730    0.969418
     50          1           0        4.267292   -2.719512   -0.357614
 ---------------------------------------------------------------------

 SCF Done:  E(RB3LYP) =  -1827.81034279     A.U. after   11 cycles

 The electronic state is 1-A.
 Alpha  occ. eigenvalues -- -101.53878-101.53827 -19.18432 -19.13647 -14.36129
 Alpha  occ. eigenvalues --  -10.31671 -10.25542 -10.24658 -10.24153 -10.23317
 Alpha  occ. eigenvalues --  -10.23268 -10.22999 -10.19292 -10.18724 -10.18709
 Alpha  occ. eigenvalues --  -10.18540 -10.18530 -10.18517 -10.18382 -10.18322
 Alpha  occ. eigenvalues --  -10.17564 -10.17288 -10.17277  -9.45527  -9.45479
 Alpha  occ. eigenvalues --   -7.21885  -7.21836  -7.20967  -7.20947  -7.20916
 Alpha  occ. eigenvalues --   -7.20902  -1.09396  -1.01161  -0.95853  -0.85747
 Alpha  occ. eigenvalues --   -0.85685  -0.84458  -0.81667  -0.79625  -0.76472
 Alpha  occ. eigenvalues --   -0.75909  -0.73936  -0.71748  -0.69304  -0.69228
 Alpha  occ. eigenvalues --   -0.68640  -0.64134  -0.63435  -0.61463  -0.60415
 Alpha  occ. eigenvalues --   -0.58525  -0.56690  -0.53153  -0.51671  -0.50442
 Alpha  occ. eigenvalues --   -0.49322  -0.48331  -0.47643  -0.47266  -0.46710
 Alpha  occ. eigenvalues --   -0.46285  -0.45815  -0.45317  -0.44341  -0.43471
 Alpha  occ. eigenvalues --   -0.43038  -0.42469  -0.41888  -0.41449  -0.41385
 Alpha  occ. eigenvalues --   -0.40528  -0.40169  -0.39702  -0.38879  -0.38690
 Alpha  occ. eigenvalues --   -0.37969  -0.36985  -0.36745  -0.36727  -0.36451
 Alpha  occ. eigenvalues --   -0.35763  -0.34815  -0.34623  -0.33903  -0.33643
 Alpha  occ. eigenvalues --   -0.32716  -0.32578  -0.31319  -0.30415  -0.30326
 Alpha  occ. eigenvalues --   -0.29652  -0.29618  -0.28232  -0.26758  -0.25116
 Alpha  occ. eigenvalues --   -0.19632
 Alpha virt. eigenvalues --   -0.00500   0.00868   0.01203   0.02227   0.02766
 Alpha virt. eigenvalues --    0.08785   0.09191   0.09919   0.10163   0.10406
 Alpha virt. eigenvalues --    0.11025   0.12675   0.13024   0.13523   0.14670

 Mulliken charges:
               1
     1  C   -0.468063
     2  C    0.306044
     3  C   -0.460348
     4  C   -0.468363
     5  O   -0.505389
     6  C    0.656449
     7  O   -0.534498
     8  C   -0.362550
     9  C   -0.247942
    10  C   -0.353979
    11  C    0.158797
    12  C   -0.217401
    13  C   -0.209100
    14  C    0.351195
    15  C   -0.212808
    16  C   -0.217121
    17  N   -0.487819
    18  C   -0.151417
    19  C   -0.369355
    20  Cl  -0.136201
    21  C   -0.158136
    22  C   -0.353549
    23  Cl  -0.133928
    24  H    0.154128
    25  H    0.171889
    26  H    0.156462
    27  H    0.157039
    28  H    0.159566
    29  H    0.157033
    30  H    0.156701
    31  H    0.171832
    32  H    0.154134
    33  H    0.182563
    34  H    0.180998
    35  H    0.147030
    36  H    0.146409
    37  H    0.148233
    38  H    0.148107
    39  H    0.141293
    40  H    0.147257
    41  H    0.147478
    42  H    0.141248
    43  H    0.181577
    44  H    0.177035
    45  H    0.213037
    46  H    0.224248
    47  H    0.188525
    48  H    0.184836
    49  H    0.217130
    50  H    0.219694
 Sum of Mulliken charges =  -0.00000

 Dipole moment (field-independent basis, Debye):
    X=             -3.7235    Y=             -3.4218    Z=              0.1359  Tot=              5.0588
 Quadrupole moment (field-independent basis, Debye-Ang):
   XX=           -152.9330   YY=           -150.7261   ZZ=           -153.6009
   XY=            -15.5645   XZ=             19.1669   YZ=             -5.9259

 Normal termination of Gaussian 16 at Tue Mar  1 23:19:57 2022.
