 Gaussian 16, Revision A.03,

 ----------------------------------------------------------------------
 #p b3lyp/6-31G(d) opt=(MaxStep=10,MaxCycles=1000) freq scf=(MaxCycle=2
 000,NoVarAcc,NoIncFock) scrf=(iefpcm,read,solvent=water)
 ----------------------------------------------------------------------

 -------------
 241.n.pdb.xyz
 -------------
 Symbolic Z-matrix:
 Charge =  0 Multiplicity = 1

 SCF Done:  E(RB3LYP) =  -647.887379578     A.U. after   13 cycles
 SCF Done:  E(RB3LYP) =  -647.890062113     A.U. after   12 cycles
 SCF Done:  E(RB3LYP) =  -647.887103936     A.U. after   14 cycles
 SCF Done:  E(RB3LYP) =  -647.890809620     A.U. after   12 cycles
 SCF Done:  E(RB3LYP) =  -647.890939144     A.U. after   11 cycles
 SCF Done:  E(RB3LYP) =  -647.891012694     A.U. after   10 cycles
 SCF Done:  E(RB3LYP) =  -647.891051491     A.U. after   11 cycles
 SCF Done:  E(RB3LYP) =  -647.890929458     A.U. after   11 cycles
 SCF Done:  E(RB3LYP) =  -647.891031276     A.U. after   10 cycles
 SCF Done:  E(RB3LYP) =  -647.891051310     A.U. after   11 cycles
 SCF Done:  E(RB3LYP) =  -647.891009129     A.U. after   11 cycles
 SCF Done:  E(RB3LYP) =  -647.890987572     A.U. after    9 cycles
 SCF Done:  E(RB3LYP) =  -647.891054254     A.U. after   11 cycles
 SCF Done:  E(RB3LYP) =  -647.891000020     A.U. after   11 cycles
 SCF Done:  E(RB3LYP) =  -647.890992676     A.U. after    8 cycles
 SCF Done:  E(RB3LYP) =  -647.891053333     A.U. after   11 cycles
 SCF Done:  E(RB3LYP) =  -647.890997277     A.U. after   11 cycles
 Optimization completed on the basis of negligible forces.
    -- Stationary point found.
 Normal termination of Gaussian 16 at Tue Mar  1 06:22:21 2022.

 --------------------------------------------------------------------
 #P Geom=AllCheck Guess=TCheck SCRF=Check GenChk RB3LYP/6-31G(d) Freq
 --------------------------------------------------------------------

 Structure from the checkpoint file:  "241.n.pdb.xyz.mst.wat.chk"
 -------------
 241.n.pdb.xyz
 -------------
 Charge =  0 Multiplicity = 1

 SCF Done:  E(RB3LYP) =  -647.890997277     A.U. after    1 cycles

  Exact polarizability: 132.427  -1.848 163.484 -19.859   2.139  73.188
 Approx polarizability: 163.698  -0.004 199.587 -28.983   1.829  86.884

                      1                      2                      3
                      A                      A                      A
 Frequencies --     29.9510                51.1678                88.4002
 Red. masses --      9.8405                 8.9137                 3.1955
 Frc consts  --      0.0052                 0.0138                 0.0147
 IR Inten    --      1.8970                 3.5593                 3.3140

                      4                      5                      6
                      A                      A                      A
 Frequencies --    103.8167               150.1547               186.6465
 Red. masses --      3.1784                 2.9145                 5.9419
 Frc consts  --      0.0202                 0.0387                 0.1220
 IR Inten    --      4.6125                 2.8374                 0.5876

                      7                      8                      9
                      A                      A                      A
 Frequencies --    235.1018               265.0261               308.9603
 Red. masses --      4.6543                 5.5437                 7.5010
 Frc consts  --      0.1516                 0.2294                 0.4219
 IR Inten    --      5.4552                 2.4415                 0.9394

                     10                     11                     12
                      A                      A                      A
 Frequencies --    360.0194               455.9948               474.2229
 Red. masses --      3.1655                 6.0838                 5.3597
 Frc consts  --      0.2417                 0.7453                 0.7102
 IR Inten    --      2.1120                12.9554                 3.6828

                     13                     14                     15
                      A                      A                      A
 Frequencies --    563.7159               645.4689               662.1619
 Red. masses --      5.8031                 3.6128                 8.1574
 Frc consts  --      1.0865                 0.8868                 2.1073
 IR Inten    --      0.4104                11.4388                24.3931

                     16                     17                     18
                      A                      A                      A
 Frequencies --    746.0316               748.8641               773.5522
 Red. masses --      6.3682                 8.8579                 1.0996
 Frc consts  --      2.0882                 2.9268                 0.3877
 IR Inten    --     26.5923                 3.6023                 3.3754

                     19                     20                     21
                      A                      A                      A
 Frequencies --    798.5976               844.1462               881.4261
 Red. masses --      1.2896                11.7379                 1.2691
 Frc consts  --      0.4846                 4.9281                 0.5809
 IR Inten    --     49.1876                87.3346                 2.0627

                     22                     23                     24
                      A                      A                      A
 Frequencies --    884.8434               933.8028              1040.2281
 Red. masses --      1.3730                 5.9759                 5.7632
 Frc consts  --      0.6334                 3.0702                 3.6743
 IR Inten    --      1.4153                17.7580                82.1118

                     25                     26                     27
                      A                      A                      A
 Frequencies --   1061.6164              1085.3975              1100.5598
 Red. masses --      3.1277                 4.1084                 1.6909
 Frc consts  --      2.0769                 2.8517                 1.2067
 IR Inten    --     70.6941                36.5505                23.4780

                     28                     29                     30
                      A                      A                      A
 Frequencies --   1124.2258              1187.6081              1212.8937
 Red. masses --      1.6004                 2.7332                 2.5087
 Frc consts  --      1.1918                 2.2713                 2.1744
 IR Inten    --     92.9342                 4.5058               194.6696

                     31                     32                     33
                      A                      A                      A
 Frequencies --   1241.1930              1298.9648              1308.0813
 Red. masses --      1.4863                 1.7947                 1.3310
 Frc consts  --      1.3490                 1.7841                 1.3419
 IR Inten    --     14.6145                81.6228                 5.2956

                     34                     35                     36
                      A                      A                      A
 Frequencies --   1330.1526              1339.6785              1383.2569
 Red. masses --      1.2931                 1.6646                 3.2356
 Frc consts  --      1.3479                 1.7602                 3.6477
 IR Inten    --     26.4813                54.6148               326.5223

                     37                     38                     39
                      A                      A                      A
 Frequencies --   1407.4304              1422.0806              1456.2805
 Red. masses --      5.0687                 1.4535                 1.3803
 Frc consts  --      5.9156                 1.7319                 1.7247
 IR Inten    --    582.6427                39.9952                58.5512

                     40                     41                     42
                      A                      A                      A
 Frequencies --   1457.9300              1497.2639              1520.1649
 Red. masses --      3.3436                 1.2259                 1.2102
 Frc consts  --      4.1874                 1.6192                 1.6477
 IR Inten    --      4.2601                21.5975                30.4882

                     43                     44                     45
                      A                      A                      A
 Frequencies --   1527.4650              1546.1855              1549.1626
 Red. masses --      3.0660                 3.7558                 1.0965
 Frc consts  --      4.2146                 5.2902                 1.5505
 IR Inten    --    278.9956                35.9613                 1.7197

                     46                     47                     48
                      A                      A                      A
 Frequencies --   1596.3399              3074.7531              3086.2430
 Red. masses --      9.3517                 1.0563                 1.0602
 Frc consts  --     14.0407                 5.8836                 5.9499
 IR Inten    --    287.1701                45.9329                33.6206

                     49                     50                     51
                      A                      A                      A
 Frequencies --   3117.8575              3123.2792              3143.7208
 Red. masses --      1.1007                 1.0716                 1.1041
 Frc consts  --      6.3044                 6.1588                 6.4288
 IR Inten    --     30.9000                23.8628                58.3722

                     52                     53                     54
                      A                      A                      A
 Frequencies --   3188.9419              3296.2612              3318.3900
 Red. masses --      1.1046                 1.0932                 1.1039
 Frc consts  --      6.6184                 6.9984                 7.1622
 IR Inten    --     11.8446                 7.1315                 1.4871

 - Thermochemistry -
 -------------------
 Temperature   298.150 Kelvin.  Pressure   1.00000 Atm.
 Atom     1 has atomic number  8 and mass  15.99491

 Molecular mass:   173.06005 amu.
 Principal axes and moments of inertia in atomic units:
                           1         2         3
     Eigenvalues --  1212.462633183.123494102.78395
           X            0.99987  -0.00838  -0.01352
           Y            0.00837   0.99996  -0.00119
           Z            0.01353   0.00108   0.99991
 This molecule is an asymmetric top.
 Rotational symmetry number  1.
 Warning -- assumption of classical behavior for rotation
           may cause significant error
 Rotational temperatures (Kelvin)      0.07144     0.02721     0.02111
 Rotational constants (GHZ):           1.48849     0.56697     0.43988
 Zero-point vibrational energy     402158.7 (Joules/Mol)
                                   96.11823 (Kcal/Mol)
 Warning -- explicit consideration of  13 degrees of freedom as
           vibrations may cause significant error
 Vibrational temperatures:     43.09    73.62   127.19   149.37   216.04
          (Kelvin)            268.54   338.26   381.31   444.53   517.99
                              656.07   682.30   811.06   928.69   952.70
                             1073.37  1077.45  1112.97  1149.00  1214.54
                             1268.18  1273.09  1343.53  1496.66  1527.43
                             1561.64  1583.46  1617.51  1708.70  1745.08
                             1785.80  1868.92  1882.04  1913.79  1927.50
                             1990.20  2024.98  2046.06  2095.26  2097.64
                             2154.23  2187.18  2197.68  2224.62  2228.90
                             2296.78  4423.88  4440.42  4485.90  4493.70
                             4523.11  4588.18  4742.58  4774.42

 Zero-point correction=                           0.153174 (Hartree/Particle)
 Thermal correction to Energy=                    0.163975
 Thermal correction to Enthalpy=                  0.164919
 Thermal correction to Gibbs Free Energy=         0.114530
 Sum of electronic and zero-point Energies=           -647.737823
 Sum of electronic and thermal Energies=              -647.727022
 Sum of electronic and thermal Enthalpies=            -647.726078
 Sum of electronic and thermal Free Energies=         -647.776467

                     E (Thermal)             CV                S
                      KCal/Mol        Cal/Mol-Kelvin    Cal/Mol-Kelvin
 Total                  102.896             38.350            106.053
 Electronic               0.000              0.000              0.000
 Translational            0.889              2.981             41.353
 Rotational               0.889              2.981             31.138
 Vibrational            101.118             32.388             33.562
 Vibration     1          0.594              1.984              5.833
 Vibration     2          0.595              1.977              4.772
 Vibration     3          0.601              1.957              3.695
 Vibration     4          0.605              1.946              3.381
 Vibration     5          0.618              1.902              2.670
 Vibration     6          0.632              1.858              2.261
 Vibration     7          0.655              1.787              1.840
 Vibration     8          0.671              1.737              1.628
 Vibration     9          0.698              1.657              1.368
 Vibration    10          0.735              1.555              1.122
 Vibration    11          0.814              1.348              0.778
 Vibration    12          0.831              1.307              0.726
 Vibration    13          0.919              1.110              0.516

 Optimization completed.
    -- Stationary point found.
 Normal termination of Gaussian 16 at Tue Mar  1 06:32:15 2022.

 ------------------------------------------
 #p b3lyp/6-31G(d) geom=allcheck guess=read
 ------------------------------------------

 Structure from the checkpoint file:  "241.n.pdb.xyz.mst.wat.chk"
 -------------
 241.n.pdb.xyz
 -------------
 Charge =  0 Multiplicity = 1

 SCF Done:  E(RB3LYP) =  -647.874895721     A.U. after   13 cycles
 Normal termination of Gaussian 16 at Tue Mar  1 06:33:30 2022.
 Gaussian 16:  ES64L-G16RevA.03 25-Dec-2016

 ----------------------------------------------------------------------
 #p b3lyp/6-31G(d) scrf=(iefpcm,read,solvent=water) geom=allcheck guess
 =read
 ----------------------------------------------------------------------

 Structure from the checkpoint file:  "241.n.pdb.xyz.mst.wat.chk"
 -------------
 241.n.pdb.xyz
 -------------
 Charge =  0 Multiplicity = 1

                         Standard orientation:
 ---------------------------------------------------------------------
 Center     Atomic      Atomic             Coordinates (Angstroms)
 Number     Number       Type             X           Y           Z
 ---------------------------------------------------------------------
      1          8           0        0.272672    1.946802    0.423996
      2          7           0        1.357592    1.477467    0.051953
      3          8           0        2.333125    2.163088   -0.257998
      4          6           0        1.487842    0.062720   -0.023359
      5          7           0        2.589398   -0.531415   -0.453604
      6          6           0        2.317900   -1.858717   -0.368038
      7          6           0        1.038315   -2.056124    0.124204
      8          7           0        0.507261   -0.821789    0.346764
      9          6           0       -0.851548   -0.590270    0.860161
     10          6           0       -1.834409   -0.251411   -0.261521
     11          6           0       -3.243108   -0.058189    0.272801
     12          9           0       -4.091990    0.245445   -0.798876
     13          1           0        3.039222   -2.607934   -0.655589
     14          1           0        0.476647   -2.952303    0.333035
     15          1           0       -1.136699   -1.512965    1.367957
     16          1           0       -0.799294    0.211569    1.593462
     17          1           0       -1.511429    0.667480   -0.756770
     18          1           0       -1.840786   -1.056577   -1.002495
     19          1           0       -3.621481   -0.964724    0.754278
     20          1           0       -3.294347    0.769429    0.986738
 ---------------------------------------------------------------------

 SCF Done:  E(RB3LYP) =  -647.889722173     A.U. after   12 cycles

 The electronic state is 1-A.
 Alpha  occ. eigenvalues --  -24.67487 -19.19113 -19.19017 -14.58710 -14.43149
 Alpha  occ. eigenvalues --  -14.35325 -10.30160 -10.25990 -10.24549 -10.24340
 Alpha  occ. eigenvalues --  -10.22711 -10.19672  -1.23645  -1.17913  -1.06119
 Alpha  occ. eigenvalues --   -1.05425  -0.92308  -0.82582  -0.80318  -0.72483
 Alpha  occ. eigenvalues --   -0.69889  -0.63183  -0.62448  -0.58467  -0.55870
 Alpha  occ. eigenvalues --   -0.54721  -0.52203  -0.50761  -0.50164  -0.48798
 Alpha  occ. eigenvalues --   -0.47488  -0.45709  -0.45086  -0.43690  -0.42895
 Alpha  occ. eigenvalues --   -0.39001  -0.37292  -0.34099  -0.33275  -0.32425
 Alpha  occ. eigenvalues --   -0.31957  -0.31483  -0.30160  -0.29788  -0.25804
 Alpha virt. eigenvalues --   -0.09742   0.02315   0.05119   0.09149   0.09816
 Alpha virt. eigenvalues --    0.11480   0.12844   0.13094   0.15226   0.15893
 Alpha virt. eigenvalues --    0.16506   0.19167   0.19609   0.19895   0.22069

 Mulliken charges:
               1
     1  O   -0.443832
     2  N    0.378859
     3  O   -0.435767
     4  C    0.704618
     5  N   -0.491956
     6  C   -0.029869
     7  C    0.048713
     8  N   -0.419876
     9  C   -0.163025
    10  C   -0.310494
    11  C    0.042674
    12  F   -0.340628
    13  H    0.182583
    14  H    0.215076
    15  H    0.196117
    16  H    0.206037
    17  H    0.178150
    18  H    0.171996
    19  H    0.155254
    20  H    0.155370
 Sum of Mulliken charges =  -0.00000

 Dipole moment (field-independent basis, Debye):
    X=             -3.2229    Y=             -7.1632    Z=              2.9924  Tot=              8.4056
 Quadrupole moment (field-independent basis, Debye-Ang):
   XX=            -86.4255   YY=            -66.6878   ZZ=            -66.6880
   XY=             -5.9661   XZ=             -3.9765   YZ=             -0.4984

 Normal termination of Gaussian 16 at Tue Mar  1 06:34:51 2022.
