 Gaussian 16, Revision A.03,

 ----------------------------------------------------------------------
 #p b3lyp/6-31G(d) opt=(MaxStep=10,MaxCycles=1000) freq scf=(MaxCycle=2
 000,NoVarAcc,NoIncFock) scrf=(iefpcm,read,solvent=water)
 ----------------------------------------------------------------------

 -------------
 242.n.pdb.xyz
 -------------
 Symbolic Z-matrix:
 Charge =  0 Multiplicity = 1

 SCF Done:  E(RB3LYP) =  -1369.98189947     A.U. after   14 cycles
 SCF Done:  E(RB3LYP) =  -1369.98758895     A.U. after   10 cycles
 SCF Done:  E(RB3LYP) =  -1369.98897158     A.U. after   11 cycles
 SCF Done:  E(RB3LYP) =  -1369.99076468     A.U. after   11 cycles
 SCF Done:  E(RB3LYP) =  -1369.99062266     A.U. after   11 cycles
 SCF Done:  E(RB3LYP) =  -1369.99129887     A.U. after   10 cycles
 SCF Done:  E(RB3LYP) =  -1369.99133943     A.U. after   10 cycles
 SCF Done:  E(RB3LYP) =  -1369.99133706     A.U. after    9 cycles
 SCF Done:  E(RB3LYP) =  -1369.99135568     A.U. after    9 cycles
 SCF Done:  E(RB3LYP) =  -1369.99135438     A.U. after    8 cycles
 SCF Done:  E(RB3LYP) =  -1369.99135252     A.U. after    8 cycles
 SCF Done:  E(RB3LYP) =  -1369.99135481     A.U. after    7 cycles
 SCF Done:  E(RB3LYP) =  -1369.99135835     A.U. after    8 cycles
 SCF Done:  E(RB3LYP) =  -1369.99135501     A.U. after    8 cycles
 SCF Done:  E(RB3LYP) =  -1369.99135471     A.U. after    6 cycles
 SCF Done:  E(RB3LYP) =  -1369.99135832     A.U. after    8 cycles
 SCF Done:  E(RB3LYP) =  -1369.99135478     A.U. after    8 cycles
 Optimization completed.
    -- Stationary point found.
 Normal termination of Gaussian 16 at Tue Mar  1 17:30:23 2022.

 --------------------------------------------------------------------
 #P Geom=AllCheck Guess=TCheck SCRF=Check GenChk RB3LYP/6-31G(d) Freq
 --------------------------------------------------------------------

 Structure from the checkpoint file:  "242.n.pdb.xyz.mst.wat.chk"
 -------------
 242.n.pdb.xyz
 -------------
 Charge =  0 Multiplicity = 1

 SCF Done:  E(RB3LYP) =  -1369.99135478     A.U. after    1 cycles

  Exact polarizability: 375.757   5.767 289.787   0.015   7.864 161.061
 Approx polarizability: 397.801  -6.534 340.585   2.086  11.058 184.969

                      1                      2                      3
                      A                      A                      A
 Frequencies --     25.9907                36.2723                54.4331
 Red. masses --      5.0630                 3.7005                 4.9763
 Frc consts  --      0.0020                 0.0029                 0.0087
 IR Inten    --      0.8205                 0.1919                 2.1996

                      4                      5                      6
                      A                      A                      A
 Frequencies --     71.0825                82.2607                91.4261
 Red. masses --      5.6109                 5.6968                 3.5752
 Frc consts  --      0.0167                 0.0227                 0.0176
 IR Inten    --      8.5939                 3.0802                 3.3593

                      7                      8                      9
                      A                      A                      A
 Frequencies --    116.6669               122.2037               138.4843
 Red. masses --      1.1248                 3.9348                 6.0219
 Frc consts  --      0.0090                 0.0346                 0.0680
 IR Inten    --      0.6452                 1.0807                 0.0384

                     10                     11                     12
                      A                      A                      A
 Frequencies --    165.3416               191.6289               198.6778
 Red. masses --      5.3409                 4.9557                 4.8997
 Frc consts  --      0.0860                 0.1072                 0.1140
 IR Inten    --      4.6007                 1.0436                 2.2182

                     13                     14                     15
                      A                      A                      A
 Frequencies --    206.0308               232.0940               246.6543
 Red. masses --      1.0793                 4.9036                 2.8424
 Frc consts  --      0.0270                 0.1556                 0.1019
 IR Inten    --      0.1275                15.3801                 0.8721

                     16                     17                     18
                      A                      A                      A
 Frequencies --    249.3352               261.3446               280.3031
 Red. masses --      1.2861                 1.0709                 3.7283
 Frc consts  --      0.0471                 0.0431                 0.1726
 IR Inten    --      0.7661                 0.0327                 4.0363

                     19                     20                     21
                      A                      A                      A
 Frequencies --    313.6039               325.2719               337.7486
 Red. masses --      4.6461                 3.3225                 5.2074
 Frc consts  --      0.2692                 0.2071                 0.3500
 IR Inten    --      4.2629                17.4159                 3.9172

                     22                     23                     24
                      A                      A                      A
 Frequencies --    344.0933               374.4237               401.0573
 Red. masses --      2.8381                 4.1487                 4.1297
 Frc consts  --      0.1980                 0.3427                 0.3914
 IR Inten    --      2.0381                15.9187                19.7144

                     25                     26                     27
                      A                      A                      A
 Frequencies --    408.4961               414.1807               447.1238
 Red. masses --      4.0167                 3.5049                 3.0900
 Frc consts  --      0.3949                 0.3543                 0.3640
 IR Inten    --      0.8461                14.7485                 5.7810

                     28                     29                     30
                      A                      A                      A
 Frequencies --    451.3802               463.4379               494.0737
 Red. masses --      3.1029                 4.7069                 5.3088
 Frc consts  --      0.3725                 0.5956                 0.7635
 IR Inten    --      3.8144                 0.4966                 3.4447

                     31                     32                     33
                      A                      A                      A
 Frequencies --    521.9678               575.1120               632.3911
 Red. masses --      6.5693                 4.2193                 6.2410
 Frc consts  --      1.0545                 0.8222                 1.4705
 IR Inten    --      2.4481                11.5678                18.8605

                     34                     35                     36
                      A                      A                      A
 Frequencies --    662.7743               671.0871               673.9202
 Red. masses --      4.1477                 3.8862                 6.8874
 Frc consts  --      1.0735                 1.0312                 1.8430
 IR Inten    --     24.8089                19.4550                 7.0573

                     37                     38                     39
                      A                      A                      A
 Frequencies --    730.6997               740.3439               752.0115
 Red. masses --      2.2464                 6.7561                 5.2280
 Frc consts  --      0.7067                 2.1818                 1.7420
 IR Inten    --     28.2841                13.8437                14.8883

                     40                     41                     42
                      A                      A                      A
 Frequencies --    765.4480               773.5351               800.0660
 Red. masses --      6.6422                 3.1868                 5.9508
 Frc consts  --      2.2929                 1.1235                 2.2443
 IR Inten    --      6.3725                89.2342                 1.0999

                     43                     44                     45
                      A                      A                      A
 Frequencies --    836.1951               838.0323               853.2925
 Red. masses --      1.8178                 3.3876                 5.4392
 Frc consts  --      0.7489                 1.4017                 2.3334
 IR Inten    --      6.5441                 6.1640                94.8422

                     46                     47                     48
                      A                      A                      A
 Frequencies --    865.6150               884.2512               898.0869
 Red. masses --      4.0576                 6.9611                 1.2989
 Frc consts  --      1.7913                 3.2068                 0.6172
 IR Inten    --      1.5080                95.3558                 1.0162

                     49                     50                     51
                      A                      A                      A
 Frequencies --    911.5945               935.9066               938.4560
 Red. masses --      5.0566                 1.6258                 1.6413
 Frc consts  --      2.4758                 0.8391                 0.8516
 IR Inten    --     31.6095                 0.1987                 0.2880

                     52                     53                     54
                      A                      A                      A
 Frequencies --    955.8965               980.5786              1048.5896
 Red. masses --      2.3445                 1.1967                 2.8846
 Frc consts  --      1.2622                 0.6780                 1.8687
 IR Inten    --     50.9747                 0.2039                48.1068

                     55                     56                     57
                      A                      A                      A
 Frequencies --   1061.8099              1065.4961              1070.7850
 Red. masses --      1.3989                 1.9983                 1.6241
 Frc consts  --      0.9293                 1.3367                 1.0972
 IR Inten    --      0.9256               142.6665                46.9992

                     58                     59                     60
                      A                      A                      A
 Frequencies --   1115.7581              1140.1164              1153.4021
 Red. masses --      1.3700                 2.6621                 1.4720
 Frc consts  --      1.0048                 2.0388                 1.1538
 IR Inten    --    103.6903               114.7442                10.4183

                     61                     62                     63
                      A                      A                      A
 Frequencies --   1174.3159              1193.2521              1237.1801
 Red. masses --      2.3619                 2.7631                 2.4744
 Frc consts  --      1.9190                 2.3180                 2.2314
 IR Inten    --    169.2389               517.5395                22.6871

                     64                     65                     66
                      A                      A                      A
 Frequencies --   1248.6787              1261.5841              1280.5528
 Red. masses --      2.6740                 2.8188                 2.7551
 Frc consts  --      2.4565                 2.6433                 2.6619
 IR Inten    --     30.1408               267.1221                29.3890

                     67                     68                     69
                      A                      A                      A
 Frequencies --   1291.2060              1297.2425              1320.1864
 Red. masses --      2.8525                 2.7341                 1.9409
 Frc consts  --      2.8020                 2.7108                 1.9930
 IR Inten    --    125.8167               105.4150                65.3706

                     70                     71                     72
                      A                      A                      A
 Frequencies --   1347.3416              1382.5846              1387.9899
 Red. masses --      3.3816                 2.7211                 2.0332
 Frc consts  --      3.6168                 3.0646                 2.3078
 IR Inten    --     56.6861               123.5690               340.5854

                     73                     74                     75
                      A                      A                      A
 Frequencies --   1403.0804              1418.4407              1422.0099
 Red. masses --      4.5022                 1.2902                 1.3039
 Frc consts  --      5.2220                 1.5294                 1.5535
 IR Inten    --     91.6604                22.4822                33.7050

                     76                     77                     78
                      A                      A                      A
 Frequencies --   1440.5314              1442.3262              1462.7043
 Red. masses --      1.2461                 1.6307                 1.9482
 Frc consts  --      1.5235                 1.9987                 2.4558
 IR Inten    --     21.9572                37.1944                74.2100

                     79                     80                     81
                      A                      A                      A
 Frequencies --   1485.0624              1492.1368              1493.4225
 Red. masses --      2.4391                 6.7053                 1.0473
 Frc consts  --      3.1694                 8.7960                 1.3762
 IR Inten    --    236.4993                 0.6877                 0.4552

                     82                     83                     84
                      A                      A                      A
 Frequencies --   1506.7239              1508.2885              1509.0729
 Red. masses --      1.0457                 1.0539                 1.0942
 Frc consts  --      1.3986                 1.4126                 1.4682
 IR Inten    --      0.0554                 1.2990                 1.1735

                     85                     86                     87
                      A                      A                      A
 Frequencies --   1512.7397              1516.4993              1520.0235
 Red. masses --      1.0699                 1.1671                 1.0521
 Frc consts  --      1.4425                 1.5813                 1.4323
 IR Inten    --     20.3820                89.8827                 1.6719

                     88                     89                     90
                      A                      A                      A
 Frequencies --   1536.1800              1537.4572              1549.8216
 Red. masses --      1.2167                 1.2022                 3.2320
 Frc consts  --      1.6917                 1.6743                 4.5738
 IR Inten    --     48.8877                47.2407               387.3051

                     91                     92                     93
                      A                      A                      A
 Frequencies --   1596.0558              1620.8950              1681.8956
 Red. masses --      7.3684                 9.4381                 9.2853
 Frc consts  --     11.0592                14.6098                15.4756
 IR Inten    --     32.6166               160.9223               707.9948

                     94                     95                     96
                      A                      A                      A
 Frequencies --   1732.6610              3065.5628              3069.9405
 Red. masses --     11.6224                 1.0459                 1.0691
 Frc consts  --     20.5577                 5.7913                 5.9367
 IR Inten    --    461.2991                59.4427                40.1571

                     97                     98                     99
                      A                      A                      A
 Frequencies --   3071.0487              3074.2183              3080.8393
 Red. masses --      1.0352                 1.0369                 1.0380
 Frc consts  --      5.7523                 5.7740                 5.8047
 IR Inten    --     19.2278                40.0623                20.7916

                    100                    101                    102
                      A                      A                      A
 Frequencies --   3139.8308              3140.9914              3141.2256
 Red. masses --      1.1032                 1.1028                 1.0952
 Frc consts  --      6.4079                 6.4100                 6.3673
 IR Inten    --      6.8130                28.1373                28.5110

                    103                    104                    105
                      A                      A                      A
 Frequencies --   3145.3522              3151.7026              3171.2123
 Red. masses --      1.1036                 1.1026                 1.1016
 Frc consts  --      6.4326                 6.4532                 6.5270
 IR Inten    --     58.8729                69.6479                18.2794

                    106                    107                    108
                      A                      A                      A
 Frequencies --   3183.3721              3200.0778              3202.9038
 Red. masses --      1.1001                 1.0959                 1.0992
 Frc consts  --      6.5684                 6.6122                 6.6436
 IR Inten    --     22.3615                 7.7102                 2.5777

                    109                    110                    111
                      A                      A                      A
 Frequencies --   3259.3514              3287.5569              3299.8372
 Red. masses --      1.0914                 1.0986                 1.0978
 Frc consts  --      6.8312                 6.9960                 7.0433
 IR Inten    --      1.9158                 1.1961                 0.0698

 - Thermochemistry -
 -------------------
 Temperature   298.150 Kelvin.  Pressure   1.00000 Atm.
 Atom     1 has atomic number  6 and mass  12.00000

 Molecular mass:   319.09906 amu.
 Principal axes and moments of inertia in atomic units:
                           1         2         3
     Eigenvalues --  2900.40461********************
           X            0.99999   0.00387  -0.00173
           Y           -0.00387   0.99999   0.00093
           Z            0.00173  -0.00093   1.00000
 This molecule is an asymmetric top.
 Rotational symmetry number  1.
 Warning -- assumption of classical behavior for rotation
           may cause significant error
 Rotational temperatures (Kelvin)      0.02986     0.00645     0.00556
 Rotational constants (GHZ):           0.62224     0.13447     0.11592
 Zero-point vibrational energy     812823.7 (Joules/Mol)
                                  194.26952 (Kcal/Mol)
 Warning -- explicit consideration of  32 degrees of freedom as
           vibrations may cause significant error
 Vibrational temperatures:     37.39    52.19    78.32   102.27   118.35
          (Kelvin)            131.54   167.86   175.82   199.25   237.89
                              275.71   285.85   296.43   333.93   354.88
                              358.74   376.02   403.29   451.21   467.99
                              485.94   495.07   538.71   577.03   587.73
                              595.91   643.31   649.44   666.78   710.86
                              751.00   827.46   909.87   953.58   965.54
                              969.62  1051.31  1065.19  1081.98  1101.31
                             1112.94  1151.12  1203.10  1205.74  1227.70
                             1245.43  1272.24  1292.15  1311.58  1346.56
                             1350.23  1375.32  1410.83  1508.69  1527.71
                             1533.01  1540.62  1605.33  1640.37  1659.49
                             1689.58  1716.82  1780.03  1796.57  1815.14
                             1842.43  1857.76  1866.44  1899.45  1938.52
                             1989.23  1997.01  2018.72  2040.82  2045.96
                             2072.60  2075.19  2104.51  2136.67  2146.85
                             2148.70  2167.84  2170.09  2171.22  2176.50
                             2181.90  2186.97  2210.22  2212.06  2229.85
                             2296.37  2332.11  2419.87  2492.91  4410.66
                             4416.96  4418.55  4423.11  4432.64  4517.52
                             4519.19  4519.52  4525.46  4534.60  4562.67
                             4580.16  4604.20  4608.26  4689.48  4730.06
                             4747.73

 Zero-point correction=                           0.309588 (Hartree/Particle)
 Thermal correction to Energy=                    0.330351
 Thermal correction to Enthalpy=                  0.331295
 Thermal correction to Gibbs Free Energy=         0.259646
 Sum of electronic and zero-point Energies=          -1369.681767
 Sum of electronic and thermal Energies=             -1369.661003
 Sum of electronic and thermal Enthalpies=           -1369.660059
 Sum of electronic and thermal Free Energies=        -1369.731708

                     E (Thermal)             CV                S
                      KCal/Mol        Cal/Mol-Kelvin    Cal/Mol-Kelvin
 Total                  207.299             78.706            150.798
 Electronic               0.000              0.000              0.000
 Translational            0.889              2.981             43.177
 Rotational               0.889              2.981             34.760
 Vibrational            205.521             72.745             72.862
 Vibration     1          0.593              1.985              6.114
 Vibration     2          0.594              1.982              5.453
 Vibration     3          0.596              1.976              4.649
 Vibration     4          0.598              1.968              4.123
 Vibration     5          0.600              1.961              3.836
 Vibration     6          0.602              1.955              3.629
 Vibration     7          0.608              1.936              3.155
 Vibration     8          0.610              1.931              3.065
 Vibration     9          0.614              1.915              2.825
 Vibration    10          0.624              1.885              2.488
 Vibration    11          0.634              1.851              2.212
 Vibration    12          0.637              1.842              2.145
 Vibration    13          0.641              1.831              2.079
 Vibration    14          0.653              1.792              1.863
 Vibration    15          0.661              1.768              1.754
 Vibration    16          0.662              1.764              1.735
 Vibration    17          0.669              1.744              1.653
 Vibration    18          0.680              1.710              1.532
 Vibration    19          0.701              1.648              1.343
 Vibration    20          0.709              1.625              1.283
 Vibration    21          0.718              1.600              1.223
 Vibration    22          0.723              1.587              1.193
 Vibration    23          0.746              1.525              1.062
 Vibration    24          0.767              1.468              0.959
 Vibration    25          0.773              1.452              0.932
 Vibration    26          0.778              1.439              0.912
 Vibration    27          0.806              1.367              0.805
 Vibration    28          0.810              1.358              0.792
 Vibration    29          0.821              1.331              0.756
 Vibration    30          0.850              1.263              0.673
 Vibration    31          0.877              1.201              0.605
 Vibration    32          0.931              1.085              0.495

 Optimization completed.
    -- Stationary point found.
 Normal termination of Gaussian 16 at Tue Mar  1 18:26:48 2022.

 ------------------------------------------
 #p b3lyp/6-31G(d) geom=allcheck guess=read
 ------------------------------------------

 Structure from the checkpoint file:  "242.n.pdb.xyz.mst.wat.chk"
 -------------
 242.n.pdb.xyz
 -------------
 Charge =  0 Multiplicity = 1

 SCF Done:  E(RB3LYP) =  -1369.97501417     A.U. after   12 cycles
 Normal termination of Gaussian 16 at Tue Mar  1 18:30:40 2022.
 Gaussian 16:  ES64L-G16RevA.03 25-Dec-2016

 ----------------------------------------------------------------------
 #p b3lyp/6-31G(d) scrf=(iefpcm,read,solvent=water) geom=allcheck guess
 =read
 ----------------------------------------------------------------------

 Structure from the checkpoint file:  "242.n.pdb.xyz.mst.wat.chk"
 -------------
 242.n.pdb.xyz
 -------------
 Charge =  0 Multiplicity = 1

                         Standard orientation:
 ---------------------------------------------------------------------
 Center     Atomic      Atomic             Coordinates (Angstroms)
 Number     Number       Type             X           Y           Z
 ---------------------------------------------------------------------
      1          6           0       -1.098625    3.242205   -0.295170
      2          7           0       -1.517740    1.883852    0.034876
      3          6           0       -0.658443    1.106921    0.937437
      4          6           0       -0.148342   -0.146089    0.312850
      5          6           0        1.110472   -0.624791    0.004204
      6          7           0        1.022347   -1.899831   -0.532297
      7          6           0       -0.255173   -2.183138   -0.549943
      8          7           0       -1.018064   -1.152600   -0.044559
      9          6           0       -2.420589   -1.095895    0.062207
     10          6           0       -3.151322    0.078274   -0.001940
     11         16           0       -4.855538   -0.270705    0.089703
     12          6           0       -4.557817   -1.963263    0.245217
     13          6           0       -3.225378   -2.263852    0.211408
     14          6           0       -2.781022    1.486783   -0.277205
     15          8           0       -3.616787    2.249182   -0.785686
     16          6           0        2.379268    0.095322    0.208326
     17          8           0        2.433986    1.229233    0.671103
     18          8           0        3.431144   -0.637805   -0.173028
     19          6           0        4.818621   -0.128453   -0.074346
     20          6           0        5.170313    0.131889    1.390399
     21          6           0        4.975726    1.114789   -0.949402
     22          6           0        5.637433   -1.291623   -0.630262
     23          1           0       -1.241694    3.919890    0.554055
     24          1           0       -0.041124    3.231188   -0.564450
     25          1           0       -1.691404    3.599145   -1.134990
     26          1           0       -1.205149    0.871940    1.858297
     27          1           0        0.197953    1.723475    1.198450
     28          1           0       -0.701675   -3.090668   -0.927259
     29          1           0       -5.383619   -2.648902    0.369219
     30          1           0       -2.826970   -3.265586    0.301673
     31          1           0        4.581582    0.953013    1.801831
     32          1           0        4.994702   -0.766572    1.988709
     33          1           0        6.230834    0.388235    1.465762
     34          1           0        6.026338    1.418422   -0.960285
     35          1           0        4.673542    0.897194   -1.977949
     36          1           0        4.374914    1.940976   -0.570438
     37          1           0        5.349760   -1.508329   -1.662663
     38          1           0        6.700574   -1.038580   -0.613310
     39          1           0        5.486759   -2.192876   -0.029808
 ---------------------------------------------------------------------

 SCF Done:  E(RB3LYP) =  -1369.98954321     A.U. after   11 cycles

 The electronic state is 1-A.
 Alpha  occ. eigenvalues --  -88.92617 -19.18751 -19.13714 -19.12435 -14.42366
 Alpha  occ. eigenvalues --  -14.37884 -14.33860 -10.32415 -10.30584 -10.26408
 Alpha  occ. eigenvalues --  -10.25972 -10.25750 -10.24593 -10.24164 -10.23849
 Alpha  occ. eigenvalues --  -10.23365 -10.22536 -10.21600 -10.21241 -10.17593
 Alpha  occ. eigenvalues --  -10.17398 -10.17350  -7.98670  -5.95078  -5.94700
 Alpha  occ. eigenvalues --   -5.94380  -1.09777  -1.05004  -1.04155  -1.01327
 Alpha  occ. eigenvalues --   -0.94824  -0.92676  -0.88557  -0.81564  -0.79942
 Alpha  occ. eigenvalues --   -0.76707  -0.75333  -0.72777  -0.70543  -0.69329
 Alpha  occ. eigenvalues --   -0.69313  -0.67001  -0.64066  -0.61350  -0.59360
 Alpha  occ. eigenvalues --   -0.57893  -0.56763  -0.53418  -0.52042  -0.50110
 Alpha  occ. eigenvalues --   -0.48981  -0.48511  -0.47603  -0.47183  -0.46718
 Alpha  occ. eigenvalues --   -0.46235  -0.45916  -0.44112  -0.43610  -0.43326
 Alpha  occ. eigenvalues --   -0.42700  -0.41741  -0.41300  -0.41183  -0.40359
 Alpha  occ. eigenvalues --   -0.39499  -0.39248  -0.38777  -0.38354  -0.37364
 Alpha  occ. eigenvalues --   -0.36802  -0.36405  -0.35473  -0.34999  -0.33262
 Alpha  occ. eigenvalues --   -0.32135  -0.30045  -0.29889  -0.27684  -0.27271
 Alpha  occ. eigenvalues --   -0.26018  -0.25527  -0.25131  -0.23961
 Alpha virt. eigenvalues --   -0.05986  -0.03001   0.00169   0.01634   0.03603
 Alpha virt. eigenvalues --    0.08007   0.09127   0.09582   0.09800   0.10174
 Alpha virt. eigenvalues --    0.10748   0.11651   0.12923   0.13551   0.15050

 Mulliken charges:
               1
     1  C   -0.323524
     2  N   -0.416034
     3  C   -0.266387
     4  C    0.357940
     5  C    0.091859
     6  N   -0.549760
     7  C    0.218993
     8  N   -0.566382
     9  C    0.335143
    10  C   -0.260050
    11  S    0.298578
    12  C   -0.350743
    13  C   -0.111335
    14  C    0.627760
    15  O   -0.592169
    16  C    0.626817
    17  O   -0.552369
    18  O   -0.508473
    19  C    0.308522
    20  C   -0.468639
    21  C   -0.469343
    22  C   -0.460197
    23  H    0.178257
    24  H    0.180034
    25  H    0.188339
    26  H    0.203059
    27  H    0.217349
    28  H    0.205599
    29  H    0.219087
    30  H    0.189892
    31  H    0.171705
    32  H    0.155928
    33  H    0.158081
    34  H    0.157702
    35  H    0.155640
    36  H    0.173129
    37  H    0.158131
    38  H    0.159822
    39  H    0.158039
 Sum of Mulliken charges =  -0.00000

 Dipole moment (field-independent basis, Debye):
    X=              0.3259    Y=             -3.4436    Z=              2.2034  Tot=              4.1011
 Quadrupole moment (field-independent basis, Debye-Ang):
   XX=           -126.1139   YY=           -129.0181   ZZ=           -134.9694
   XY=             25.2118   XZ=             -7.8342   YZ=              1.0980

 Normal termination of Gaussian 16 at Tue Mar  1 18:35:11 2022.
