 Gaussian 16, Revision A.03,

 ----------------------------------------------------------------------
 #p b3lyp/6-31G(d) opt=(MaxStep=10,MaxCycles=1000) freq scf=(MaxCycle=2
 000,NoVarAcc,NoIncFock) scrf=(iefpcm,read,solvent=water)
 ----------------------------------------------------------------------

 -------------
 244.n.pdb.xyz
 -------------
 Symbolic Z-matrix:
 Charge =  0 Multiplicity = 1

 SCF Done:  E(RB3LYP) =  -611.381712786     A.U. after   13 cycles
 SCF Done:  E(RB3LYP) =  -611.386727567     A.U. after   10 cycles
 SCF Done:  E(RB3LYP) =  -611.390623313     A.U. after   11 cycles
 SCF Done:  E(RB3LYP) =  -611.391372027     A.U. after   11 cycles
 SCF Done:  E(RB3LYP) =  -611.392496414     A.U. after   11 cycles
 SCF Done:  E(RB3LYP) =  -611.393184519     A.U. after   11 cycles
 SCF Done:  E(RB3LYP) =  -611.393326424     A.U. after   10 cycles
 SCF Done:  E(RB3LYP) =  -611.393486861     A.U. after   10 cycles
 SCF Done:  E(RB3LYP) =  -611.393527268     A.U. after    9 cycles
 SCF Done:  E(RB3LYP) =  -611.393529520     A.U. after    8 cycles
 SCF Done:  E(RB3LYP) =  -611.393737788     A.U. after    8 cycles
 SCF Done:  E(RB3LYP) =  -611.393737359     A.U. after    8 cycles
 SCF Done:  E(RB3LYP) =  -611.393740268     A.U. after    8 cycles
 SCF Done:  E(RB3LYP) =  -611.393736536     A.U. after    8 cycles
 SCF Done:  E(RB3LYP) =  -611.393736266     A.U. after    7 cycles
 SCF Done:  E(RB3LYP) =  -611.393740263     A.U. after    8 cycles
 SCF Done:  E(RB3LYP) =  -611.393736248     A.U. after    9 cycles
 Optimization completed.
    -- Stationary point found.
 Normal termination of Gaussian 16 at Tue Mar  1 21:09:34 2022.

 --------------------------------------------------------------------
 #P Geom=AllCheck Guess=TCheck SCRF=Check GenChk RB3LYP/6-31G(d) Freq
 --------------------------------------------------------------------

 Structure from the checkpoint file:  "244.n.pdb.xyz.mst.wat.chk"
 -------------
 244.n.pdb.xyz
 -------------
 Charge =  0 Multiplicity = 1

 SCF Done:  E(RB3LYP) =  -611.393736248     A.U. after    1 cycles

  Exact polarizability: 174.183  -7.033 139.631   0.289   1.844 112.160
 Approx polarizability: 181.609 -17.352 154.266  -1.377   2.607 119.453

                      1                      2                      3
                      A                      A                      A
 Frequencies --     39.6901                54.1358                86.8216
 Red. masses --      3.8665                 2.7561                 5.0031
 Frc consts  --      0.0036                 0.0048                 0.0222
 IR Inten    --      4.2240                 0.2117                 1.2589

                      4                      5                      6
                      A                      A                      A
 Frequencies --     90.3420               204.3753               229.1240
 Red. masses --      5.0279                 3.0114                 1.0550
 Frc consts  --      0.0242                 0.0741                 0.0326
 IR Inten    --      3.9350                 2.2886                 0.1300

                      7                      8                      9
                      A                      A                      A
 Frequencies --    254.2654               283.8235               314.0210
 Red. masses --      2.7643                 2.3034                 2.8832
 Frc consts  --      0.1053                 0.1093                 0.1675
 IR Inten    --      1.6205                 1.4620                 7.5655

                     10                     11                     12
                      A                      A                      A
 Frequencies --    323.6488               391.1917               420.9888
 Red. masses --      3.9487                 3.6717                 3.5718
 Frc consts  --      0.2437                 0.3310                 0.3730
 IR Inten    --      5.8396                19.5506                 8.2273

                     13                     14                     15
                      A                      A                      A
 Frequencies --    442.0323               469.1409               543.9899
 Red. masses --      4.0603                 8.4670                 1.7800
 Frc consts  --      0.4674                 1.0980                 0.3103
 IR Inten    --     27.4981                 2.1567                 3.2492

                     16                     17                     18
                      A                      A                      A
 Frequencies --    553.1707               578.9497               619.4789
 Red. masses --      5.1953                 1.2277                 1.5799
 Frc consts  --      0.9367                 0.2425                 0.3572
 IR Inten    --      7.4758               129.3664               148.4310

                     19                     20                     21
                      A                      A                      A
 Frequencies --    634.8854               685.1796               733.2167
 Red. masses --      2.4728                 2.5897                 3.9680
 Frc consts  --      0.5872                 0.7163                 1.2569
 IR Inten    --     52.5527                10.1920                29.3913

                     22                     23                     24
                      A                      A                      A
 Frequencies --    743.1418               779.0360               810.5042
 Red. masses --      6.6376                 3.1419                 2.1249
 Frc consts  --      2.1598                 1.1235                 0.8224
 IR Inten    --     62.1841                20.7751                30.6014

                     25                     26                     27
                      A                      A                      A
 Frequencies --    847.3449               872.6071               916.6971
 Red. masses --      2.0086                 2.2199                 1.8846
 Frc consts  --      0.8497                 0.9959                 0.9331
 IR Inten    --      0.7843                 4.8626                24.8211

                     28                     29                     30
                      A                      A                      A
 Frequencies --    922.2997               970.0799               983.3793
 Red. masses --      2.5060                 1.9329                 2.0309
 Frc consts  --      1.2559                 1.0717                 1.1571
 IR Inten    --      4.4356                 9.5697                24.0827

                     31                     32                     33
                      A                      A                      A
 Frequencies --   1000.2309              1043.5675              1062.7691
 Red. masses --      2.7397                 1.7158                 1.5298
 Frc consts  --      1.6150                 1.1009                 1.0180
 IR Inten    --      1.5024                 2.5751                 4.1945

                     34                     35                     36
                      A                      A                      A
 Frequencies --   1069.1500              1082.8737              1107.9626
 Red. masses --      1.7620                 2.1681                 2.6498
 Frc consts  --      1.1867                 1.4979                 1.9165
 IR Inten    --      2.0923                31.5875                17.4688

                     37                     38                     39
                      A                      A                      A
 Frequencies --   1112.8190              1163.5505              1199.6374
 Red. masses --      2.5433                 1.6645                 1.6964
 Frc consts  --      1.8556                 1.3277                 1.4384
 IR Inten    --     16.2607                53.8097                15.5304

                     40                     41                     42
                      A                      A                      A
 Frequencies --   1252.4447              1266.6629              1280.4181
 Red. masses --      1.7779                 1.3790                 1.5037
 Frc consts  --      1.6431                 1.3036                 1.4525
 IR Inten    --     23.1151                 1.5331                 6.9606

                     43                     44                     45
                      A                      A                      A
 Frequencies --   1326.3527              1330.4264              1346.6026
 Red. masses --      1.4219                 1.6047                 1.4687
 Frc consts  --      1.4738                 1.6735                 1.5691
 IR Inten    --     10.4329                56.9783                35.8379

                     46                     47                     48
                      A                      A                      A
 Frequencies --   1355.0131              1363.5617              1365.7325
 Red. masses --      1.2964                 1.3897                 1.4573
 Frc consts  --      1.4024                 1.5224                 1.6015
 IR Inten    --     24.7024                67.1696                 7.1054

                     49                     50                     51
                      A                      A                      A
 Frequencies --   1404.1734              1417.9224              1450.7965
 Red. masses --      1.8783                 1.3333                 2.7960
 Frc consts  --      2.1820                 1.5794                 3.4673
 IR Inten    --     17.5236                41.3865               439.2374

                     52                     53                     54
                      A                      A                      A
 Frequencies --   1477.7054              1496.4067              1498.7281
 Red. masses --      1.6999                 1.1083                 1.1701
 Frc consts  --      2.1870                 1.4623                 1.5485
 IR Inten    --     98.4844                 6.1394                 8.6734

                     55                     56                     57
                      A                      A                      A
 Frequencies --   1509.8794              1511.2706              1514.4076
 Red. masses --      1.1640                 1.1204                 1.0862
 Frc consts  --      1.5635                 1.5076                 1.4678
 IR Inten    --     16.7249                18.8324                 2.0040

                     58                     59                     60
                      A                      A                      A
 Frequencies --   1525.2490              1533.4570              1728.6129
 Red. masses --      1.1173                 1.9661                 7.8623
 Frc consts  --      1.5314                 2.7239                13.8419
 IR Inten    --      5.2579                 2.1291              1105.7308

                     61                     62                     63
                      A                      A                      A
 Frequencies --   1738.0298              3056.4727              3065.9056
 Red. masses --      7.7182                 1.0679                 1.0631
 Frc consts  --     13.7366                 5.8777                 5.8876
 IR Inten    --    312.1606                47.6578                55.6495

                     64                     65                     66
                      A                      A                      A
 Frequencies --   3079.9329              3084.6284              3086.3536
 Red. masses --      1.0372                 1.0629                 1.0677
 Frc consts  --      5.7969                 5.9589                 5.9922
 IR Inten    --     20.0436                51.3973                10.9433

                     67                     68                     69
                      A                      A                      A
 Frequencies --   3087.8088              3114.4854              3119.0914
 Red. masses --      1.0821                 1.0950                 1.1021
 Frc consts  --      6.0786                 6.2578                 6.3171
 IR Inten    --     35.2761                51.2859                90.0501

                     70                     71                     72
                      A                      A                      A
 Frequencies --   3141.4347              3151.5297              3155.5325
 Red. masses --      1.1048                 1.1003                 1.1034
 Frc consts  --      6.4238                 6.4388                 6.4736
 IR Inten    --     50.0715                34.5868                41.8288

                     73                     74                     75
                      A                      A                      A
 Frequencies --   3167.3174              3556.1482              3561.2244
 Red. masses --      1.1035                 1.0769                 1.0770
 Frc consts  --      6.5222                 8.0237                 8.0476
 IR Inten    --     29.9382                97.3545                72.0188

 - Thermochemistry -
 -------------------
 Temperature   298.150 Kelvin.  Pressure   1.00000 Atm.
 Atom     1 has atomic number  6 and mass  12.00000

 Molecular mass:   182.10553 amu.
 Principal axes and moments of inertia in atomic units:
                           1         2         3
     Eigenvalues --  1335.542562851.320133415.85478
           X            0.99907   0.04130   0.01207
           Y           -0.04127   0.99914  -0.00269
           Z           -0.01217   0.00219   0.99992
 This molecule is an asymmetric top.
 Rotational symmetry number  1.
 Warning -- assumption of classical behavior for rotation
           may cause significant error
 Rotational temperatures (Kelvin)      0.06485     0.03038     0.02536
 Rotational constants (GHZ):           1.35132     0.63295     0.52834
 Zero-point vibrational energy     608671.0 (Joules/Mol)
                                  145.47586 (Kcal/Mol)
 Warning -- explicit consideration of  18 degrees of freedom as
           vibrations may cause significant error
 Vibrational temperatures:     57.11    77.89   124.92   129.98   294.05
          (Kelvin)            329.66   365.83   408.36   451.81   465.66
                              562.84   605.71   635.99   674.99   782.68
                              795.89   832.98   891.29   913.46   985.82
                             1054.94  1069.22  1120.86  1166.13  1219.14
                             1255.49  1318.92  1326.98  1395.73  1414.86
                             1439.11  1501.46  1529.09  1538.27  1558.01
                             1594.11  1601.10  1674.09  1726.01  1801.99
                             1822.45  1842.24  1908.33  1914.19  1937.46
                             1949.56  1961.86  1964.98  2020.29  2040.07
                             2087.37  2126.09  2153.00  2156.34  2172.38
                             2174.38  2178.89  2194.49  2206.30  2487.09
                             2500.64  4397.58  4411.15  4431.34  4438.09
                             4440.57  4442.67  4481.05  4487.68  4519.82
                             4534.35  4540.11  4557.06  5116.50  5123.81

 Zero-point correction=                           0.231831 (Hartree/Particle)
 Thermal correction to Energy=                    0.243789
 Thermal correction to Enthalpy=                  0.244734
 Thermal correction to Gibbs Free Energy=         0.193200
 Sum of electronic and zero-point Energies=           -611.161906
 Sum of electronic and thermal Energies=              -611.149947
 Sum of electronic and thermal Enthalpies=            -611.149003
 Sum of electronic and thermal Free Energies=         -611.200536

                     E (Thermal)             CV                S
                      KCal/Mol        Cal/Mol-Kelvin    Cal/Mol-Kelvin
 Total                  152.980             46.481            108.461
 Electronic               0.000              0.000              0.000
 Translational            0.889              2.981             41.505
 Rotational               0.889              2.981             30.943
 Vibrational            151.203             40.519             36.014
 Vibration     1          0.594              1.981              5.274
 Vibration     2          0.596              1.976              4.660
 Vibration     3          0.601              1.958              3.730
 Vibration     4          0.602              1.956              3.653
 Vibration     5          0.640              1.834              2.093
 Vibration     6          0.652              1.797              1.886
 Vibration     7          0.665              1.756              1.701
 Vibration     8          0.682              1.704              1.511
 Vibration     9          0.702              1.647              1.341
 Vibration    10          0.708              1.628              1.292
 Vibration    11          0.759              1.489              0.996
 Vibration    12          0.783              1.425              0.889
 Vibration    13          0.802              1.378              0.820
 Vibration    14          0.826              1.319              0.740
 Vibration    15          0.899              1.153              0.557
 Vibration    16          0.909              1.133              0.538
 Vibration    17          0.936              1.077              0.487
 Vibration    18          0.979              0.991              0.417

 Optimization completed.
    -- Stationary point found.
 Normal termination of Gaussian 16 at Tue Mar  1 21:29:09 2022.

 ------------------------------------------
 #p b3lyp/6-31G(d) geom=allcheck guess=read
 ------------------------------------------

 Structure from the checkpoint file:  "244.n.pdb.xyz.mst.wat.chk"
 -------------
 244.n.pdb.xyz
 -------------
 Charge =  0 Multiplicity = 1

 SCF Done:  E(RB3LYP) =  -611.371767513     A.U. after   12 cycles
 Normal termination of Gaussian 16 at Tue Mar  1 21:31:03 2022.
 Gaussian 16:  ES64L-G16RevA.03 25-Dec-2016

 ----------------------------------------------------------------------
 #p b3lyp/6-31G(d) scrf=(iefpcm,read,solvent=water) geom=allcheck guess
 =read
 ----------------------------------------------------------------------

 Structure from the checkpoint file:  "244.n.pdb.xyz.mst.wat.chk"
 -------------
 244.n.pdb.xyz
 -------------
 Charge =  0 Multiplicity = 1

                         Standard orientation:
 ---------------------------------------------------------------------
 Center     Atomic      Atomic             Coordinates (Angstroms)
 Number     Number       Type             X           Y           Z
 ---------------------------------------------------------------------
      1          6           0        2.916109    0.394382    1.210907
      2          6           0        2.235428    0.357086   -0.165637
      3          7           0        1.263835    1.431971   -0.326311
      4          6           0       -0.079424    1.336842   -0.269014
      5          8           0       -0.814922    2.329993   -0.292506
      6          6           0       -0.690468   -0.059607   -0.159243
      7          6           0       -1.281569   -0.251029    1.281990
      8          6           0       -2.641557   -0.930866    1.073568
      9          6           0       -3.166179   -0.255170   -0.200134
     10          6           0       -1.927578   -0.183673   -1.108240
     11          7           0        0.288307   -1.099496   -0.490811
     12          6           0        1.632168   -1.016998   -0.420576
     13          8           0        2.374142   -1.994805   -0.562517
     14          1           0        3.413765    1.355198    1.356111
     15          1           0        3.663913   -0.398700    1.274314
     16          1           0        2.183054    0.257433    2.010792
     17          1           0        3.003123    0.486959   -0.934324
     18          1           0        1.632326    2.378730   -0.350275
     19          1           0       -0.589399   -0.810294    1.915225
     20          1           0       -1.434791    0.734298    1.731904
     21          1           0       -2.509856   -2.006123    0.903524
     22          1           0       -3.305582   -0.811703    1.934331
     23          1           0       -3.995143   -0.792592   -0.668933
     24          1           0       -3.514703    0.756288    0.035933
     25          1           0       -1.965706    0.644621   -1.816424
     26          1           0       -1.825915   -1.107463   -1.684745
     27          1           0       -0.075414   -2.041294   -0.609126
 ---------------------------------------------------------------------

 SCF Done:  E(RB3LYP) =  -611.391728177     A.U. after   11 cycles

 The electronic state is 1-A.
 Alpha  occ. eigenvalues --  -19.11779 -19.11675 -14.36546 -14.36518 -10.29574
 Alpha  occ. eigenvalues --  -10.29421 -10.24500 -10.24149 -10.18638 -10.18485
 Alpha  occ. eigenvalues --  -10.18477 -10.18067 -10.17885  -1.04253  -1.03166
 Alpha  occ. eigenvalues --   -0.94605  -0.91864  -0.83043  -0.77359  -0.72482
 Alpha  occ. eigenvalues --   -0.71552  -0.66557  -0.64043  -0.59587  -0.57460
 Alpha  occ. eigenvalues --   -0.54042  -0.52544  -0.51208  -0.48948  -0.46740
 Alpha  occ. eigenvalues --   -0.46372  -0.43948  -0.43088  -0.42620  -0.41629
 Alpha  occ. eigenvalues --   -0.39850  -0.39193  -0.37787  -0.37356  -0.36592
 Alpha  occ. eigenvalues --   -0.35022  -0.34232  -0.33697  -0.33611  -0.32390
 Alpha  occ. eigenvalues --   -0.26568  -0.26408  -0.25564  -0.24751
 Alpha virt. eigenvalues --    0.01565   0.02072   0.08054   0.09098   0.10655
 Alpha virt. eigenvalues --    0.12071   0.12791   0.15222   0.15382   0.16210
 Alpha virt. eigenvalues --    0.16875   0.17043   0.17624   0.17988   0.18233

 Mulliken charges:
               1
     1  C   -0.446989
     2  C   -0.035387
     3  N   -0.615521
     4  C    0.596867
     5  O   -0.596978
     6  C    0.175767
     7  C   -0.281566
     8  C   -0.280456
     9  C   -0.271215
    10  C   -0.296888
    11  N   -0.644060
    12  C    0.613170
    13  O   -0.600430
    14  H    0.169621
    15  H    0.170162
    16  H    0.162655
    17  H    0.191966
    18  H    0.380424
    19  H    0.158113
    20  H    0.163788
    21  H    0.145995
    22  H    0.149382
    23  H    0.146357
    24  H    0.147344
    25  H    0.164656
    26  H    0.158157
    27  H    0.375064
 Sum of Mulliken charges =  -0.00000

 Dipole moment (field-independent basis, Debye):
    X=             -0.3421    Y=              0.0049    Z=              1.1565  Tot=              1.2060
 Quadrupole moment (field-independent basis, Debye-Ang):
   XX=            -77.0496   YY=            -86.8003   ZZ=            -75.5623
   XY=             20.3801   XZ=              2.0170   YZ=             -0.6173

 Normal termination of Gaussian 16 at Tue Mar  1 21:33:03 2022.
