 Gaussian 16, Revision A.03,

 ----------------------------------------------------------------------
 #p b3lyp/6-31G(d) opt=(MaxStep=10,MaxCycles=1000) freq scf=(MaxCycle=2
 000,NoVarAcc,NoIncFock) scrf=(iefpcm,read,solvent=water)
 ----------------------------------------------------------------------

 -------------
 245.n.pdb.xyz
 -------------
 Symbolic Z-matrix:
 Charge =  0 Multiplicity = 1

 SCF Done:  E(RB3LYP) =  -1103.21087967     A.U. after   13 cycles
 SCF Done:  E(RB3LYP) =  -1103.21572983     A.U. after   11 cycles
 SCF Done:  E(RB3LYP) =  -1103.21727726     A.U. after   11 cycles
 SCF Done:  E(RB3LYP) =  -1103.21592627     A.U. after   12 cycles
 SCF Done:  E(RB3LYP) =  -1103.21909068     A.U. after   11 cycles
 SCF Done:  E(RB3LYP) =  -1103.21929006     A.U. after   11 cycles
 SCF Done:  E(RB3LYP) =  -1103.21936395     A.U. after   10 cycles
 SCF Done:  E(RB3LYP) =  -1103.21939776     A.U. after   10 cycles
 SCF Done:  E(RB3LYP) =  -1103.21941388     A.U. after    9 cycles
 SCF Done:  E(RB3LYP) =  -1103.21943075     A.U. after    9 cycles
 SCF Done:  E(RB3LYP) =  -1103.21943955     A.U. after    8 cycles
 SCF Done:  E(RB3LYP) =  -1103.21944128     A.U. after    9 cycles
 SCF Done:  E(RB3LYP) =  -1103.21944162     A.U. after    9 cycles
 SCF Done:  E(RB3LYP) =  -1103.21944024     A.U. after    8 cycles
 SCF Done:  E(RB3LYP) =  -1103.21944570     A.U. after    7 cycles
 SCF Done:  E(RB3LYP) =  -1103.21944518     A.U. after    7 cycles
 SCF Done:  E(RB3LYP) =  -1103.21944627     A.U. after    7 cycles
 Optimization completed.
    -- Stationary point found.
 Normal termination of Gaussian 16 at Tue Mar  1 22:56:46 2022.

 --------------------------------------------------------------------
 #P Geom=AllCheck Guess=TCheck SCRF=Check GenChk RB3LYP/6-31G(d) Freq
 --------------------------------------------------------------------

 Structure from the checkpoint file:  "245.n.pdb.xyz.mst.wat.chk"
 -------------
 245.n.pdb.xyz
 -------------
 Charge =  0 Multiplicity = 1

 SCF Done:  E(RB3LYP) =  -1103.21944627     A.U. after    1 cycles

  Exact polarizability: 501.022 -10.634 351.860   7.188  -1.526 150.648
 Approx polarizability: 511.865 -20.312 428.181   7.409   0.086 173.870

                      1                      2                      3
                      A                      A                      A
 Frequencies --     17.9582                25.3537                30.5047
 Red. masses --      4.7759                 4.7827                 5.6660
 Frc consts  --      0.0009                 0.0018                 0.0031
 IR Inten    --      1.1406                 2.5003                 4.6623

                      4                      5                      6
                      A                      A                      A
 Frequencies --     36.3993                53.8631                84.8465
 Red. masses --      3.7765                 5.7237                 3.5985
 Frc consts  --      0.0029                 0.0098                 0.0153
 IR Inten    --      0.6318                 3.6665                 0.2562

                      7                      8                      9
                      A                      A                      A
 Frequencies --     91.4180                98.3538               116.4832
 Red. masses --      5.8994                 3.9846                 8.3052
 Frc consts  --      0.0290                 0.0227                 0.0664
 IR Inten    --      6.4820                 1.3615                 0.1965

                     10                     11                     12
                      A                      A                      A
 Frequencies --    145.7098               164.1343               189.2502
 Red. masses --      3.9113                 4.9204                 5.7868
 Frc consts  --      0.0489                 0.0781                 0.1221
 IR Inten    --      1.5722                 0.3260                 2.6143

                     13                     14                     15
                      A                      A                      A
 Frequencies --    194.7978               209.5697               223.2419
 Red. masses --      5.6452                 4.5273                 1.1086
 Frc consts  --      0.1262                 0.1171                 0.0326
 IR Inten    --      5.0185                 3.3544                 0.5371

                     16                     17                     18
                      A                      A                      A
 Frequencies --    241.4935               243.2445               284.5559
 Red. masses --      1.1051                 3.7554                 5.0306
 Frc consts  --      0.0380                 0.1309                 0.2400
 IR Inten    --      0.7924                 2.8795                23.8507

                     19                     20                     21
                      A                      A                      A
 Frequencies --    293.8987               306.0469               332.9759
 Red. masses --      4.4847                 5.1231                 5.7688
 Frc consts  --      0.2282                 0.2827                 0.3768
 IR Inten    --      1.7938                10.4112                 1.7737

                     22                     23                     24
                      A                      A                      A
 Frequencies --    351.6983               373.9080               378.2847
 Red. masses --      3.2977                 3.6328                 1.8664
 Frc consts  --      0.2403                 0.2992                 0.1574
 IR Inten    --      5.5793                 1.9956                 0.8896

                     25                     26                     27
                      A                      A                      A
 Frequencies --    440.7311               457.2085               468.8620
 Red. masses --      4.4128                 3.3006                 6.9458
 Frc consts  --      0.5050                 0.4065                 0.8996
 IR Inten    --      0.7658                 2.0540                14.9244

                     28                     29                     30
                      A                      A                      A
 Frequencies --    512.1596               527.5226               547.7097
 Red. masses --      1.1278                 4.6513                 1.7028
 Frc consts  --      0.1743                 0.7626                 0.3010
 IR Inten    --    185.3264                12.0324               146.2909

                     31                     32                     33
                      A                      A                      A
 Frequencies --    558.7180               580.2639               614.7440
 Red. masses --      5.0371                 5.4967                 2.1969
 Frc consts  --      0.9264                 1.0904                 0.4892
 IR Inten    --     27.7668                 1.4881                13.2360

                     34                     35                     36
                      A                      A                      A
 Frequencies --    629.6673               655.8228               664.6017
 Red. masses --      4.0521                 5.6241                 3.0859
 Frc consts  --      0.9466                 1.4252                 0.8031
 IR Inten    --      0.1934                 2.3876                39.8932

                     37                     38                     39
                      A                      A                      A
 Frequencies --    686.5389               700.3741               705.0142
 Red. masses --      5.5699                 6.3539                 2.3549
 Frc consts  --      1.5468                 1.8363                 0.6896
 IR Inten    --      1.7627                13.5490                10.9796

                     40                     41                     42
                      A                      A                      A
 Frequencies --    716.6097               727.0527               754.5463
 Red. masses --      4.3812                 1.8121                 9.6987
 Frc consts  --      1.3256                 0.5644                 3.2534
 IR Inten    --     24.5828                67.1941                20.6916

                     43                     44                     45
                      A                      A                      A
 Frequencies --    766.7270               799.6333               806.9368
 Red. masses --      5.8164                 1.2724                 1.4266
 Frc consts  --      2.0146                 0.4794                 0.5473
 IR Inten    --      9.6096               110.0707                 0.7118

                     46                     47                     48
                      A                      A                      A
 Frequencies --    835.8780               838.3860               860.6502
 Red. masses --      3.7076                 6.3731                 1.2703
 Frc consts  --      1.5263                 2.6393                 0.5544
 IR Inten    --      7.7143                34.2093                 2.0548

                     49                     50                     51
                      A                      A                      A
 Frequencies --    863.5633               876.5498               890.3132
 Red. masses --      1.3485                 3.5961                 1.8496
 Frc consts  --      0.5925                 1.6279                 0.8638
 IR Inten    --      0.4230                38.7591                31.3967

                     52                     53                     54
                      A                      A                      A
 Frequencies --    906.3324               913.0888               974.7686
 Red. masses --      1.4507                 4.1534                 4.2197
 Frc consts  --      0.7021                 2.0403                 2.3623
 IR Inten    --      1.7773                59.3882                17.5357

                     55                     56                     57
                      A                      A                      A
 Frequencies --    983.7291               986.8654               987.9673
 Red. masses --      2.0005                 1.2813                 5.2687
 Frc consts  --      1.1406                 0.7352                 3.0300
 IR Inten    --     12.3717                 1.5690                 3.9122

                     58                     59                     60
                      A                      A                      A
 Frequencies --   1011.8425              1041.5235              1074.5958
 Red. masses --      6.0316                 1.3438                 1.5327
 Frc consts  --      3.6384                 0.8589                 1.0428
 IR Inten    --      2.3145                91.1632                16.0105

                     61                     62                     63
                      A                      A                      A
 Frequencies --   1077.2390              1079.1490              1092.0228
 Red. masses --      1.6153                 2.0204                 1.9984
 Frc consts  --      1.1044                 1.3863                 1.4041
 IR Inten    --     22.3826                48.0080                52.1675

                     64                     65                     66
                      A                      A                      A
 Frequencies --   1097.0751              1126.4757              1134.8542
 Red. masses --      2.2306                 1.6209                 1.2577
 Frc consts  --      1.5818                 1.2119                 0.9544
 IR Inten    --     33.8279                34.4209                15.1094

                     67                     68                     69
                      A                      A                      A
 Frequencies --   1167.5116              1189.7918              1199.0116
 Red. masses --      2.3003                 1.7501                 1.1619
 Frc consts  --      1.8474                 1.4597                 0.9842
 IR Inten    --    236.8017                30.1494                27.7821

                     70                     71                     72
                      A                      A                      A
 Frequencies --   1203.5134              1211.1891              1229.3594
 Red. masses --      1.6797                 2.6176                 2.1230
 Frc consts  --      1.4334                 2.2624                 1.8904
 IR Inten    --     12.2590                 4.8152               285.7486

                     73                     74                     75
                      A                      A                      A
 Frequencies --   1237.2940              1251.3725              1314.3240
 Red. masses --      2.1641                 2.3943                 2.5548
 Frc consts  --      1.9520                 2.2090                 2.6003
 IR Inten    --     40.4199                54.2480                17.7364

                     76                     77                     78
                      A                      A                      A
 Frequencies --   1329.4563              1339.0868              1358.5223
 Red. masses --      2.7441                 2.6666                 2.3607
 Frc consts  --      2.8576                 2.8173                 2.5670
 IR Inten    --     25.0104               383.8378                12.4136

                     79                     80                     81
                      A                      A                      A
 Frequencies --   1365.3762              1368.7116              1377.4971
 Red. masses --      2.6505                 1.6386                 2.6178
 Frc consts  --      2.9113                 1.8086                 2.9267
 IR Inten    --     33.9662                 8.3421               143.4704

                     82                     83                     84
                      A                      A                      A
 Frequencies --   1379.9357              1401.7314              1423.6562
 Red. masses --      3.6726                 2.1340                 2.0962
 Frc consts  --      4.1204                 2.4704                 2.5032
 IR Inten    --    348.9454               430.7899                35.6169

                     85                     86                     87
                      A                      A                      A
 Frequencies --   1454.5267              1460.8684              1473.4000
 Red. masses --      4.1747                 1.1487                 1.1552
 Frc consts  --      5.2038                 1.4443                 1.4775
 IR Inten    --    301.2974                 0.5784                 1.5442

                     88                     89                     90
                      A                      A                      A
 Frequencies --   1480.0100              1483.1731              1501.8691
 Red. masses --      1.1782                 4.7854                 1.0557
 Frc consts  --      1.5205                 6.2023                 1.4029
 IR Inten    --     73.8900               800.7074                14.4266

                     91                     92                     93
                      A                      A                      A
 Frequencies --   1505.8396              1520.6334              1525.6586
 Red. masses --      4.4754                 1.1038                 2.6205
 Frc consts  --      5.9791                 1.5038                 3.5937
 IR Inten    --    279.3548                 7.3177                49.0637

                     94                     95                     96
                      A                      A                      A
 Frequencies --   1530.9011              1540.5456              1567.6549
 Red. masses --      1.0492                 1.0562                 3.1021
 Frc consts  --      1.4487                 1.4768                 4.4916
 IR Inten    --      6.1202                19.8869               162.0007

                     97                     98                     99
                      A                      A                      A
 Frequencies --   1582.9323              1604.6198              1626.1932
 Red. masses --      6.2435                 3.3734                 5.5602
 Frc consts  --      9.2173                 5.1175                 8.6634
 IR Inten    --    261.3870                65.6770               227.3555

                    100                    101                    102
                      A                      A                      A
 Frequencies --   1650.5483              1660.7786              1665.2106
 Red. masses --      5.9351                 5.6386                 4.9055
 Frc consts  --      9.5266                 9.1631                 8.0144
 IR Inten    --    403.3562               376.3544               672.0747

                    103                    104                    105
                      A                      A                      A
 Frequencies --   2993.9612              3000.6864              3037.0063
 Red. masses --      1.0528                 1.0563                 1.0593
 Frc consts  --      5.5600                 5.6037                 5.7568
 IR Inten    --     76.9614               185.4892                37.0456

                    106                    107                    108
                      A                      A                      A
 Frequencies --   3072.4319              3086.7270              3088.2209
 Red. masses --      1.1034                 1.0782                 1.0773
 Frc consts  --      6.1369                 6.0525                 6.0534
 IR Inten    --     39.2673                68.7537                79.3382

                    109                    110                    111
                      A                      A                      A
 Frequencies --   3130.0883              3132.5528              3213.4658
 Red. masses --      1.1043                 1.1040                 1.0883
 Frc consts  --      6.3747                 6.3831                 6.6216
 IR Inten    --     44.0286                57.4133                26.5439

                    112                    113                    114
                      A                      A                      A
 Frequencies --   3219.0401              3239.2643              3244.6737
 Red. masses --      1.0907                 1.0914                 1.0941
 Frc consts  --      6.6591                 6.7470                 6.7868
 IR Inten    --      8.2353                 8.3727                12.7694

                    115                    116                    117
                      A                      A                      A
 Frequencies --   3282.0615              3299.1175              3305.8918
 Red. masses --      1.0941                 1.0996                 1.0906
 Frc consts  --      6.9438                 7.0515                 7.0226
 IR Inten    --      9.8789                 5.3466                 3.9674

                    118                    119                    120
                      A                      A                      A
 Frequencies --   3322.5810              3504.7837              3634.0045
 Red. masses --      1.1056                 1.0770                 1.0813
 Frc consts  --      7.1910                 7.7942                 8.4136
 IR Inten    --      0.7333               185.2250               197.7199

 - Thermochemistry -
 -------------------
 Temperature   298.150 Kelvin.  Pressure   1.00000 Atm.
 Atom     1 has atomic number  6 and mass  12.00000

 Molecular mass:   326.13789 amu.
 Principal axes and moments of inertia in atomic units:
                           1         2         3
     Eigenvalues --  2668.69251********************
           X            0.99994   0.01124  -0.00029
           Y           -0.01124   0.99991  -0.00780
           Z            0.00020   0.00780   0.99997
 This molecule is an asymmetric top.
 Rotational symmetry number  1.
 Warning -- assumption of classical behavior for rotation
           may cause significant error
 Rotational temperatures (Kelvin)      0.03246     0.00360     0.00335
 Rotational constants (GHZ):           0.67626     0.07503     0.06972
 Zero-point vibrational energy     881956.2 (Joules/Mol)
                                  210.79260 (Kcal/Mol)
 Warning -- explicit consideration of  33 degrees of freedom as
           vibrations may cause significant error
 Vibrational temperatures:     25.84    36.48    43.89    52.37    77.50
          (Kelvin)            122.08   131.53   141.51   167.59   209.64
                              236.15   272.29   280.27   301.52   321.20
                              347.46   349.97   409.41   422.85   440.33
                              479.08   506.02   537.97   544.27   634.11
                              657.82   674.59   736.88   758.99   788.03
                              803.87   834.87   884.48   905.95   943.58
                              956.21   987.78  1007.68  1014.36  1031.04
                             1046.07  1085.62  1103.15  1150.49  1161.00
                             1202.64  1206.25  1238.28  1242.47  1261.16
                             1280.96  1304.01  1313.73  1402.47  1415.37
                             1419.88  1421.46  1455.82  1498.52  1546.10
                             1549.91  1552.65  1571.18  1578.45  1620.75
                             1632.80  1679.79  1711.85  1725.11  1731.59
                             1742.63  1768.77  1780.19  1800.45  1891.02
                             1912.79  1926.65  1954.61  1964.47  1969.27
                             1981.91  1985.42  2016.78  2048.32  2092.74
                             2101.86  2119.89  2129.40  2133.96  2160.85
                             2166.57  2187.85  2195.08  2202.63  2216.50
                             2255.51  2277.49  2308.69  2339.73  2374.77
                             2389.49  2395.87  4307.64  4317.32  4369.57
                             4420.54  4441.11  4443.26  4503.50  4507.04
                             4623.46  4631.48  4660.58  4668.36  4722.15
                             4746.69  4756.44  4780.45  5042.60  5228.52

 Zero-point correction=                           0.335919 (Hartree/Particle)
 Thermal correction to Energy=                    0.357594
 Thermal correction to Enthalpy=                  0.358538
 Thermal correction to Gibbs Free Energy=         0.282496
 Sum of electronic and zero-point Energies=          -1102.883527
 Sum of electronic and thermal Energies=             -1102.861853
 Sum of electronic and thermal Enthalpies=           -1102.860909
 Sum of electronic and thermal Free Energies=        -1102.936950

                     E (Thermal)             CV                S
                      KCal/Mol        Cal/Mol-Kelvin    Cal/Mol-Kelvin
 Total                  224.393             82.544            160.043
 Electronic               0.000              0.000              0.000
 Translational            0.889              2.981             43.242
 Rotational               0.889              2.981             35.762
 Vibrational            222.616             76.583             81.040
 Vibration     1          0.593              1.986              6.848
 Vibration     2          0.593              1.985              6.163
 Vibration     3          0.594              1.984              5.796
 Vibration     4          0.594              1.982              5.446
 Vibration     5          0.596              1.976              4.670
 Vibration     6          0.601              1.960              3.776
 Vibration     7          0.602              1.955              3.629
 Vibration     8          0.604              1.950              3.487
 Vibration     9          0.608              1.936              3.158
 Vibration    10          0.617              1.907              2.728
 Vibration    11          0.623              1.886              2.502
 Vibration    12          0.633              1.855              2.235
 Vibration    13          0.635              1.847              2.182
 Vibration    14          0.642              1.826              2.047
 Vibration    15          0.649              1.806              1.933
 Vibration    16          0.658              1.777              1.792
 Vibration    17          0.659              1.774              1.779
 Vibration    18          0.683              1.702              1.506
 Vibration    19          0.689              1.685              1.451
 Vibration    20          0.696              1.662              1.384
 Vibration    21          0.715              1.610              1.246
 Vibration    22          0.728              1.572              1.159
 Vibration    23          0.745              1.526              1.064
 Vibration    24          0.749              1.516              1.046
 Vibration    25          0.801              1.381              0.824
 Vibration    26          0.815              1.345              0.774
 Vibration    27          0.826              1.319              0.741
 Vibration    28          0.867              1.223              0.628
 Vibration    29          0.882              1.189              0.593
 Vibration    30          0.903              1.145              0.549
 Vibration    31          0.914              1.121              0.526
 Vibration    32          0.937              1.074              0.485
 Vibration    33          0.974              1.001              0.425

                           ! Non-Optimized Parameters !
 Normal termination of Gaussian 16 at Tue Mar  1 23:49:01 2022.

 ------------------------------------------
 #p b3lyp/6-31G(d) geom=allcheck guess=read
 ------------------------------------------

 Structure from the checkpoint file:  "245.n.pdb.xyz.mst.wat.chk"
 -------------
 245.n.pdb.xyz
 -------------
 Charge =  0 Multiplicity = 1

 SCF Done:  E(RB3LYP) =  -1103.19542979     A.U. after   12 cycles
 Normal termination of Gaussian 16 at Tue Mar  1 23:52:30 2022.
 Gaussian 16:  ES64L-G16RevA.03 25-Dec-2016

 ----------------------------------------------------------------------
 #p b3lyp/6-31G(d) scrf=(iefpcm,read,solvent=water) geom=allcheck guess
 =read
 ----------------------------------------------------------------------

 Structure from the checkpoint file:  "245.n.pdb.xyz.mst.wat.chk"
 -------------
 245.n.pdb.xyz
 -------------
 Charge =  0 Multiplicity = 1

                         Standard orientation:
 ---------------------------------------------------------------------
 Center     Atomic      Atomic             Coordinates (Angstroms)
 Number     Number       Type             X           Y           Z
 ---------------------------------------------------------------------
      1          6           0       -7.145739   -1.242633   -0.797006
      2          7           0       -6.885064   -0.161153    0.144474
      3          6           0       -7.015946   -0.567726    1.537790
      4          6           0       -5.700310    0.629387   -0.146766
      5          6           0       -4.357530   -0.044631   -0.008513
      6          6           0       -3.918856   -1.305616    0.281711
      7          6           0       -2.490188   -1.265450    0.243089
      8          6           0       -2.137474    0.020114   -0.069130
      9          8           0       -3.279750    0.771875   -0.223595
     10          6           0       -0.865478    0.700469   -0.257846
     11          6           0       -0.821209    2.063923   -0.599941
     12          6           0        0.406758    2.691789   -0.785150
     13          6           0        1.604461    1.993729   -0.635854
     14          6           0        1.569712    0.637669   -0.272707
     15          7           0        2.734061   -0.138896   -0.129845
     16          6           0        3.982184    0.246355    0.224900
     17          6           0        5.165472   -0.536503    0.178240
     18          6           0        6.249376    0.257427    0.682168
     19          6           0        5.717237    1.463805    1.013433
     20          7           0        4.348926    1.453179    0.725566
     21          7           0        5.232778   -1.839607   -0.277344
     22          8           0        6.338868   -2.418333   -0.311179
     23          8           0        4.172761   -2.415302   -0.648997
     24          6           0        0.337872   -0.000128   -0.090558
     25          1           0       -7.096693   -0.854176   -1.819120
     26          1           0       -8.155029   -1.628953   -0.624244
     27          1           0       -6.445395   -2.089827   -0.719953
     28          1           0       -6.879503    0.305088    2.183205
     29          1           0       -6.297291   -1.341101    1.853307
     30          1           0       -8.023847   -0.962046    1.700759
     31          1           0       -5.708861    1.508435    0.510236
     32          1           0       -5.791623    1.011290   -1.171936
     33          1           0       -4.537790   -2.162605    0.496599
     34          1           0       -1.814685   -2.088326    0.423859
     35          1           0       -1.746037    2.613396   -0.723569
     36          1           0        0.436875    3.739103   -1.066247
     37          1           0        2.547432    2.487404   -0.833639
     38          1           0        2.680516   -1.134787   -0.336488
     39          1           0        7.276870   -0.054281    0.771043
     40          1           0        6.170484    2.351338    1.424116
     41          1           0        3.710681    2.194808    0.984679
     42          1           0        0.321919   -1.047236    0.190451
 ---------------------------------------------------------------------

 SCF Done:  E(RB3LYP) =  -1103.21729865     A.U. after   12 cycles

 The electronic state is 1-A.
 Alpha  occ. eigenvalues --  -19.21531 -19.16186 -19.15984 -14.55470 -14.39545
 Alpha  occ. eigenvalues --  -14.38406 -14.33132 -10.29228 -10.24764 -10.24426
 Alpha  occ. eigenvalues --  -10.24338 -10.22943 -10.22435 -10.22239 -10.21483
 Alpha  occ. eigenvalues --  -10.20047 -10.20014 -10.19911 -10.19881 -10.19741
 Alpha  occ. eigenvalues --  -10.19275 -10.19250 -10.19038 -10.18666  -1.19674
 Alpha  occ. eigenvalues --   -1.11005  -1.02293  -1.01450  -0.95252  -0.92324
 Alpha  occ. eigenvalues --   -0.86450  -0.83515  -0.80248  -0.79245  -0.76838
 Alpha  occ. eigenvalues --   -0.74974  -0.74624  -0.70548  -0.69814  -0.69579
 Alpha  occ. eigenvalues --   -0.63591  -0.63342  -0.60974  -0.59958  -0.59179
 Alpha  occ. eigenvalues --   -0.57666  -0.56561  -0.55009  -0.53414  -0.51615
 Alpha  occ. eigenvalues --   -0.51382  -0.49934  -0.49760  -0.49538  -0.48199
 Alpha  occ. eigenvalues --   -0.47226  -0.46714  -0.45907  -0.45253  -0.45154
 Alpha  occ. eigenvalues --   -0.44193  -0.43615  -0.43190  -0.42430  -0.40649
 Alpha  occ. eigenvalues --   -0.40245  -0.39696  -0.39483  -0.38930  -0.38055
 Alpha  occ. eigenvalues --   -0.37552  -0.36744  -0.36484  -0.36444  -0.35484
 Alpha  occ. eigenvalues --   -0.33857  -0.30384  -0.29703  -0.28879  -0.27918
 Alpha  occ. eigenvalues --   -0.27569  -0.27130  -0.25779  -0.21571  -0.20720
 Alpha  occ. eigenvalues --   -0.19781
 Alpha virt. eigenvalues --   -0.06896  -0.03809  -0.00705   0.03170   0.04583
 Alpha virt. eigenvalues --    0.07795   0.08372   0.08769   0.10028   0.10379
 Alpha virt. eigenvalues --    0.11578   0.12210   0.13657   0.14049   0.14452

 Mulliken charges:
               1
     1  C   -0.310064
     2  N   -0.387025
     3  C   -0.309358
     4  C   -0.241149
     5  C    0.366871
     6  C   -0.248951
     7  C   -0.227102
     8  C    0.292276
     9  O   -0.503208
    10  C    0.080184
    11  C   -0.193624
    12  C   -0.158285
    13  C   -0.193612
    14  C    0.348644
    15  N   -0.777678
    16  C    0.615400
    17  C    0.239122
    18  C   -0.197659
    19  C    0.028256
    20  N   -0.651489
    21  N    0.305175
    22  O   -0.499464
    23  O   -0.518402
    24  C   -0.252730
    25  H    0.158800
    26  H    0.157940
    27  H    0.136927
    28  H    0.158418
    29  H    0.136093
    30  H    0.157757
    31  H    0.173968
    32  H    0.174977
    33  H    0.164741
    34  H    0.168831
    35  H    0.156137
    36  H    0.159286
    37  H    0.166000
    38  H    0.395129
    39  H    0.168893
    40  H    0.190230
    41  H    0.405970
    42  H    0.163777
 Sum of Mulliken charges =  -0.00000

 Dipole moment (field-independent basis, Debye):
    X=             -4.8623    Y=              7.2007    Z=              2.7797  Tot=              9.1224
 Quadrupole moment (field-independent basis, Debye-Ang):
   XX=           -160.3443   YY=           -136.1815   ZZ=           -138.8802
   XY=             49.6713   XZ=             11.2832   YZ=             -1.5884

 Normal termination of Gaussian 16 at Tue Mar  1 23:56:54 2022.
