 Gaussian 16, Revision A.03,

 ----------------------------------------------------------------------
 #p b3lyp/6-31G(d) opt=(MaxStep=10,MaxCycles=1000) freq scf=(MaxCycle=2
 000,NoVarAcc,NoIncFock) scrf=(iefpcm,read,solvent=water)
 ----------------------------------------------------------------------

 -------------
 246.n.pdb.xyz
 -------------
 Symbolic Z-matrix:
 Charge =  0 Multiplicity = 1

 SCF Done:  E(RB3LYP) =  -726.056463786     A.U. after   12 cycles
 SCF Done:  E(RB3LYP) =  -726.059987220     A.U. after   10 cycles
 SCF Done:  E(RB3LYP) =  -726.061062118     A.U. after   10 cycles
 SCF Done:  E(RB3LYP) =  -726.061216294     A.U. after   10 cycles
 SCF Done:  E(RB3LYP) =  -726.061275836     A.U. after   10 cycles
 SCF Done:  E(RB3LYP) =  -726.061262684     A.U. after   10 cycles
 SCF Done:  E(RB3LYP) =  -726.040787119     A.U. after   12 cycles
 SCF Done:  E(RB3LYP) =  -726.055723001     A.U. after   11 cycles
 SCF Done:  E(RB3LYP) =  -726.061276372     A.U. after    6 cycles
 SCF Done:  E(RB3LYP) =  -726.061253774     A.U. after   13 cycles
 SCF Done:  E(RB3LYP) =  -726.064980370     A.U. after   10 cycles
 SCF Done:  E(RB3LYP) =  -726.065018243     A.U. after    9 cycles
 SCF Done:  E(RB3LYP) =  -726.065038386     A.U. after    9 cycles
 SCF Done:  E(RB3LYP) =  -726.065045704     A.U. after    9 cycles
 SCF Done:  E(RB3LYP) =  -726.065055715     A.U. after    9 cycles
 SCF Done:  E(RB3LYP) =  -726.065058330     A.U. after    7 cycles
 SCF Done:  E(RB3LYP) =  -726.065058024     A.U. after    7 cycles
 Optimization completed.
    -- Stationary point found.
 Normal termination of Gaussian 16 at Wed Mar  2 00:17:17 2022.

 --------------------------------------------------------------------
 #P Geom=AllCheck Guess=TCheck SCRF=Check GenChk RB3LYP/6-31G(d) Freq
 --------------------------------------------------------------------

 Structure from the checkpoint file:  "246.n.pdb.xyz.mst.wat.chk"
 -------------
 246.n.pdb.xyz
 -------------
 Charge =  0 Multiplicity = 1

 SCF Done:  E(RB3LYP) =  -726.065058024     A.U. after    1 cycles

  Exact polarizability: 100.068  -2.398  93.800   8.380   5.623  55.055
 Approx polarizability: 106.924   2.842 107.296  12.314   8.883  62.727

                      1                      2                      3
                      A                      A                      A
 Frequencies --     45.6144                78.6078               135.2460
 Red. masses --      5.4617                 6.1594                 2.1937
 Frc consts  --      0.0067                 0.0224                 0.0236
 IR Inten    --     17.0013                 1.7298                 4.7660

                      4                      5                      6
                      A                      A                      A
 Frequencies --    225.7068               264.4554               328.4890
 Red. masses --      4.5009                 3.1214                 4.7096
 Frc consts  --      0.1351                 0.1286                 0.2994
 IR Inten    --     20.6833                19.0321                18.1096

                      7                      8                      9
                      A                      A                      A
 Frequencies --    368.1791               442.0188               479.0195
 Red. masses --      1.1701                 5.3462                 5.2840
 Frc consts  --      0.0935                 0.6154                 0.7144
 IR Inten    --     50.3069                17.7389                50.1391

                     10                     11                     12
                      A                      A                      A
 Frequencies --    515.5534               613.8399               655.9040
 Red. masses --      1.3093                 2.8261                 2.9445
 Frc consts  --      0.2050                 0.6274                 0.7463
 IR Inten    --    404.4872                17.9137               118.6936

                     13                     14                     15
                      A                      A                      A
 Frequencies --    762.3917               776.3071               786.2937
 Red. masses --      2.5253                 1.5539                 1.4509
 Frc consts  --      0.8648                 0.5517                 0.5285
 IR Inten    --     10.4842                58.5514               112.9888

                     16                     17                     18
                      A                      A                      A
 Frequencies --   1030.7296              1061.1094              1075.1651
 Red. masses --      7.6193                 1.3791                 3.3973
 Frc consts  --      4.7693                 0.9149                 2.3138
 IR Inten    --    176.2409                12.2539                30.4735

                     19                     20                     21
                      A                      A                      A
 Frequencies --   1109.0794              1139.8573              1242.7936
 Red. masses --      2.7299                 1.1898                 1.2058
 Frc consts  --      1.9785                 0.9108                 1.0973
 IR Inten    --     85.0429                91.9018                 3.0970

                     22                     23                     24
                      A                      A                      A
 Frequencies --   1280.8984              1322.0087              1364.6959
 Red. masses --      1.2536                 1.0999                 2.1294
 Frc consts  --      1.2118                 1.1326                 2.3366
 IR Inten    --     12.3610                 0.1507               286.2798

                     25                     26                     27
                      A                      A                      A
 Frequencies --   1433.7791              1475.4916              1552.8970
 Red. masses --      1.2376                 1.1441                 1.0866
 Frc consts  --      1.4989                 1.4676                 1.5439
 IR Inten    --     26.6576                10.7984                 3.1650

                     28                     29                     30
                      A                      A                      A
 Frequencies --   1635.5799              1678.7268              3097.0168
 Red. masses --      1.2185                 5.0810                 1.0572
 Frc consts  --      1.9205                 8.4365                 5.9747
 IR Inten    --    105.1643               523.8176                24.4673

                     31                     32                     33
                      A                      A                      A
 Frequencies --   3103.0616              3151.9399              3174.4092
 Red. masses --      1.0598                 1.1081                 1.1081
 Frc consts  --      6.0126                 6.4861                 6.5792
 IR Inten    --     34.3586                33.3472                14.4683

                     34                     35                     36
                      A                      A                      A
 Frequencies --   3426.3940              3542.8319              3645.0441
 Red. masses --      1.0743                 1.0483                 1.1011
 Frc consts  --      7.4308                 7.7525                 8.6194
 IR Inten    --      7.2425                99.7441                79.8202

 - Thermochemistry -
 -------------------
 Temperature   298.150 Kelvin.  Pressure   1.00000 Atm.
 Atom     1 has atomic number  7 and mass  14.00307

 Molecular mass:   122.03140 amu.
 Principal axes and moments of inertia in atomic units:
                           1         2         3
     Eigenvalues --   394.996181632.997541895.04608
           X            0.99974  -0.02300   0.00035
           Y            0.02300   0.99973  -0.00309
           Z           -0.00028   0.00310   1.00000
 This molecule is an asymmetric top.
 Rotational symmetry number  1.
 Rotational temperatures (Kelvin)      0.21928     0.05304     0.04571
 Rotational constants (GHZ):           4.56901     1.10517     0.95235
 Zero-point vibrational energy     287230.2 (Joules/Mol)
                                   68.64966 (Kcal/Mol)
 Warning -- explicit consideration of  11 degrees of freedom as
           vibrations may cause significant error
 Vibrational temperatures:     65.63   113.10   194.59   324.74   380.49
          (Kelvin)            472.62   529.73   635.97   689.20   741.77
                              883.18   943.70  1096.91  1116.93  1131.30
                             1482.99  1526.70  1546.92  1595.72  1640.00
                             1788.10  1842.93  1902.08  1963.49  2062.89
                             2122.90  2234.27  2353.23  2415.31  4455.92
                             4464.61  4534.94  4567.27  4929.82  5097.34
                             5244.41

 Zero-point correction=                           0.109400 (Hartree/Particle)
 Thermal correction to Energy=                    0.117704
 Thermal correction to Enthalpy=                  0.118649
 Thermal correction to Gibbs Free Energy=         0.075542
 Sum of electronic and zero-point Energies=           -725.955658
 Sum of electronic and thermal Energies=              -725.947354
 Sum of electronic and thermal Enthalpies=            -725.946409
 Sum of electronic and thermal Free Energies=         -725.989516

                     E (Thermal)             CV                S
                      KCal/Mol        Cal/Mol-Kelvin    Cal/Mol-Kelvin
 Total                   73.861             28.806             90.726
 Electronic               0.000              0.000              0.000
 Translational            0.889              2.981             40.312
 Rotational               0.889              2.981             28.593
 Vibrational             72.083             22.844             21.821
 Vibration     1          0.595              1.979              4.999
 Vibration     2          0.600              1.964              3.925
 Vibration     3          0.613              1.918              2.870
 Vibration     4          0.650              1.802              1.913
 Vibration     5          0.671              1.738              1.632
 Vibration     6          0.712              1.619              1.268
 Vibration     7          0.741              1.538              1.087
 Vibration     8          0.802              1.378              0.820
 Vibration     9          0.835              1.297              0.713
 Vibration    10          0.871              1.216              0.620
 Vibration    11          0.973              1.003              0.426

 Optimization completed.
    -- Stationary point found.
 Normal termination of Gaussian 16 at Wed Mar  2 00:19:57 2022.

 ------------------------------------------
 #p b3lyp/6-31G(d) geom=allcheck guess=read
 ------------------------------------------

 Structure from the checkpoint file:  "246.n.pdb.xyz.mst.wat.chk"
 -------------
 246.n.pdb.xyz
 -------------
 Charge =  0 Multiplicity = 1

 SCF Done:  E(RB3LYP) =  -726.045141823     A.U. after   11 cycles
 Normal termination of Gaussian 16 at Wed Mar  2 00:20:15 2022.
 Gaussian 16:  ES64L-G16RevA.03 25-Dec-2016

 ----------------------------------------------------------------------
 #p b3lyp/6-31G(d) scrf=(iefpcm,read,solvent=water) geom=allcheck guess
 =read
 ----------------------------------------------------------------------

 Structure from the checkpoint file:  "246.n.pdb.xyz.mst.wat.chk"
 -------------
 246.n.pdb.xyz
 -------------
 Charge =  0 Multiplicity = 1

                         Standard orientation:
 ---------------------------------------------------------------------
 Center     Atomic      Atomic             Coordinates (Angstroms)
 Number     Number       Type             X           Y           Z
 ---------------------------------------------------------------------
      1          7           0       -2.789668    0.123889   -0.416557
      2          6           0       -1.518522    0.380047    0.036269
      3          7           0       -1.007315    1.508444    0.360470
      4         16           0       -0.513251   -1.121999    0.052892
      5          6           0        1.099855   -0.462938    0.596030
      6          6           0        1.907540    0.081188   -0.568575
      7          9           0        3.130226    0.556965   -0.075910
      8          1           0       -3.155099   -0.813239   -0.293526
      9          1           0       -3.473118    0.848546   -0.217807
     10          1           0       -1.721300    2.243328    0.308582
     11          1           0        1.623230   -1.293329    1.077478
     12          1           0        0.908292    0.322092    1.328194
     13          1           0        2.118198   -0.696157   -1.307607
     14          1           0        1.385432    0.911949   -1.048134
 ---------------------------------------------------------------------

 SCF Done:  E(RB3LYP) =  -726.063839072     A.U. after   11 cycles

 The electronic state is 1-A.
 Alpha  occ. eigenvalues --  -88.88863 -24.67356 -14.34721 -14.30103 -10.28618
 Alpha  occ. eigenvalues --  -10.25711 -10.21737  -7.95086  -5.91585  -5.91181
 Alpha  occ. eigenvalues --   -5.90598  -1.17761  -0.95066  -0.85180  -0.80458
 Alpha  occ. eigenvalues --   -0.71269  -0.62793  -0.56425  -0.51943  -0.51028
 Alpha  occ. eigenvalues --   -0.49152  -0.48450  -0.45006  -0.41883  -0.39148
 Alpha  occ. eigenvalues --   -0.38119  -0.34919  -0.33326  -0.32713  -0.27633
 Alpha  occ. eigenvalues --   -0.25399  -0.23841
 Alpha virt. eigenvalues --    0.02504   0.03313   0.06590   0.10903   0.11778
 Alpha virt. eigenvalues --    0.13516   0.14947   0.15599   0.16852   0.17629
 Alpha virt. eigenvalues --    0.19936   0.22752   0.28951   0.32064   0.36358

 Mulliken charges:
               1
     1  N   -0.760030
     2  C    0.287467
     3  N   -0.685021
     4  S    0.076886
     5  C   -0.445033
     6  C    0.050265
     7  F   -0.343388
     8  H    0.387549
     9  H    0.383294
    10  H    0.327192
    11  H    0.199675
    12  H    0.206362
    13  H    0.154794
    14  H    0.159987
 Sum of Mulliken charges =  -0.00000

 Dipole moment (field-independent basis, Debye):
    X=             -5.1831    Y=             -0.7962    Z=             -0.1151  Tot=              5.2451
 Quadrupole moment (field-independent basis, Debye-Ang):
   XX=            -37.4044   YY=            -47.8788   ZZ=            -50.3514
   XY=             -6.3801   XZ=             -1.3277   YZ=             -0.9027

 Normal termination of Gaussian 16 at Wed Mar  2 00:20:38 2022.
