 Gaussian 16, Revision A.03,

 ----------------------------------------------------------------------
 #p b3lyp/6-31G(d) opt=(MaxStep=10,MaxCycles=1000) freq scf=(MaxCycle=2
 000,NoVarAcc,NoIncFock) scrf=(iefpcm,read,solvent=water)
 ----------------------------------------------------------------------

 -------------
 247.n.pdb.xyz
 -------------
 Symbolic Z-matrix:
 Charge =  0 Multiplicity = 1

 SCF Done:  E(RB3LYP) =  -1121.47354695     A.U. after   13 cycles
 SCF Done:  E(RB3LYP) =  -1121.47868566     A.U. after   11 cycles
 SCF Done:  E(RB3LYP) =  -1121.48094392     A.U. after   11 cycles
 SCF Done:  E(RB3LYP) =  -1121.48042091     A.U. after   11 cycles
 SCF Done:  E(RB3LYP) =  -1121.48244392     A.U. after   11 cycles
 SCF Done:  E(RB3LYP) =  -1121.48279365     A.U. after   11 cycles
 SCF Done:  E(RB3LYP) =  -1121.48289677     A.U. after   10 cycles
 SCF Done:  E(RB3LYP) =  -1121.48293751     A.U. after   10 cycles
 SCF Done:  E(RB3LYP) =  -1121.48292661     A.U. after   10 cycles
 SCF Done:  E(RB3LYP) =  -1121.48294333     A.U. after    9 cycles
 SCF Done:  E(RB3LYP) =  -1121.48294215     A.U. after   10 cycles
 SCF Done:  E(RB3LYP) =  -1121.48291824     A.U. after   10 cycles
 SCF Done:  E(RB3LYP) =  -1121.48294286     A.U. after   10 cycles
 SCF Done:  E(RB3LYP) =  -1121.48291847     A.U. after   10 cycles
 SCF Done:  E(RB3LYP) =  -1121.48294316     A.U. after   10 cycles
 SCF Done:  E(RB3LYP) =  -1121.48291085     A.U. after   10 cycles
 SCF Done:  E(RB3LYP) =  -1121.48291422     A.U. after    8 cycles
 Optimization completed.
    -- Stationary point found.
 Normal termination of Gaussian 16 at Wed Mar  2 05:02:14 2022.

 --------------------------------------------------------------------
 #P Geom=AllCheck Guess=TCheck SCRF=Check GenChk RB3LYP/6-31G(d) Freq
 --------------------------------------------------------------------

 Structure from the checkpoint file:  "247.n.pdb.xyz.mst.wat.chk"
 -------------
 247.n.pdb.xyz
 -------------
 Charge =  0 Multiplicity = 1

 SCF Done:  E(RB3LYP) =  -1121.48291422     A.U. after    1 cycles

  Exact polarizability: 522.596 -16.836 381.655   6.872  -0.703 152.494
 Approx polarizability: 540.215 -27.007 459.401   9.649  -4.750 176.232

                      1                      2                      3
                      A                      A                      A
 Frequencies --     14.8629                21.8215                28.4377
 Red. masses --      5.5018                 4.9911                 4.2758
 Frc consts  --      0.0007                 0.0014                 0.0020
 IR Inten    --      0.2839                 2.1252                 1.0794

                      4                      5                      6
                      A                      A                      A
 Frequencies --     36.0142                61.4476                74.7316
 Red. masses --      5.6381                 4.9030                 3.3690
 Frc consts  --      0.0043                 0.0109                 0.0111
 IR Inten    --      0.9814                 3.7061                 4.7186

                      7                      8                      9
                      A                      A                      A
 Frequencies --     92.3633               102.7777               118.2574
 Red. masses --      4.1029                 5.9374                 7.0197
 Frc consts  --      0.0206                 0.0370                 0.0578
 IR Inten    --      1.6851                 1.7600                 0.8859

                     10                     11                     12
                      A                      A                      A
 Frequencies --    145.9185               169.4662               186.1121
 Red. masses --      4.3816                 5.7148                 5.8860
 Frc consts  --      0.0550                 0.0967                 0.1201
 IR Inten    --      3.3630                 0.3450                 1.8871

                     13                     14                     15
                      A                      A                      A
 Frequencies --    203.8127               233.0399               238.5093
 Red. masses --      4.9032                 4.8003                 4.3900
 Frc consts  --      0.1200                 0.1536                 0.1471
 IR Inten    --      8.5616                 0.2257                 1.4672

                     16                     17                     18
                      A                      A                      A
 Frequencies --    247.4432               252.1237               261.4321
 Red. masses --      2.2957                 1.3956                 1.1371
 Frc consts  --      0.0828                 0.0523                 0.0458
 IR Inten    --      0.8435                 2.2390                 0.6259

                     19                     20                     21
                      A                      A                      A
 Frequencies --    294.5310               327.2302               334.0603
 Red. masses --      5.8516                 6.4168                 3.1016
 Frc consts  --      0.2991                 0.4048                 0.2039
 IR Inten    --     11.0852                 1.0300                 6.3103

                     22                     23                     24
                      A                      A                      A
 Frequencies --    358.7028               362.1607               369.7507
 Red. masses --      3.0227                 3.4472                 2.8636
 Frc consts  --      0.2291                 0.2664                 0.2307
 IR Inten    --     10.2432                 0.2905                 1.2428

                     25                     26                     27
                      A                      A                      A
 Frequencies --    424.8597               427.0889               463.5986
 Red. masses --      3.0948                 2.7753                 7.8158
 Frc consts  --      0.3291                 0.2983                 0.9897
 IR Inten    --      1.0168                 5.5789                 6.3626

                     28                     29                     30
                      A                      A                      A
 Frequencies --    474.8906               502.2301               520.6915
 Red. masses --      3.1701                 4.0338                 1.3610
 Frc consts  --      0.4212                 0.5995                 0.2174
 IR Inten    --      2.7110                16.0163               115.0200

                     31                     32                     33
                      A                      A                      A
 Frequencies --    542.6032               547.6188               561.8625
 Red. masses --      3.7092                 1.2582                 5.3018
 Frc consts  --      0.6434                 0.2223                 0.9861
 IR Inten    --     17.6610               214.8305                30.7450

                     34                     35                     36
                      A                      A                      A
 Frequencies --    606.3312               612.6408               655.4092
 Red. masses --      3.2271                 4.0696                 6.8017
 Frc consts  --      0.6990                 0.8999                 1.7214
 IR Inten    --      0.5509                 5.2204                15.0318

                     37                     38                     39
                      A                      A                      A
 Frequencies --    658.6405               664.5494               670.5395
 Red. masses --      4.6627                 3.2345                 5.2051
 Frc consts  --      1.1918                 0.8416                 1.3789
 IR Inten    --     12.0357                49.3207                 0.8302

                     40                     41                     42
                      A                      A                      A
 Frequencies --    711.5313               724.2704               753.3484
 Red. masses --      2.3417                 1.8823                 5.6864
 Frc consts  --      0.6985                 0.5818                 1.9014
 IR Inten    --     16.6781                56.2829                 3.9327

                     43                     44                     45
                      A                      A                      A
 Frequencies --    756.1864               767.9700               772.9968
 Red. masses --      8.8988                 3.5517                 4.8503
 Frc consts  --      2.9980                 1.2342                 1.7075
 IR Inten    --     25.0190                 9.9267                10.7929

                     46                     47                     48
                      A                      A                      A
 Frequencies --    811.0399               838.7149               841.2991
 Red. masses --      1.6247                 4.3905                 3.0782
 Frc consts  --      0.6296                 1.8197                 1.2836
 IR Inten    --     42.8786                36.0792                17.0735

                     49                     50                     51
                      A                      A                      A
 Frequencies --    857.8720               871.4769               880.7187
 Red. masses --      1.2777                 2.8111                 2.3661
 Frc consts  --      0.5540                 1.2579                 1.0813
 IR Inten    --      2.2101                40.2981                65.6848

                     52                     53                     54
                      A                      A                      A
 Frequencies --    905.0330               914.0388               918.0420
 Red. masses --      3.5195                 1.4923                 1.3910
 Frc consts  --      1.6985                 0.7346                 0.6907
 IR Inten    --     30.5358                 8.3929                26.2633

                     55                     56                     57
                      A                      A                      A
 Frequencies --    934.3236               959.9678               986.9699
 Red. masses --      1.5784                 3.3214                 1.2783
 Frc consts  --      0.8118                 1.8034                 0.7336
 IR Inten    --     10.7255                10.8921                 0.8913

                     58                     59                     60
                      A                      A                      A
 Frequencies --    992.8392              1009.5431              1014.0736
 Red. masses --      1.3662                 3.3395                 3.5009
 Frc consts  --      0.7934                 2.0053                 2.1211
 IR Inten    --      1.3873                20.1094                 2.4061

                     61                     62                     63
                      A                      A                      A
 Frequencies --   1017.6612              1056.9029              1071.1564
 Red. masses --      4.1682                 2.1893                 1.5987
 Frc consts  --      2.5433                 1.4408                 1.0808
 IR Inten    --      1.0576                62.5670                15.3314

                     64                     65                     66
                      A                      A                      A
 Frequencies --   1074.7086              1094.5364              1095.0192
 Red. masses --      1.4761                 2.0050                 1.9966
 Frc consts  --      1.0045                 1.4152                 1.4105
 IR Inten    --     21.7789                60.8680                11.9119

                     67                     68                     69
                      A                      A                      A
 Frequencies --   1132.4969              1133.6185              1136.8159
 Red. masses --      1.4199                 1.2814                 1.6280
 Frc consts  --      1.0730                 0.9702                 1.2396
 IR Inten    --      9.4592                 5.5012                27.1891

                     70                     71                     72
                      A                      A                      A
 Frequencies --   1168.0853              1183.8747              1206.9178
 Red. masses --      2.4091                 1.4221                 1.3417
 Frc consts  --      1.9367                 1.1744                 1.1515
 IR Inten    --    246.3831                12.5995                33.2640

                     73                     74                     75
                      A                      A                      A
 Frequencies --   1213.7441              1218.5770              1242.7400
 Red. masses --      1.9426                 1.4114                 2.9303
 Frc consts  --      1.6861                 1.2349                 2.6664
 IR Inten    --     25.0549               137.2346               199.0474

                     76                     77                     78
                      A                      A                      A
 Frequencies --   1257.9895              1294.3323              1307.7238
 Red. masses --      2.2004                 2.9282                 2.5024
 Frc consts  --      2.0516                 2.8903                 2.5214
 IR Inten    --     23.0724                10.3523                21.4038

                     79                     80                     81
                      A                      A                      A
 Frequencies --   1320.6963              1324.5606              1337.7388
 Red. masses --      1.8214                 2.4220                 3.1002
 Frc consts  --      1.8718                 2.5036                 3.2687
 IR Inten    --     61.4872                50.2029               132.2970

                     82                     83                     84
                      A                      A                      A
 Frequencies --   1343.2378              1365.9579              1380.1354
 Red. masses --      1.6443                 2.2817                 3.3614
 Frc consts  --      1.7480                 2.5083                 3.7724
 IR Inten    --    145.8536                59.5130               370.3378

                     85                     86                     87
                      A                      A                      A
 Frequencies --   1380.2369              1393.2829              1407.6149
 Red. masses --      3.3368                 2.0619                 1.8726
 Frc consts  --      3.7453                 2.3583                 2.1861
 IR Inten    --    134.7633               100.9562               373.8222

                     88                     89                     90
                      A                      A                      A
 Frequencies --   1441.0513              1456.5388              1462.5125
 Red. masses --      2.7090                 3.5516                 1.1635
 Frc consts  --      3.3145                 4.4394                 1.4663
 IR Inten    --    146.0945               185.6874                 4.1227

                     91                     92                     93
                      A                      A                      A
 Frequencies --   1484.0834              1485.9021              1504.6709
 Red. masses --      1.9017                 2.1048                 1.1075
 Frc consts  --      2.4678                 2.7380                 1.4774
 IR Inten    --    412.6834               521.9464                42.7719

                     94                     95                     96
                      A                      A                      A
 Frequencies --   1505.5327              1507.5659              1518.0783
 Red. masses --      2.7120                 1.1745                 1.2712
 Frc consts  --      3.6218                 1.5728                 1.7260
 IR Inten    --    234.3338                39.5200                29.0156

                     97                     98                     99
                      A                      A                      A
 Frequencies --   1521.4357              1524.9600              1535.1133
 Red. masses --      1.8337                 1.0558                 1.0518
 Frc consts  --      2.5008                 1.4466                 1.4604
 IR Inten    --     63.3555                 3.4168                 8.8022

                    100                    101                    102
                      A                      A                      A
 Frequencies --   1546.8717              1568.1072              1603.7976
 Red. masses --      2.6727                 2.9582                 3.4106
 Frc consts  --      3.7679                 4.2858                 5.1687
 IR Inten    --     66.3797               153.8861                43.8192

                    103                    104                    105
                      A                      A                      A
 Frequencies --   1613.9826              1635.0814              1654.8376
 Red. masses --      6.4209                 5.2890                 5.7247
 Frc consts  --      9.8547                 8.3310                 9.2366
 IR Inten    --     82.2968               666.1976                81.5212

                    106                    107                    108
                      A                      A                      A
 Frequencies --   1659.2240              1666.3202              2956.9297
 Red. masses --      5.3147                 5.0069                 1.0713
 Frc consts  --      8.6207                 8.1911                 5.5189
 IR Inten    --    307.3807               754.2872                73.2875

                    109                    110                    111
                      A                      A                      A
 Frequencies --   2965.1873              2971.8200              3070.7141
 Red. masses --      1.0592                 1.0618                 1.0873
 Frc consts  --      5.4872                 5.5252                 6.0407
 IR Inten    --     59.8646               276.8968                33.5653

                    112                    113                    114
                      A                      A                      A
 Frequencies --   3095.6779              3103.8864              3141.5383
 Red. masses --      1.0720                 1.0714                 1.1047
 Frc consts  --      6.0529                 6.0816                 6.4238
 IR Inten    --     56.7490                53.6420                48.1897

                    115                    116                    117
                      A                      A                      A
 Frequencies --   3150.4381              3184.5489              3214.7983
 Red. masses --      1.1039                 1.0897                 1.0879
 Frc consts  --      6.4554                 6.5112                 6.6244
 IR Inten    --     50.0399                60.3305                20.9439

                    118                    119                    120
                      A                      A                      A
 Frequencies --   3224.6946              3236.8181              3237.2974
 Red. masses --      1.0915                 1.0902                 1.0927
 Frc consts  --      6.6871                 6.7295                 6.7474
 IR Inten    --      3.1680                10.1472                15.3653

                    121                    122                    123
                      A                      A                      A
 Frequencies --   3240.4657              3246.7130              3306.5490
 Red. masses --      1.0899                 1.0937                 1.0905
 Frc consts  --      6.7430                 6.7929                 7.0249
 IR Inten    --     19.8068                17.4503                 4.2490

                    124                    125                    126
                      A                      A                      A
 Frequencies --   3323.0681              3502.4867              3644.9913
 Red. masses --      1.1057                 1.0770                 1.0811
 Frc consts  --      7.1941                 7.7843                 8.4628
 IR Inten    --      0.5479               185.6825               193.2155

 - Thermochemistry -
 -------------------
 Temperature   298.150 Kelvin.  Pressure   1.00000 Atm.
 Atom     1 has atomic number  6 and mass  12.00000

 Molecular mass:   337.15388 amu.
 Principal axes and moments of inertia in atomic units:
                           1         2         3
     Eigenvalues --  2760.69653********************
           X            0.99999   0.00372  -0.00219
           Y           -0.00371   0.99998   0.00476
           Z            0.00221  -0.00475   0.99999
 This molecule is an asymmetric top.
 Rotational symmetry number  1.
 Warning -- assumption of classical behavior for rotation
           may cause significant error
 Rotational temperatures (Kelvin)      0.03137     0.00337     0.00312
 Rotational constants (GHZ):           0.65373     0.07022     0.06511
 Zero-point vibrational energy     932880.7 (Joules/Mol)
                                  222.96383 (Kcal/Mol)
 Warning -- explicit consideration of  35 degrees of freedom as
           vibrations may cause significant error
 Vibrational temperatures:     21.38    31.40    40.92    51.82    88.41
          (Kelvin)            107.52   132.89   147.87   170.15   209.94
                              243.82   267.77   293.24   335.29   343.16
                              356.02   362.75   376.14   423.76   470.81
                              480.64   516.09   521.07   531.99   611.28
                              614.49   667.01   683.26   722.60   749.16
                              780.69   787.90   808.39   872.38   881.45
                              942.99   947.64   956.14   964.76  1023.73
                             1042.06  1083.90  1087.98  1104.94  1112.17
                             1166.91  1206.72  1210.44  1234.29  1253.86
                             1267.16  1302.14  1315.10  1320.86  1344.28
                             1381.18  1420.03  1428.47  1452.51  1459.03
                             1464.19  1520.65  1541.16  1546.27  1574.79
                             1575.49  1629.41  1631.02  1635.62  1680.61
                             1703.33  1736.49  1746.31  1753.26  1788.03
                             1809.97  1862.26  1881.52  1900.19  1905.75
                             1924.71  1932.62  1965.31  1985.71  1985.85
                             2004.62  2025.24  2073.35  2095.63  2104.23
                             2135.26  2137.88  2164.89  2166.13  2169.05
                             2184.18  2189.01  2194.08  2208.69  2225.60
                             2256.16  2307.51  2322.16  2352.52  2380.94
                             2387.25  2397.46  4254.36  4266.24  4275.79
                             4418.07  4453.99  4465.80  4519.97  4532.78
                             4581.86  4625.38  4639.62  4657.06  4657.75
                             4662.31  4671.30  4757.39  4781.15  5039.30
                             5244.33

 Zero-point correction=                           0.355315 (Hartree/Particle)
 Thermal correction to Energy=                    0.377342
 Thermal correction to Enthalpy=                  0.378286
 Thermal correction to Gibbs Free Energy=         0.301408
 Sum of electronic and zero-point Energies=          -1121.127599
 Sum of electronic and thermal Energies=             -1121.105572
 Sum of electronic and thermal Enthalpies=           -1121.104628
 Sum of electronic and thermal Free Energies=        -1121.181507

                     E (Thermal)             CV                S
                      KCal/Mol        Cal/Mol-Kelvin    Cal/Mol-Kelvin
 Total                  236.786             84.923            161.804
 Electronic               0.000              0.000              0.000
 Translational            0.889              2.981             43.341
 Rotational               0.889              2.981             35.929
 Vibrational            235.008             78.961             82.534
 Vibration     1          0.593              1.986              7.224
 Vibration     2          0.593              1.985              6.461
 Vibration     3          0.593              1.984              5.936
 Vibration     4          0.594              1.982              5.467
 Vibration     5          0.597              1.973              4.410
 Vibration     6          0.599              1.966              4.025
 Vibration     7          0.602              1.955              3.609
 Vibration     8          0.605              1.947              3.401
 Vibration     9          0.608              1.934              3.129
 Vibration    10          0.617              1.907              2.725
 Vibration    11          0.625              1.880              2.441
 Vibration    12          0.632              1.859              2.266
 Vibration    13          0.639              1.834              2.098
 Vibration    14          0.654              1.790              1.855
 Vibration    15          0.656              1.782              1.814
 Vibration    16          0.661              1.767              1.749
 Vibration    17          0.664              1.759              1.716
 Vibration    18          0.669              1.743              1.652
 Vibration    19          0.689              1.684              1.448
 Vibration    20          0.711              1.621              1.274
 Vibration    21          0.716              1.607              1.240
 Vibration    22          0.734              1.557              1.128
 Vibration    23          0.736              1.550              1.113
 Vibration    24          0.742              1.534              1.081
 Vibration    25          0.787              1.416              0.876
 Vibration    26          0.789              1.411              0.868
 Vibration    27          0.821              1.331              0.756
 Vibration    28          0.832              1.306              0.724
 Vibration    29          0.858              1.245              0.653
 Vibration    30          0.876              1.204              0.608
 Vibration    31          0.898              1.156              0.560
 Vibration    32          0.903              1.145              0.549
 Vibration    33          0.918              1.114              0.520
 Vibration    34          0.965              1.018              0.439
 Vibration    35          0.972              1.005              0.428

                           ! Non-Optimized Parameters !
 Normal termination of Gaussian 16 at Wed Mar  2 06:08:11 2022.

 ------------------------------------------
 #p b3lyp/6-31G(d) geom=allcheck guess=read
 ------------------------------------------

 Structure from the checkpoint file:  "247.n.pdb.xyz.mst.wat.chk"
 -------------
 247.n.pdb.xyz
 -------------
 Charge =  0 Multiplicity = 1

 SCF Done:  E(RB3LYP) =  -1121.45714081     A.U. after   12 cycles
 Normal termination of Gaussian 16 at Wed Mar  2 06:12:20 2022.
 Gaussian 16:  ES64L-G16RevA.03 25-Dec-2016

 ----------------------------------------------------------------------
 #p b3lyp/6-31G(d) scrf=(iefpcm,read,solvent=water) geom=allcheck guess
 =read
 ----------------------------------------------------------------------

 Structure from the checkpoint file:  "247.n.pdb.xyz.mst.wat.chk"
 -------------
 247.n.pdb.xyz
 -------------
 Charge =  0 Multiplicity = 1

                         Standard orientation:
 ---------------------------------------------------------------------
 Center     Atomic      Atomic             Coordinates (Angstroms)
 Number     Number       Type             X           Y           Z
 ---------------------------------------------------------------------
      1          6           0        8.069864   -0.222605    0.493169
      2          7           0        6.782512    0.257857    0.003653
      3          6           0        6.672227    0.065055   -1.438825
      4          6           0        5.681104   -0.385996    0.715604
      5          6           0        4.347420    0.287781    0.478352
      6          6           0        3.196513   -0.467612    0.259415
      7          6           0        1.956717    0.165882    0.088626
      8          7           0        1.838453    1.507442    0.136208
      9          6           0        2.945751    2.229127    0.345610
     10          6           0        4.212360    1.678738    0.518458
     11          6           0        0.706292   -0.605940   -0.149094
     12          6           0        0.727220   -1.963785   -0.508609
     13          6           0       -0.467066   -2.644795   -0.730390
     14          6           0       -1.697187   -2.002006   -0.599575
     15          6           0       -1.730753   -0.650845   -0.223145
     16          7           0       -2.927314    0.075158   -0.096750
     17          6           0       -4.177475   -0.366684    0.175479
     18          6           0       -5.383249    0.378670    0.103072
     19          6           0       -6.462822   -0.472601    0.513659
     20          6           0       -5.906529   -1.675369    0.817170
     21          7           0       -4.526973   -1.607264    0.600493
     22          7           0       -5.473151    1.698717   -0.296808
     23          8           0       -6.595962    2.240124   -0.366281
     24          8           0       -4.416339    2.326893   -0.582256
     25          6           0       -0.529392    0.035369   -0.009084
     26          1           0        8.152792   -0.026878    1.566019
     27          1           0        8.874678    0.309665   -0.021455
     28          1           0        8.217675   -1.305125    0.328497
     29          1           0        7.478245    0.606645   -1.941304
     30          1           0        5.716547    0.458853   -1.792674
     31          1           0        6.736388   -0.998618   -1.731686
     32          1           0        5.910058   -0.334262    1.786782
     33          1           0        5.592803   -1.458647    0.464285
     34          1           0        3.271592   -1.548437    0.233771
     35          1           0        2.812452    3.308000    0.375864
     36          1           0        5.075419    2.313877    0.676842
     37          1           0        1.667687   -2.484701   -0.639201
     38          1           0       -0.444093   -3.687355   -1.029008
     39          1           0       -2.611647   -2.536166   -0.823153
     40          1           0       -2.900247    1.080864   -0.255757
     41          1           0       -7.503673   -0.198892    0.563962
     42          1           0       -6.348404   -2.595081    1.164132
     43          1           0       -3.877649   -2.338077    0.861189
     44          1           0       -0.542861    1.080517    0.274272
 ---------------------------------------------------------------------

 SCF Done:  E(RB3LYP) =  -1121.48048927     A.U. after   12 cycles

 The electronic state is 1-A.
 Alpha  occ. eigenvalues --  -19.16203 -19.16003 -14.55487 -14.39574 -14.38451
 Alpha  occ. eigenvalues --  -14.33437 -14.33156 -10.29233 -10.24723 -10.23726
 Alpha  occ. eigenvalues --  -10.22961 -10.22529 -10.22446 -10.21567 -10.21383
 Alpha  occ. eigenvalues --  -10.20857 -10.19987 -10.19980 -10.19930 -10.19848
 Alpha  occ. eigenvalues --  -10.19816 -10.19505 -10.19483 -10.19457 -10.19293
 Alpha  occ. eigenvalues --   -1.19707  -1.02325  -1.01484  -0.95326  -0.94771
 Alpha  occ. eigenvalues --   -0.92509  -0.86167  -0.83515  -0.81634  -0.78943
 Alpha  occ. eigenvalues --   -0.76857  -0.74668  -0.73825  -0.71262  -0.70333
 Alpha  occ. eigenvalues --   -0.69801  -0.65051  -0.63861  -0.61999  -0.61255
 Alpha  occ. eigenvalues --   -0.59874  -0.58681  -0.57699  -0.54948  -0.53227
 Alpha  occ. eigenvalues --   -0.51631  -0.51542  -0.50353  -0.50167  -0.49724
 Alpha  occ. eigenvalues --   -0.49362  -0.47396  -0.47253  -0.46307  -0.46062
 Alpha  occ. eigenvalues --   -0.45018  -0.44597  -0.43978  -0.43680  -0.43079
 Alpha  occ. eigenvalues --   -0.42412  -0.41220  -0.40285  -0.39678  -0.39257
 Alpha  occ. eigenvalues --   -0.38707  -0.37293  -0.37149  -0.36844  -0.36373
 Alpha  occ. eigenvalues --   -0.35847  -0.35073  -0.33740  -0.30397  -0.29728
 Alpha  occ. eigenvalues --   -0.28977  -0.27952  -0.27877  -0.27148  -0.26514
 Alpha  occ. eigenvalues --   -0.25731  -0.23677  -0.22143  -0.19828
 Alpha virt. eigenvalues --   -0.06940  -0.05010  -0.02340  -0.00414   0.02101
 Alpha virt. eigenvalues --    0.04479   0.08751   0.09008   0.09595   0.10572
 Alpha virt. eigenvalues --    0.11900   0.12254   0.12716   0.13102   0.14557

 Mulliken charges:
               1
     1  C   -0.303907
     2  N   -0.393211
     3  C   -0.311068
     4  C   -0.195906
     5  C    0.170226
     6  C   -0.232787
     7  C    0.252567
     8  N   -0.529999
     9  C    0.033101
    10  C   -0.184070
    11  C    0.098149
    12  C   -0.197497
    13  C   -0.164551
    14  C   -0.189192
    15  C    0.364625
    16  N   -0.780079
    17  C    0.617312
    18  C    0.239500
    19  C   -0.197767
    20  C    0.028706
    21  N   -0.652721
    22  N    0.305543
    23  O   -0.498862
    24  O   -0.517929
    25  C   -0.249159
    26  H    0.159581
    27  H    0.158812
    28  H    0.128827
    29  H    0.159493
    30  H    0.160392
    31  H    0.128374
    32  H    0.174964
    33  H    0.136727
    34  H    0.162319
    35  H    0.157567
    36  H    0.155542
    37  H    0.157478
    38  H    0.160457
    39  H    0.167202
    40  H    0.394174
    41  H    0.169123
    42  H    0.190427
    43  H    0.406641
    44  H    0.160876
 Sum of Mulliken charges =  -0.00000

 Dipole moment (field-independent basis, Debye):
    X=              7.6182    Y=            -10.6797    Z=              2.5670  Tot=             13.3672
 Quadrupole moment (field-independent basis, Debye-Ang):
   XX=           -149.7403   YY=           -140.8331   ZZ=           -145.0445
   XY=             39.4672   XZ=            -10.3744   YZ=              1.3139

 Normal termination of Gaussian 16 at Wed Mar  2 06:17:33 2022.
