 Gaussian 16, Revision A.03,

 ----------------------------------------------------------------------
 #p b3lyp/6-31G(d) opt=(MaxStep=10,MaxCycles=1000) freq scf=(MaxCycle=2
 000,NoVarAcc,NoIncFock) scrf=(iefpcm,read,solvent=water)
 ----------------------------------------------------------------------

 -------------
 248.n.pdb.xyz
 -------------
 Symbolic Z-matrix:
 Charge =  0 Multiplicity = 1

 SCF Done:  E(RB3LYP) =  -1202.63023241     A.U. after   13 cycles
 SCF Done:  E(RB3LYP) =  -1202.63426749     A.U. after   10 cycles
 SCF Done:  E(RB3LYP) =  -1202.63332168     A.U. after   11 cycles
 SCF Done:  E(RB3LYP) =  -1202.63594364     A.U. after   11 cycles
 SCF Done:  E(RB3LYP) =  -1202.63631225     A.U. after   10 cycles
 SCF Done:  E(RB3LYP) =  -1202.63657957     A.U. after   10 cycles
 SCF Done:  E(RB3LYP) =  -1202.63664771     A.U. after    9 cycles
 SCF Done:  E(RB3LYP) =  -1202.63670358     A.U. after    9 cycles
 SCF Done:  E(RB3LYP) =  -1202.63676761     A.U. after    9 cycles
 SCF Done:  E(RB3LYP) =  -1202.63682562     A.U. after    9 cycles
 SCF Done:  E(RB3LYP) =  -1202.64077557     A.U. after   10 cycles
 SCF Done:  E(RB3LYP) =  -1202.64077762     A.U. after    9 cycles
 SCF Done:  E(RB3LYP) =  -1202.64080302     A.U. after    9 cycles
 SCF Done:  E(RB3LYP) =  -1202.64080290     A.U. after    6 cycles
 SCF Done:  E(RB3LYP) =  -1202.64079516     A.U. after    8 cycles
 SCF Done:  E(RB3LYP) =  -1202.64079278     A.U. after    8 cycles
 SCF Done:  E(RB3LYP) =  -1202.64080266     A.U. after    9 cycles
 Optimization completed.
    -- Stationary point found.
 Normal termination of Gaussian 16 at Wed Mar  2 05:11:17 2022.

 --------------------------------------------------------------------
 #P Geom=AllCheck Guess=TCheck SCRF=Check GenChk RB3LYP/6-31G(d) Freq
 --------------------------------------------------------------------

 Structure from the checkpoint file:  "248.n.pdb.xyz.mst.wat.chk"
 -------------
 248.n.pdb.xyz
 -------------
 Charge =  0 Multiplicity = 1

 SCF Done:  E(RB3LYP) =  -1202.64080266     A.U. after    1 cycles

  Exact polarizability: 286.781  16.228 182.686 -15.792  27.410 199.580
 Approx polarizability: 287.963  23.087 204.903 -22.787  35.894 233.920

                      1                      2                      3
                      A                      A                      A
 Frequencies --     24.7743                30.1984                37.3683
 Red. masses --      4.5266                 5.3135                 3.6354
 Frc consts  --      0.0016                 0.0029                 0.0030
 IR Inten    --      4.6464                 2.6823                 5.7926

                      4                      5                      6
                      A                      A                      A
 Frequencies --     44.2877                58.9782                74.5008
 Red. masses --      3.2144                 4.2828                 3.6203
 Frc consts  --      0.0037                 0.0088                 0.0118
 IR Inten    --      0.7322                 5.4418                 2.1308

                      7                      8                      9
                      A                      A                      A
 Frequencies --     97.8708               115.8069               164.4029
 Red. masses --      6.0019                 3.3887                 2.9452
 Frc consts  --      0.0339                 0.0268                 0.0469
 IR Inten    --     10.6175                 3.0926                 1.1953

                     10                     11                     12
                      A                      A                      A
 Frequencies --    192.7851               203.5669               214.8974
 Red. masses --      3.4366                 2.5643                 1.1586
 Frc consts  --      0.0753                 0.0626                 0.0315
 IR Inten    --      4.8327                 5.4824                 0.4889

                     13                     14                     15
                      A                      A                      A
 Frequencies --    226.1758               239.5906               260.9027
 Red. masses --      1.2384                 2.2062                 1.7111
 Frc consts  --      0.0373                 0.0746                 0.0686
 IR Inten    --      1.7075                 0.4641                 1.3934

                     16                     17                     18
                      A                      A                      A
 Frequencies --    270.7414               286.2307               315.9663
 Red. masses --      3.2762                 3.6385                 4.1919
 Frc consts  --      0.1415                 0.1756                 0.2466
 IR Inten    --      2.2456                 4.6821                 2.1076

                     19                     20                     21
                      A                      A                      A
 Frequencies --    344.1776               362.8692               395.1292
 Red. masses --      4.0809                 3.2492                 3.3328
 Frc consts  --      0.2848                 0.2521                 0.3066
 IR Inten    --      1.3920                 9.6641                18.1177

                     22                     23                     24
                      A                      A                      A
 Frequencies --    424.5215               430.2880               458.5637
 Red. masses --      3.1116                 4.1607                 2.5619
 Frc consts  --      0.3304                 0.4539                 0.3174
 IR Inten    --      0.2903                25.0792                 8.1747

                     25                     26                     27
                      A                      A                      A
 Frequencies --    481.1038               486.2747               500.7759
 Red. masses --      3.6314                 3.6397                 4.1733
 Frc consts  --      0.4952                 0.5071                 0.6166
 IR Inten    --     34.0544                28.2681                24.6848

                     28                     29                     30
                      A                      A                      A
 Frequencies --    543.5826               565.9569               581.8509
 Red. masses --      3.2341                 1.8539                 1.5038
 Frc consts  --      0.5630                 0.3499                 0.3000
 IR Inten    --     34.2240                17.3751               252.6301

                     31                     32                     33
                      A                      A                      A
 Frequencies --    594.8081               639.0353               653.1852
 Red. masses --      2.1347                 3.7852                 6.3855
 Frc consts  --      0.4450                 0.9107                 1.6052
 IR Inten    --     31.6412                41.2252                10.9019

                     34                     35                     36
                      A                      A                      A
 Frequencies --    740.1252               744.0315               780.3258
 Red. masses --      4.1910                 5.4180                 2.4437
 Frc consts  --      1.3526                 1.7671                 0.8767
 IR Inten    --    112.3056                85.9687               124.0038

                     37                     38                     39
                      A                      A                      A
 Frequencies --    816.4127               848.6796               857.4256
 Red. masses --      1.8714                 1.3999                 1.6171
 Frc consts  --      0.7349                 0.5940                 0.7005
 IR Inten    --      4.1828                24.4816                65.5078

                     40                     41                     42
                      A                      A                      A
 Frequencies --    859.7752               869.0664               888.1566
 Red. masses --      1.9610                 2.6629                 3.3083
 Frc consts  --      0.8541                 1.1850                 1.5375
 IR Inten    --      3.4078                24.4114               114.6535

                     43                     44                     45
                      A                      A                      A
 Frequencies --    924.4466               934.7295               953.2962
 Red. masses --      2.4771                 1.2386                 1.4628
 Frc consts  --      1.2473                 0.6376                 0.7832
 IR Inten    --     81.7932                 1.5867                 1.4175

                     46                     47                     48
                      A                      A                      A
 Frequencies --    966.7036               970.2392               978.3680
 Red. masses --      1.9084                 1.3227                 1.3175
 Frc consts  --      1.0508                 0.7336                 0.7430
 IR Inten    --      2.6262                 2.7471                 2.0186

                     49                     50                     51
                      A                      A                      A
 Frequencies --    995.9359              1004.7924              1035.9130
 Red. masses --      1.3935                 1.3804                 2.7096
 Frc consts  --      0.8143                 0.8212                 1.7132
 IR Inten    --     81.7037                41.6594                18.3389

                     52                     53                     54
                      A                      A                      A
 Frequencies --   1057.4171              1101.8488              1109.1805
 Red. masses --      2.0875                 3.6073                 3.1384
 Frc consts  --      1.3752                 2.5804                 2.2749
 IR Inten    --     14.9971               122.7651               109.3392

                     55                     56                     57
                      A                      A                      A
 Frequencies --   1117.0442              1137.6822              1154.9390
 Red. masses --     11.4676                 1.4119                 2.1338
 Frc consts  --      8.4307                 1.0767                 1.6769
 IR Inten    --    376.0165                31.8402                12.6823

                     58                     59                     60
                      A                      A                      A
 Frequencies --   1171.2041              1198.7268              1200.0846
 Red. masses --      1.6686                 1.4298                 1.5294
 Frc consts  --      1.3486                 1.2105                 1.2978
 IR Inten    --     73.3273                17.6417                47.9749

                     61                     62                     63
                      A                      A                      A
 Frequencies --   1236.9481              1245.7184              1280.4920
 Red. masses --      2.1989                 3.8618                 1.8916
 Frc consts  --      1.9822                 3.5309                 1.8274
 IR Inten    --     31.6506               105.2481                48.2700

                     64                     65                     66
                      A                      A                      A
 Frequencies --   1282.8260              1296.7342              1329.1152
 Red. masses --      3.8292                 1.2627                 2.1113
 Frc consts  --      3.7127                 1.2510                 2.1975
 IR Inten    --    227.6231                28.2152               132.5584

                     67                     68                     69
                      A                      A                      A
 Frequencies --   1338.6637              1359.4201              1370.6968
 Red. masses --      1.2701                 1.6258                 1.3943
 Frc consts  --      1.3410                 1.7703                 1.5434
 IR Inten    --     50.1831                11.3924                34.3616

                     70                     71                     72
                      A                      A                      A
 Frequencies --   1377.3712              1380.1732              1397.7243
 Red. masses --      1.1972                 1.3501                 1.2713
 Frc consts  --      1.3382                 1.5153                 1.4633
 IR Inten    --     14.3986                38.3320                 5.7154

                     73                     74                     75
                      A                      A                      A
 Frequencies --   1413.8677              1424.0616              1435.7793
 Red. masses --      1.2941                 2.0218                 1.2684
 Frc consts  --      1.5242                 2.4158                 1.5405
 IR Inten    --     13.2082                43.8947                 4.4509

                     76                     77                     78
                      A                      A                      A
 Frequencies --   1454.8102              1470.0247              1472.1432
 Red. masses --      1.5702                 1.0517                 1.0652
 Frc consts  --      1.9580                 1.3391                 1.3602
 IR Inten    --    163.1338                 9.1297                 4.9117

                     79                     80                     81
                      A                      A                      A
 Frequencies --   1487.9118              1502.6514              1503.3524
 Red. masses --      1.1640                 1.7322                 1.0483
 Frc consts  --      1.5184                 2.3044                 1.3959
 IR Inten    --     60.8642                50.1330                 1.3966

                     82                     83                     84
                      A                      A                      A
 Frequencies --   1505.9104              1519.9056              1523.7508
 Red. masses --      1.0626                 1.0800                 1.0909
 Frc consts  --      1.4198                 1.4700                 1.4923
 IR Inten    --      1.5607                 3.9318                29.4297

                     85                     86                     87
                      A                      A                      A
 Frequencies --   1526.2712              1557.4069              1640.6254
 Red. masses --      1.0669                 2.4845                 5.7461
 Frc consts  --      1.4643                 3.5505                 9.1126
 IR Inten    --      2.9051                75.3193                 7.1353

                     88                     89                     90
                      A                      A                      A
 Frequencies --   1668.6803              2981.0087              3025.8977
 Red. masses --      5.9334                 1.0827                 1.0644
 Frc consts  --      9.7342                 5.6688                 5.7421
 IR Inten    --     15.5261               115.2506                73.2648

                     91                     92                     93
                      A                      A                      A
 Frequencies --   3044.3757              3053.1217              3060.1238
 Red. masses --      1.0837                 1.0357                 1.0368
 Frc consts  --      5.9178                 5.6880                 5.7204
 IR Inten    --     37.9272                41.2200                38.4855

                     94                     95                     96
                      A                      A                      A
 Frequencies --   3090.8621              3102.0470              3118.6062
 Red. masses --      1.0980                 1.0295                 1.1025
 Frc consts  --      6.1805                 5.8366                 6.3178
 IR Inten    --     67.5365                 0.1110                16.9049

                     97                     98                     99
                      A                      A                      A
 Frequencies --   3125.2108              3128.9997              3138.5405
 Red. masses --      1.1005                 1.1022                 1.1031
 Frc consts  --      6.3328                 6.3578                 6.4021
 IR Inten    --    110.9825                57.8256                58.0292

                    100                    101                    102
                      A                      A                      A
 Frequencies --   3202.5132              3203.2191              3208.9241
 Red. masses --      1.0897                 1.1072                 1.0891
 Frc consts  --      6.5847                 6.6937                 6.6074
 IR Inten    --     29.8928                 0.2079                11.2619

                    103                    104                    105
                      A                      A                      A
 Frequencies --   3213.3446              3230.5230              3250.2982
 Red. masses --      1.1085                 1.0927                 1.0925
 Frc consts  --      6.7437                 6.7192                 6.8003
 IR Inten    --      0.2369                14.3001                 3.3536

                    106                    107                    108
                      A                      A                      A
 Frequencies --   3470.3277              3500.0125              3519.2836
 Red. masses --      1.0741                 1.0649                 1.0760
 Frc consts  --      7.6214                 7.6861                 7.8522
 IR Inten    --      5.2101               352.6934               113.5771

 - Thermochemistry -
 -------------------
 Temperature   298.150 Kelvin.  Pressure   1.00000 Atm.
 Atom     1 has atomic number  6 and mass  12.00000

 Molecular mass:   272.11946 amu.
 Principal axes and moments of inertia in atomic units:
                           1         2         3
     Eigenvalues --  1397.77070********************
           X            0.99993  -0.01177   0.00139
           Y            0.01173   0.99959   0.02615
           Z           -0.00170  -0.02613   0.99966
 This molecule is an asymmetric top.
 Rotational symmetry number  1.
 Warning -- assumption of classical behavior for rotation
           may cause significant error
 Rotational temperatures (Kelvin)      0.06197     0.00546     0.00534
 Rotational constants (GHZ):           1.29116     0.11367     0.11132
 Zero-point vibrational energy     839826.3 (Joules/Mol)
                                  200.72331 (Kcal/Mol)
 Warning -- explicit consideration of  31 degrees of freedom as
           vibrations may cause significant error
 Vibrational temperatures:     35.64    43.45    53.76    63.72    84.86
          (Kelvin)            107.19   140.81   166.62   236.54   277.37
                              292.89   309.19   325.42   344.72   375.38
                              389.54   411.82   454.61   495.19   522.09
                              568.50   610.79   619.09   659.77   692.20
                              699.64   720.50   782.09   814.29   837.15
                              855.80   919.43   939.79  1064.88  1070.50
                             1122.71  1174.64  1221.06  1233.64  1237.02
                             1250.39  1277.86  1330.07  1344.87  1371.58
                             1390.87  1395.96  1407.65  1432.93  1445.67
                             1490.45  1521.39  1585.31  1595.86  1607.18
                             1636.87  1661.70  1685.10  1724.70  1726.65
                             1779.69  1792.31  1842.34  1845.70  1865.71
                             1912.30  1926.04  1955.90  1972.13  1981.73
                             1985.76  2011.01  2034.24  2048.91  2065.77
                             2093.15  2115.04  2118.09  2140.77  2161.98
                             2162.99  2166.67  2186.81  2192.34  2195.96
                             2240.76  2360.49  2400.86  4289.01  4353.59
                             4380.18  4392.76  4402.84  4447.06  4463.15
                             4486.98  4496.48  4501.93  4515.66  4607.70
                             4608.72  4616.93  4623.29  4648.00  4676.45
                             4993.03  5035.74  5063.46

 Zero-point correction=                           0.319873 (Hartree/Particle)
 Thermal correction to Energy=                    0.339256
 Thermal correction to Enthalpy=                  0.340200
 Thermal correction to Gibbs Free Energy=         0.270130
 Sum of electronic and zero-point Energies=          -1202.320930
 Sum of electronic and thermal Energies=             -1202.301547
 Sum of electronic and thermal Enthalpies=           -1202.300603
 Sum of electronic and thermal Free Energies=        -1202.370672

                     E (Thermal)             CV                S
                      KCal/Mol        Cal/Mol-Kelvin    Cal/Mol-Kelvin
 Total                  212.886             72.699            147.473
 Electronic               0.000              0.000              0.000
 Translational            0.889              2.981             42.702
 Rotational               0.889              2.981             34.241
 Vibrational            211.109             66.737             70.530
 Vibration     1          0.593              1.985              6.209
 Vibration     2          0.594              1.984              5.816
 Vibration     3          0.594              1.982              5.394
 Vibration     4          0.595              1.980              5.057
 Vibration     5          0.596              1.974              4.491
 Vibration     6          0.599              1.966              4.031
 Vibration     7          0.603              1.951              3.496
 Vibration     8          0.608              1.936              3.169
 Vibration     9          0.623              1.886              2.499
 Vibration    10          0.635              1.850              2.201
 Vibration    11          0.639              1.835              2.101
 Vibration    12          0.645              1.818              2.002
 Vibration    13          0.650              1.801              1.909
 Vibration    14          0.657              1.780              1.806
 Vibration    15          0.669              1.744              1.656
 Vibration    16          0.674              1.727              1.591
 Vibration    17          0.684              1.699              1.496
 Vibration    18          0.703              1.643              1.331
 Vibration    19          0.723              1.587              1.193
 Vibration    20          0.737              1.549              1.110
 Vibration    21          0.762              1.481              0.981
 Vibration    22          0.787              1.417              0.877
 Vibration    23          0.791              1.404              0.858
 Vibration    24          0.817              1.342              0.770
 Vibration    25          0.837              1.292              0.707
 Vibration    26          0.842              1.280              0.693
 Vibration    27          0.856              1.248              0.656
 Vibration    28          0.899              1.154              0.558
 Vibration    29          0.922              1.105              0.512
 Vibration    30          0.939              1.071              0.482
 Vibration    31          0.953              1.043              0.459

                           ! Non-Optimized Parameters !
 Normal termination of Gaussian 16 at Wed Mar  2 05:44:35 2022.

 ------------------------------------------
 #p b3lyp/6-31G(d) geom=allcheck guess=read
 ------------------------------------------

 Structure from the checkpoint file:  "248.n.pdb.xyz.mst.wat.chk"
 -------------
 248.n.pdb.xyz
 -------------
 Charge =  0 Multiplicity = 1

 SCF Done:  E(RB3LYP) =  -1202.61160898     A.U. after   11 cycles
 Normal termination of Gaussian 16 at Wed Mar  2 05:46:50 2022.
 Gaussian 16:  ES64L-G16RevA.03 25-Dec-2016

 ----------------------------------------------------------------------
 #p b3lyp/6-31G(d) scrf=(iefpcm,read,solvent=water) geom=allcheck guess
 =read
 ----------------------------------------------------------------------

 Structure from the checkpoint file:  "248.n.pdb.xyz.mst.wat.chk"
 -------------
 248.n.pdb.xyz
 -------------
 Charge =  0 Multiplicity = 1

                         Standard orientation:
 ---------------------------------------------------------------------
 Center     Atomic      Atomic             Coordinates (Angstroms)
 Number     Number       Type             X           Y           Z
 ---------------------------------------------------------------------
      1          6           0        5.663212   -1.883169    0.412589
      2          6           0        5.495089   -0.360804    0.517222
      3          6           0        6.810464    0.367573    0.238736
      4          7           0        4.450995    0.175417   -0.374729
      5          6           0        3.095028   -0.296305   -0.093590
      6          6           0        2.094515    0.648126   -0.790439
      7          8           0        2.455469    1.989396   -0.486122
      8          6           0        0.672402    0.376267   -0.358202
      9          6           0       -0.129192   -0.520084   -1.072696
     10          6           0       -1.420618   -0.829144   -0.651055
     11          6           0       -1.945967   -0.207809    0.488016
     12          7           0       -3.257540   -0.535734    0.955359
     13         16           0       -4.620772   -0.273135   -0.000781
     14          6           0       -4.712451    1.491787   -0.320365
     15          8           0       -4.407998   -0.960292   -1.281888
     16          8           0       -5.759027   -0.659653    0.844511
     17          6           0       -1.158482    0.703275    1.203575
     18          6           0        0.142059    0.978217    0.788062
     19          1           0        4.718957   -2.400559    0.605827
     20          1           0        6.003142   -2.162780   -0.590292
     21          1           0        6.402298   -2.247668    1.134140
     22          1           0        5.170440   -0.118234    1.537482
     23          1           0        7.593268    0.033394    0.926165
     24          1           0        6.688505    1.448827    0.350918
     25          1           0        7.155255    0.167901   -0.782671
     26          1           0        4.692535   -0.055299   -1.339962
     27          1           0        2.902487   -1.335005   -0.396054
     28          1           0        2.939290   -0.232702    0.989101
     29          1           0        2.165535    0.475109   -1.876677
     30          1           0        3.433687    1.935895   -0.397175
     31          1           0        0.265260   -0.992224   -1.967487
     32          1           0       -2.029207   -1.535077   -1.201058
     33          1           0       -3.448563   -0.209172    1.902950
     34          1           0       -4.835751    2.008919    0.630694
     35          1           0       -5.574908    1.661277   -0.966794
     36          1           0       -3.795656    1.805744   -0.818545
     37          1           0       -1.561338    1.194295    2.083929
     38          1           0        0.749026    1.686557    1.340464
 ---------------------------------------------------------------------

 SCF Done:  E(RB3LYP) =  -1202.63799481     A.U. after   11 cycles

 The electronic state is 1-A.
 Alpha  occ. eigenvalues --  -89.12441 -19.15484 -19.15419 -19.13421 -14.38015
 Alpha  occ. eigenvalues --  -14.32429 -10.24123 -10.23621 -10.22432 -10.21333
 Alpha  occ. eigenvalues --  -10.20745 -10.19832 -10.19709 -10.19543 -10.19482
 Alpha  occ. eigenvalues --  -10.19338 -10.17060 -10.16953  -8.15008  -6.11501
 Alpha  occ. eigenvalues --   -6.11439  -6.11284  -1.12180  -1.01374  -1.01120
 Alpha  occ. eigenvalues --   -0.94523  -0.90542  -0.85563  -0.78366  -0.77215
 Alpha  occ. eigenvalues --   -0.75508  -0.75302  -0.69881  -0.68231  -0.64623
 Alpha  occ. eigenvalues --   -0.62492  -0.61067  -0.58469  -0.57802  -0.53762
 Alpha  occ. eigenvalues --   -0.53535  -0.50112  -0.49426  -0.48663  -0.47482
 Alpha  occ. eigenvalues --   -0.47019  -0.46242  -0.45266  -0.44553  -0.43726
 Alpha  occ. eigenvalues --   -0.43410  -0.43238  -0.42540  -0.42097  -0.40155
 Alpha  occ. eigenvalues --   -0.38555  -0.38384  -0.37997  -0.36856  -0.35628
 Alpha  occ. eigenvalues --   -0.35279  -0.34798  -0.34260  -0.33200  -0.32914
 Alpha  occ. eigenvalues --   -0.32646  -0.31879  -0.31446  -0.31016  -0.26845
 Alpha  occ. eigenvalues --   -0.25885  -0.23828  -0.22755
 Alpha virt. eigenvalues --   -0.01435  -0.00976   0.06638   0.07342   0.08232
 Alpha virt. eigenvalues --    0.08323   0.09933   0.10949   0.11057   0.11704
 Alpha virt. eigenvalues --    0.12495   0.12977   0.13435   0.14356   0.14702

 Mulliken charges:
               1
     1  C   -0.459484
     2  C    0.049201
     3  C   -0.452492
     4  N   -0.601979
     5  C   -0.143653
     6  C    0.072594
     7  O   -0.693677
     8  C    0.144512
     9  C   -0.210869
    10  C   -0.154318
    11  C    0.251660
    12  N   -0.768187
    13  S    1.159381
    14  C   -0.629289
    15  O   -0.569281
    16  O   -0.569676
    17  C   -0.182789
    18  C   -0.196289
    19  H    0.154044
    20  H    0.145274
    21  H    0.149494
    22  H    0.140689
    23  H    0.150919
    24  H    0.149318
    25  H    0.145876
    26  H    0.333893
    27  H    0.142829
    28  H    0.152726
    29  H    0.128997
    30  H    0.417099
    31  H    0.152696
    32  H    0.168253
    33  H    0.415591
    34  H    0.227212
    35  H    0.238561
    36  H    0.226987
    37  H    0.161612
    38  H    0.152564
 Sum of Mulliken charges =  -0.00000

 Dipole moment (field-independent basis, Debye):
    X=              6.1179    Y=              2.4247    Z=              1.5346  Tot=              6.7574
 Quadrupole moment (field-independent basis, Debye-Ang):
   XX=           -122.8734   YY=           -120.2295   ZZ=           -109.2305
   XY=            -32.1302   XZ=             -6.8215   YZ=              3.6502

 Normal termination of Gaussian 16 at Wed Mar  2 05:49:47 2022.
