 Gaussian 16, Revision A.03,

 ----------------------------------------------------------------------
 #p b3lyp/6-31G(d) opt=(MaxStep=10,MaxCycles=1000) freq scf=(MaxCycle=2
 000,NoVarAcc,NoIncFock) scrf=(iefpcm,read,solvent=water)
 ----------------------------------------------------------------------

 -------------
 249.n.pdb.xyz
 -------------
 Symbolic Z-matrix:
 Charge =  0 Multiplicity = 1

 SCF Done:  E(RB3LYP) =  -641.080128308     A.U. after   13 cycles
 SCF Done:  E(RB3LYP) =  -641.083836090     A.U. after   11 cycles
 SCF Done:  E(RB3LYP) =  -641.084859492     A.U. after   10 cycles
 SCF Done:  E(RB3LYP) =  -641.084910217     A.U. after    9 cycles
 SCF Done:  E(RB3LYP) =  -641.084919597     A.U. after    8 cycles
 SCF Done:  E(RB3LYP) =  -641.084919424     A.U. after    7 cycles
 Optimization completed.
    -- Stationary point found.
 Normal termination of Gaussian 16 at Wed Mar  2 04:33:49 2022.

 --------------------------------------------------------------------
 #P Geom=AllCheck Guess=TCheck SCRF=Check GenChk RB3LYP/6-31G(d) Freq
 --------------------------------------------------------------------

 Structure from the checkpoint file:  "249.n.pdb.xyz.mst.wat.chk"
 -------------
 249.n.pdb.xyz
 -------------
 Charge =  0 Multiplicity = 1

 SCF Done:  E(RB3LYP) =  -641.084919424     A.U. after    1 cycles

  Exact polarizability: 175.612  -0.555 169.149  -0.001  -0.003  64.892
 Approx polarizability: 196.876  -7.071 203.970  -0.002  -0.005  75.098

                      1                      2                      3
                      A                      A                      A
 Frequencies --     75.7325                91.4174               106.4147
 Red. masses --      1.0403                 2.9676                 1.8477
 Frc consts  --      0.0035                 0.0146                 0.0123
 IR Inten    --      0.0469                 2.4411                 1.6836

                      4                      5                      6
                      A                      A                      A
 Frequencies --    121.1848               161.5581               203.7502
 Red. masses --      2.4142                 3.6367                 3.5723
 Frc consts  --      0.0209                 0.0559                 0.0874
 IR Inten    --      2.0325                 7.9096                17.3390

                      7                      8                      9
                      A                      A                      A
 Frequencies --    209.7078               237.6687               308.1926
 Red. masses --      6.5178                 4.6729                 3.0846
 Frc consts  --      0.1689                 0.1555                 0.1726
 IR Inten    --      4.0497                 3.6936                 1.1654

                     10                     11                     12
                      A                      A                      A
 Frequencies --    371.9720               375.1828               414.8372
 Red. masses --      7.2249                 7.1885                 7.0518
 Frc consts  --      0.5890                 0.5962                 0.7150
 IR Inten    --     25.7847                 0.2817                16.4265

                     13                     14                     15
                      A                      A                      A
 Frequencies --    447.0410               510.1406               608.7751
 Red. masses --      7.6919                 6.0024                 1.3534
 Frc consts  --      0.9057                 0.9204                 0.2955
 IR Inten    --     40.0458                27.5072                63.6247

                     16                     17                     18
                      A                      A                      A
 Frequencies --    612.3253               625.4207               684.7920
 Red. masses --      8.8669                 2.4682                 5.8455
 Frc consts  --      1.9588                 0.5688                 1.6151
 IR Inten    --      9.1049               100.9878                16.2578

                     19                     20                     21
                      A                      A                      A
 Frequencies --    706.3309               735.6522               739.7511
 Red. masses --      7.0581                 4.9153                11.7596
 Frc consts  --      2.0747                 1.5673                 3.7915
 IR Inten    --     25.7498                25.5275                52.1401

                     22                     23                     24
                      A                      A                      A
 Frequencies --    758.4422               787.8566               863.0862
 Red. masses --     11.7450                 6.3600                 1.4208
 Frc consts  --      3.9806                 2.3259                 0.6236
 IR Inten    --      6.0952                 7.3905                11.7875

                     25                     26                     27
                      A                      A                      A
 Frequencies --    950.4779              1053.6368              1093.6604
 Red. masses --      3.3901                 3.2799                 1.7470
 Frc consts  --      1.8045                 2.1453                 1.2312
 IR Inten    --      1.2941                 4.1181                23.2251

                     28                     29                     30
                      A                      A                      A
 Frequencies --   1153.9182              1165.2312              1169.2595
 Red. masses --      3.3584                 1.2822                 1.3053
 Frc consts  --      2.6347                 1.0257                 1.0514
 IR Inten    --    100.6495                 0.4195                 0.0369

                     31                     32                     33
                      A                      A                      A
 Frequencies --   1201.9783              1225.7704              1261.2951
 Red. masses --      3.4066                 2.4047                 2.3239
 Frc consts  --      2.8998                 2.1287                 2.1782
 IR Inten    --     52.5174                68.6809               161.2910

                     34                     35                     36
                      A                      A                      A
 Frequencies --   1329.4234              1356.2161              1396.1459
 Red. masses --      7.2279                 6.0562                 3.6245
 Frc consts  --      7.5264                 6.5631                 4.1625
 IR Inten    --     60.7200                53.2308               119.7226

                     37                     38                     39
                      A                      A                      A
 Frequencies --   1416.9718              1426.5943              1461.7939
 Red. masses --      1.8648                 2.7268                 1.5392
 Frc consts  --      2.2060                 3.2697                 1.9379
 IR Inten    --     40.9883                47.9754                20.8587

                     40                     41                     42
                      A                      A                      A
 Frequencies --   1469.7969              1501.9377              1505.2106
 Red. masses --      1.6358                 1.5382                 1.0405
 Frc consts  --      2.0821                 2.0444                 1.3890
 IR Inten    --     83.1101               206.2795                15.2098

                     43                     44                     45
                      A                      A                      A
 Frequencies --   1510.0707              1521.6348              1545.0360
 Red. masses --      1.0416                 1.1088                 1.5431
 Frc consts  --      1.3994                 1.5126                 2.1703
 IR Inten    --     13.1329                89.1677                83.2036

                     46                     47                     48
                      A                      A                      A
 Frequencies --   1589.0221              1626.3097              1732.8134
 Red. masses --      5.1173                 9.6350                 7.4351
 Frc consts  --      7.6129                15.0144                13.1535
 IR Inten    --    243.5253               211.2033              1600.2381

                     49                     50                     51
                      A                      A                      A
 Frequencies --   1757.3311              3093.5472              3106.3361
 Red. masses --     11.9233                 1.0350                 1.0313
 Frc consts  --     21.6948                 5.8357                 5.8632
 IR Inten    --    922.6176                59.9420                38.8013

                     52                     53                     54
                      A                      A                      A
 Frequencies --   3158.9043              3183.1872              3202.0314
 Red. masses --      1.1070                 1.1070                 1.1065
 Frc consts  --      6.5081                 6.6089                 6.6842
 IR Inten    --     24.3973                13.9686                10.7037

                     55                     56                     57
                      A                      A                      A
 Frequencies --   3223.6144              3295.1386              3573.5107
 Red. masses --      1.1012                 1.0977                 1.0783
 Frc consts  --      6.7421                 7.0222                 8.1129
 IR Inten    --      1.1473                 1.3791               191.7349

 - Thermochemistry -
 -------------------
 Temperature   298.150 Kelvin.  Pressure   1.00000 Atm.
 Atom     1 has atomic number  6 and mass  12.00000

 Molecular mass:   180.06473 amu.
 Principal axes and moments of inertia in atomic units:
                           1         2         3
     Eigenvalues --  1337.250852356.322663670.79096
           X            0.99951  -0.03144   0.00001
           Y            0.03144   0.99951  -0.00000
           Z           -0.00001   0.00000   1.00000
 This molecule is an asymmetric top.
 Rotational symmetry number  1.
 Warning -- assumption of classical behavior for rotation
           may cause significant error
 Rotational temperatures (Kelvin)      0.06477     0.03676     0.02360
 Rotational constants (GHZ):           1.34959     0.76591     0.49165
 Zero-point vibrational energy     424764.3 (Joules/Mol)
                                  101.52109 (Kcal/Mol)
 Warning -- explicit consideration of  16 degrees of freedom as
           vibrations may cause significant error
 Vibrational temperatures:    108.96   131.53   153.11   174.36   232.45
          (Kelvin)            293.15   301.72   341.95   443.42   535.18
                              539.80   596.86   643.19   733.98   875.89
                              881.00   899.84   985.26  1016.25  1058.44
                             1064.34  1091.23  1133.55  1241.79  1367.53
                             1515.95  1573.53  1660.23  1676.51  1682.30
                             1729.38  1763.61  1814.72  1912.74  1951.29
                             2008.74  2038.71  2052.55  2103.20  2114.71
                             2160.95  2165.66  2172.65  2189.29  2222.96
                             2286.25  2339.90  2493.13  2528.41  4450.92
                             4469.32  4544.96  4579.90  4607.01  4638.06
                             4740.97  5141.48

 Zero-point correction=                           0.161784 (Hartree/Particle)
 Thermal correction to Energy=                    0.173059
 Thermal correction to Enthalpy=                  0.174003
 Thermal correction to Gibbs Free Energy=         0.124378
 Sum of electronic and zero-point Energies=           -640.923135
 Sum of electronic and thermal Energies=              -640.911860
 Sum of electronic and thermal Enthalpies=            -640.910916
 Sum of electronic and thermal Free Energies=         -640.960541

                     E (Thermal)             CV                S
                      KCal/Mol        Cal/Mol-Kelvin    Cal/Mol-Kelvin
 Total                  108.596             41.513            104.444
 Electronic               0.000              0.000              0.000
 Translational            0.889              2.981             41.471
 Rotational               0.889              2.981             30.826
 Vibrational            106.819             35.551             32.147
 Vibration     1          0.599              1.965              3.999
 Vibration     2          0.602              1.955              3.630
 Vibration     3          0.605              1.944              3.333
 Vibration     4          0.609              1.932              3.081
 Vibration     5          0.622              1.890              2.531
 Vibration     6          0.639              1.835              2.099
 Vibration     7          0.642              1.826              2.046
 Vibration     8          0.656              1.783              1.820
 Vibration     9          0.698              1.658              1.372
 Vibration    10          0.744              1.530              1.072
 Vibration    11          0.746              1.523              1.059
 Vibration    12          0.778              1.438              0.910
 Vibration    13          0.806              1.367              0.805
 Vibration    14          0.865              1.228              0.633
 Vibration    15          0.968              1.013              0.435
 Vibration    16          0.972              1.006              0.429

 Optimization completed.
    -- Stationary point found.
 Normal termination of Gaussian 16 at Wed Mar  2 04:46:25 2022.

 ------------------------------------------
 #p b3lyp/6-31G(d) geom=allcheck guess=read
 ------------------------------------------

 Structure from the checkpoint file:  "249.n.pdb.xyz.mst.wat.chk"
 -------------
 249.n.pdb.xyz
 -------------
 Charge =  0 Multiplicity = 1

 SCF Done:  E(RB3LYP) =  -641.065620949     A.U. after   12 cycles
 Normal termination of Gaussian 16 at Wed Mar  2 04:47:48 2022.
 Gaussian 16:  ES64L-G16RevA.03 25-Dec-2016

 ----------------------------------------------------------------------
 #p b3lyp/6-31G(d) scrf=(iefpcm,read,solvent=water) geom=allcheck guess
 =read
 ----------------------------------------------------------------------

 Structure from the checkpoint file:  "249.n.pdb.xyz.mst.wat.chk"
 -------------
 249.n.pdb.xyz
 -------------
 Charge =  0 Multiplicity = 1

                         Standard orientation:
 ---------------------------------------------------------------------
 Center     Atomic      Atomic             Coordinates (Angstroms)
 Number     Number       Type             X           Y           Z
 ---------------------------------------------------------------------
      1          6           0       -3.346480    0.226949   -0.000344
      2          7           0       -2.048104   -0.436598   -0.000052
      3          6           0       -1.815882   -1.766643    0.000170
      4          7           0       -0.518874   -2.084708    0.000132
      5          6           0        0.106348   -0.878991    0.000050
      6          6           0       -0.801361    0.167173    0.000122
      7          6           0       -0.395410    1.538476    0.000360
      8          8           0       -1.105783    2.544889    0.000119
      9          7           0        1.004638    1.630399    0.000025
     10          6           0        1.962900    0.619759   -0.000224
     11          8           0        3.163724    0.881094   -0.000119
     12          7           0        1.468708   -0.675942   -0.000016
     13          6           0        2.388217   -1.811683   -0.000039
     14          1           0       -3.448284    0.849832    0.888731
     15          1           0       -4.120200   -0.539249   -0.000158
     16          1           0       -3.448219    0.849387   -0.889808
     17          1           0       -2.625503   -2.481581    0.000208
     18          1           0        1.389211    2.570963   -0.000025
     19          1           0        3.398588   -1.412458    0.000169
     20          1           0        2.228298   -2.423413   -0.889963
     21          1           0        2.228008   -2.423626    0.889650
 ---------------------------------------------------------------------

 SCF Done:  E(RB3LYP) =  -641.084110280     A.U. after   11 cycles

 The electronic state is 1-A.
 Alpha  occ. eigenvalues --  -19.12976 -19.12768 -14.41490 -14.39887 -14.38331
 Alpha  occ. eigenvalues --  -14.33837 -10.33623 -10.31229 -10.26730 -10.26433
 Alpha  occ. eigenvalues --  -10.23115 -10.22728 -10.22072  -1.07345  -1.04599
 Alpha  occ. eigenvalues --   -1.03687  -0.97405  -0.92832  -0.90053  -0.78807
 Alpha  occ. eigenvalues --   -0.73238  -0.72624  -0.67470  -0.65425  -0.60040
 Alpha  occ. eigenvalues --   -0.57594  -0.55262  -0.50309  -0.50058  -0.49241
 Alpha  occ. eigenvalues --   -0.47154  -0.45919  -0.45031  -0.43933  -0.43355
 Alpha  occ. eigenvalues --   -0.42450  -0.41574  -0.41047  -0.39927  -0.39079
 Alpha  occ. eigenvalues --   -0.32197  -0.30862  -0.29487  -0.28408  -0.27985
 Alpha  occ. eigenvalues --   -0.26715  -0.22218
 Alpha virt. eigenvalues --   -0.03229   0.01931   0.03742   0.10617   0.11046
 Alpha virt. eigenvalues --    0.12436   0.13022   0.13067   0.14069   0.15159
 Alpha virt. eigenvalues --    0.16859   0.17382   0.17433   0.19184   0.20524

 Mulliken charges:
               1
     1  C   -0.318201
     2  N   -0.477542
     3  C    0.229776
     4  N   -0.567612
     5  C    0.487930
     6  C    0.232675
     7  C    0.637049
     8  O   -0.585969
     9  N   -0.713523
    10  C    0.786809
    11  O   -0.582243
    12  N   -0.572792
    13  C   -0.324274
    14  H    0.199178
    15  H    0.195927
    16  H    0.199198
    17  H    0.205730
    18  H    0.396337
    19  H    0.196902
    20  H    0.187307
    21  H    0.187339
 Sum of Mulliken charges =  -0.00000

 Dipole moment (field-independent basis, Debye):
    X=             -4.7558    Y=             -2.8744    Z=              0.0000  Tot=              5.5570
 Quadrupole moment (field-independent basis, Debye-Ang):
   XX=            -68.2693   YY=            -80.7869   ZZ=            -72.8905
   XY=              3.1615   XZ=              0.0017   YZ=             -0.0007

 Normal termination of Gaussian 16 at Wed Mar  2 04:49:14 2022.
