 Gaussian 16, Revision A.03,

 ----------------------------------------------------------------------
 #p b3lyp/6-31G(d) opt=(MaxStep=10,MaxCycles=1000) freq scf=(MaxCycle=2
 000,NoVarAcc,NoIncFock) scrf=(iefpcm,read,solvent=water)
 ----------------------------------------------------------------------

 ------------
 25.n.pdb.xyz
 ------------
 Symbolic Z-matrix:
 Charge =  0 Multiplicity = 1

 SCF Done:  E(RB3LYP) =  -1090.70654933     A.U. after   13 cycles
 SCF Done:  E(RB3LYP) =  -1090.71069052     A.U. after   10 cycles
 SCF Done:  E(RB3LYP) =  -1090.71082810     A.U. after   11 cycles
 SCF Done:  E(RB3LYP) =  -1090.71279834     A.U. after   10 cycles
 SCF Done:  E(RB3LYP) =  -1090.71277769     A.U. after   10 cycles
 SCF Done:  E(RB3LYP) =  -1090.71291222     A.U. after    9 cycles
 SCF Done:  E(RB3LYP) =  -1090.71299910     A.U. after    9 cycles
 SCF Done:  E(RB3LYP) =  -1090.71303018     A.U. after    9 cycles
 SCF Done:  E(RB3LYP) =  -1090.71298626     A.U. after    9 cycles
 SCF Done:  E(RB3LYP) =  -1090.71303770     A.U. after    8 cycles
 SCF Done:  E(RB3LYP) =  -1090.71301728     A.U. after    7 cycles
 SCF Done:  E(RB3LYP) =  -1090.71303702     A.U. after    9 cycles
 SCF Done:  E(RB3LYP) =  -1090.71301446     A.U. after    9 cycles
 SCF Done:  E(RB3LYP) =  -1090.71303718     A.U. after    9 cycles
 SCF Done:  E(RB3LYP) =  -1090.71301151     A.U. after    9 cycles
 SCF Done:  E(RB3LYP) =  -1090.71303759     A.U. after    9 cycles
 SCF Done:  E(RB3LYP) =  -1090.71300897     A.U. after    9 cycles
 Optimization completed.
    -- Stationary point found.
 Normal termination of Gaussian 16 at Tue Mar  1 23:01:10 2022.

 --------------------------------------------------------------------
 #P Geom=AllCheck Guess=TCheck SCRF=Check GenChk RB3LYP/6-31G(d) Freq
 --------------------------------------------------------------------

 Structure from the checkpoint file:  "25.n.pdb.xyz.mst.wat.chk"
 ------------
 25.n.pdb.xyz
 ------------
 Charge =  0 Multiplicity = 1

 SCF Done:  E(RB3LYP) =  -1090.71300897     A.U. after    1 cycles

  Exact polarizability: 433.802  15.146 256.116  21.424  -2.610 261.406
 Approx polarizability: 438.535  18.104 284.096  31.489  -2.031 308.066

                      1                      2                      3
                      A                      A                      A
 Frequencies --     15.5361                27.3795                28.8619
 Red. masses --      4.9041                 4.4441                 4.5301
 Frc consts  --      0.0007                 0.0020                 0.0022
 IR Inten    --      0.2491                 2.8598                 1.9301

                      4                      5                      6
                      A                      A                      A
 Frequencies --     42.8619                59.5896                74.2766
 Red. masses --      3.9046                 7.4684                 5.3735
 Frc consts  --      0.0042                 0.0156                 0.0175
 IR Inten    --      0.9705                 4.6719                 2.2087

                      7                      8                      9
                      A                      A                      A
 Frequencies --     82.7857               114.0515               127.8506
 Red. masses --      3.5605                 3.5643                 3.8952
 Frc consts  --      0.0144                 0.0273                 0.0375
 IR Inten    --      6.6128                 0.1106                 3.1579

                     10                     11                     12
                      A                      A                      A
 Frequencies --    150.9457               171.6451               181.0893
 Red. masses --      2.4493                 2.6436                 1.4437
 Frc consts  --      0.0329                 0.0459                 0.0279
 IR Inten    --      2.8692                 1.0616                 0.6145

                     13                     14                     15
                      A                      A                      A
 Frequencies --    203.2910               213.7448               219.4044
 Red. masses --      1.7160                 1.6708                 3.3918
 Frc consts  --      0.0418                 0.0450                 0.0962
 IR Inten    --      1.2133                 1.4406                 6.8311

                     16                     17                     18
                      A                      A                      A
 Frequencies --    254.0704               263.3607               272.1535
 Red. masses --      4.5402                 1.8400                 1.4182
 Frc consts  --      0.1727                 0.0752                 0.0619
 IR Inten    --      0.5673                 0.6088                 1.5182

                     19                     20                     21
                      A                      A                      A
 Frequencies --    283.2274               307.7509               309.8975
 Red. masses --      2.6178                 3.3870                 2.5163
 Frc consts  --      0.1237                 0.1890                 0.1424
 IR Inten    --      3.8359                 5.9245                 2.7563

                     22                     23                     24
                      A                      A                      A
 Frequencies --    318.6992               357.5564               375.4584
 Red. masses --      2.9152                 6.5265                 4.5291
 Frc consts  --      0.1745                 0.4916                 0.3762
 IR Inten    --      0.8369                 5.2924                 7.0993

                     25                     26                     27
                      A                      A                      A
 Frequencies --    388.7494               421.7680               428.1641
 Red. masses --      5.7154                 3.1247                 4.5608
 Frc consts  --      0.5089                 0.3275                 0.4926
 IR Inten    --      7.4322                 0.1795                 9.9370

                     28                     29                     30
                      A                      A                      A
 Frequencies --    466.0119               491.7378               508.4582
 Red. masses --      3.8904                 4.0608                 3.6423
 Frc consts  --      0.4978                 0.5785                 0.5548
 IR Inten    --     14.6823                12.8890                 3.1305

                     31                     32                     33
                      A                      A                      A
 Frequencies --    522.3397               533.7519               569.2209
 Red. masses --      3.0151                 4.0230                 1.1357
 Frc consts  --      0.4847                 0.6753                 0.2168
 IR Inten    --     11.3721                 1.7557               175.7812

                     34                     35                     36
                      A                      A                      A
 Frequencies --    589.9823               598.6792               607.4308
 Red. masses --      4.3991                 4.6391                 3.6738
 Frc consts  --      0.9022                 0.9796                 0.7986
 IR Inten    --      6.1537                 2.9228                11.5632

                     37                     38                     39
                      A                      A                      A
 Frequencies --    630.9138               643.0913               655.5232
 Red. masses --      6.3341                 5.0800                 4.2965
 Frc consts  --      1.4855                 1.2378                 1.0878
 IR Inten    --      1.1448                 3.2220                 8.3326

                     40                     41                     42
                      A                      A                      A
 Frequencies --    708.9458               740.0084               744.2356
 Red. masses --      2.2713                 8.3042                 4.8681
 Frc consts  --      0.6726                 2.6793                 1.5886
 IR Inten    --     23.2922                23.0718                17.4700

                     43                     44                     45
                      A                      A                      A
 Frequencies --    748.3221               769.9439               771.8039
 Red. masses --      4.4608                 4.0486                 1.7013
 Frc consts  --      1.4718                 1.4141                 0.5971
 IR Inten    --      3.6921                 9.5384                66.7983

                     46                     47                     48
                      A                      A                      A
 Frequencies --    789.4443               829.6257               834.1114
 Red. masses --      4.2071                 1.6943                 2.1613
 Frc consts  --      1.5448                 0.6871                 0.8860
 IR Inten    --      1.5782                47.1618                41.9682

                     49                     50                     51
                      A                      A                      A
 Frequencies --    853.1176               863.0879               892.7363
 Red. masses --      1.2494                 3.8471                 3.0619
 Frc consts  --      0.5358                 1.6885                 1.4378
 IR Inten    --      0.0370                 8.6742                20.8489

                     52                     53                     54
                      A                      A                      A
 Frequencies --    903.2696               915.6795               918.1101
 Red. masses --      1.6568                 1.4177                 3.0243
 Frc consts  --      0.7964                 0.7004                 1.5020
 IR Inten    --      4.6596                10.6524                57.7265

                     55                     56                     57
                      A                      A                      A
 Frequencies --    934.9763               936.9913               958.7906
 Red. masses --      1.3928                 1.7673                 2.8883
 Frc consts  --      0.7173                 0.9142                 1.5644
 IR Inten    --      5.5814                 6.1491                 2.3303

                     58                     59                     60
                      A                      A                      A
 Frequencies --    974.5527               988.6881              1000.7902
 Red. masses --      1.3243                 1.8103                 1.2396
 Frc consts  --      0.7410                 1.0426                 0.7315
 IR Inten    --      0.0117                 7.8121                 0.9143

                     61                     62                     63
                      A                      A                      A
 Frequencies --   1008.3842              1013.6144              1025.9769
 Red. masses --      2.4632                 6.0532                 5.9788
 Frc consts  --      1.4757                 3.6642                 3.7080
 IR Inten    --     12.1331                14.4876               311.0663

                     64                     65                     66
                      A                      A                      A
 Frequencies --   1043.0128              1053.3459              1060.9044
 Red. masses --      2.0900                 1.8337                 2.0939
 Frc consts  --      1.3396                 1.1987                 1.3885
 IR Inten    --     87.2342                60.1819                 3.0614

                     67                     68                     69
                      A                      A                      A
 Frequencies --   1086.3101              1119.7354              1132.6710
 Red. masses --      2.4425                 1.5651                 1.8795
 Frc consts  --      1.6982                 1.1562                 1.4207
 IR Inten    --      1.7855                54.4291                35.9366

                     70                     71                     72
                      A                      A                      A
 Frequencies --   1139.2497              1147.0150              1152.0052
 Red. masses --      1.6424                 1.5170                 1.4511
 Frc consts  --      1.2560                 1.1759                 1.1346
 IR Inten    --    153.3787                15.4297                29.7956

                     73                     74                     75
                      A                      A                      A
 Frequencies --   1159.0634              1161.6365              1185.1001
 Red. masses --      1.6043                 1.8563                 1.0867
 Frc consts  --      1.2699                 1.4758                 0.8992
 IR Inten    --     41.5478                10.2820                 4.1126

                     76                     77                     78
                      A                      A                      A
 Frequencies --   1203.1737              1205.6003              1208.3839
 Red. masses --      2.2655                 2.5016                 1.2756
 Frc consts  --      1.9323                 2.1423                 1.0974
 IR Inten    --     39.4428               349.0291                 6.6914

                     79                     80                     81
                      A                      A                      A
 Frequencies --   1220.3799              1228.9683              1238.8748
 Red. masses --      1.6513                 2.4678                 2.9924
 Frc consts  --      1.4490                 2.1960                 2.7060
 IR Inten    --     77.5977               648.9409               290.6884

                     82                     83                     84
                      A                      A                      A
 Frequencies --   1253.8949              1262.3796              1279.0230
 Red. masses --      2.7279                 1.8869                 1.9521
 Frc consts  --      2.5270                 1.7717                 1.8815
 IR Inten    --     74.7741                29.1068                46.8724

                     85                     86                     87
                      A                      A                      A
 Frequencies --   1286.5828              1308.6119              1326.4163
 Red. masses --      2.3190                 1.7145                 3.0016
 Frc consts  --      2.2616                 1.7299                 3.1115
 IR Inten    --      6.7840                77.4452                40.6259

                     88                     89                     90
                      A                      A                      A
 Frequencies --   1337.7693              1356.5606              1358.5587
 Red. masses --      1.4255                 2.0001                 2.0735
 Frc consts  --      1.5031                 2.1686                 2.2548
 IR Inten    --     17.9003               118.9223               119.9846

                     91                     92                     93
                      A                      A                      A
 Frequencies --   1368.8101              1371.5168              1387.7616
 Red. masses --      2.4702                 2.6919                 1.4479
 Frc consts  --      2.7269                 2.9834                 1.6429
 IR Inten    --      1.3984                 9.9845                59.0171

                     94                     95                     96
                      A                      A                      A
 Frequencies --   1429.5572              1436.9590              1472.5973
 Red. masses --      1.4772                 1.8301                 1.6355
 Frc consts  --      1.7786                 2.2265                 2.0896
 IR Inten    --     18.5943                37.0495               156.2099

                     97                     98                     99
                      A                      A                      A
 Frequencies --   1474.8827              1480.2378              1487.8757
 Red. masses --      1.5931                 1.4532                 2.3250
 Frc consts  --      2.0418                 1.8760                 3.0326
 IR Inten    --     35.7599                 7.2456               163.2246

                    100                    101                    102
                      A                      A                      A
 Frequencies --   1500.0206              1512.6635              1515.3671
 Red. masses --      1.1475                 1.0714                 1.0569
 Frc consts  --      1.5213                 1.4444                 1.4299
 IR Inten    --    104.7220                13.4881                 4.1870

                    103                    104                    105
                      A                      A                      A
 Frequencies --   1516.8300              1517.8771              1523.0202
 Red. masses --      1.0581                 1.0720                 1.0562
 Frc consts  --      1.4343                 1.4552                 1.4434
 IR Inten    --     12.8957                 1.7429                 7.6773

                    106                    107                    108
                      A                      A                      A
 Frequencies --   1529.7042              1542.3866              1545.8163
 Red. masses --      1.1619                 2.2258                 1.1020
 Frc consts  --      1.6018                 3.1198                 1.5516
 IR Inten    --     18.5037               541.4280                17.6948

                    109                    110                    111
                      A                      A                      A
 Frequencies --   1547.4640              1587.8127              1645.7144
 Red. masses --      2.3206                 2.0136                 7.4597
 Frc consts  --      3.2741                 2.9911                11.9037
 IR Inten    --     49.7561               496.4777                28.3674

                    112                    113                    114
                      A                      A                      A
 Frequencies --   1652.7517              1661.4418              1665.3405
 Red. masses --      4.3725                 5.4602                 6.3165
 Frc consts  --      7.0372                 8.8803                10.3213
 IR Inten    --     76.5464               104.9587                92.8901

                    115                    116                    117
                      A                      A                      A
 Frequencies --   1779.6790              2948.3480              2974.1323
 Red. masses --     10.5408                 1.0736                 1.0742
 Frc consts  --     19.6701                 5.4988                 5.5982
 IR Inten    --    556.9212               123.3066                26.4244

                    118                    119                    120
                      A                      A                      A
 Frequencies --   2976.8105              3018.4806              3057.7453
 Red. masses --      1.0684                 1.0519                 1.0344
 Frc consts  --      5.5782                 5.6470                 5.6985
 IR Inten    --    307.5056               146.5413                49.6723

                    121                    122                    123
                      A                      A                      A
 Frequencies --   3089.3932              3099.7055              3104.1495
 Red. masses --      1.0691                 1.0794                 1.0828
 Frc consts  --      6.0120                 6.1102                 6.1471
 IR Inten    --     25.2380                85.8095                49.2432

                    124                    125                    126
                      A                      A                      A
 Frequencies --   3108.8452              3127.8949              3130.8666
 Red. masses --      1.0749                 1.1030                 1.1033
 Frc consts  --      6.1208                 6.3583                 6.3722
 IR Inten    --     70.3451                50.1659                47.0090

                    127                    128                    129
                      A                      A                      A
 Frequencies --   3137.7069              3147.2300              3161.0356
 Red. masses --      1.1067                 1.1039                 1.1007
 Frc consts  --      6.4195                 6.4423                 6.4798
 IR Inten    --     57.2427                37.4575                30.8490

                    130                    131                    132
                      A                      A                      A
 Frequencies --   3201.2393              3207.0788              3216.3947
 Red. masses --      1.0863                 1.0886                 1.0927
 Frc consts  --      6.5591                 6.5969                 6.6603
 IR Inten    --     10.5259                 7.9057                52.7250

                    133                    134                    135
                      A                      A                      A
 Frequencies --   3218.1024              3221.5422              3229.3117
 Red. masses --      1.0880                 1.0915                 1.0973
 Frc consts  --      6.6385                 6.6742                 6.7422
 IR Inten    --     20.5750                12.9613                35.5932

                    136                    137                    138
                      A                      A                      A
 Frequencies --   3231.7907              3278.5415              3574.6599
 Red. masses --      1.0945                 1.0915                 1.0781
 Frc consts  --      6.7350                 6.9128                 8.1167
 IR Inten    --     17.8644                 2.6464               125.7979

 - Thermochemistry -
 -------------------
 Temperature   298.150 Kelvin.  Pressure   1.00000 Atm.
 Atom     1 has atomic number  6 and mass  12.00000

 Molecular mass:   337.17903 amu.
 Principal axes and moments of inertia in atomic units:
                           1         2         3
     Eigenvalues --  2605.47342********************
           X            1.00000  -0.00074   0.00114
           Y            0.00074   1.00000  -0.00186
           Z           -0.00114   0.00186   1.00000
 This molecule is an asymmetric top.
 Rotational symmetry number  1.
 Warning -- assumption of classical behavior for rotation
           may cause significant error
 Rotational temperatures (Kelvin)      0.03324     0.00378     0.00366
 Rotational constants (GHZ):           0.69267     0.07874     0.07621
 Zero-point vibrational energy    1057300.5 (Joules/Mol)
                                  252.70088 (Kcal/Mol)
 Warning -- explicit consideration of  36 degrees of freedom as
           vibrations may cause significant error
 Vibrational temperatures:     22.35    39.39    41.53    61.67    85.74
          (Kelvin)            106.87   119.11   164.09   183.95   217.18
                              246.96   260.55   292.49   307.53   315.67
                              365.55   378.92   391.57   407.50   442.78
                              445.87   458.54   514.44   540.20   559.32
                              606.83   616.03   670.49   707.50   731.56
                              751.53   767.95   818.98   848.85   861.37
                              873.96   907.74   925.26   943.15  1020.01
                             1064.71  1070.79  1076.67  1107.78  1110.45
                             1135.83  1193.65  1200.10  1227.45  1241.79
                             1284.45  1299.60  1317.46  1320.96  1345.22
                             1348.12  1379.49  1402.16  1422.50  1439.91
                             1450.84  1458.36  1476.15  1500.66  1515.53
                             1526.40  1562.96  1611.05  1629.66  1639.13
                             1650.30  1657.48  1667.63  1671.34  1705.09
                             1731.10  1734.59  1738.59  1755.85  1768.21
                             1782.46  1804.08  1816.28  1840.23  1851.11
                             1882.80  1908.42  1924.75  1951.79  1954.66
                             1969.41  1973.31  1996.68  2056.81  2067.46
                             2118.74  2122.03  2129.73  2140.72  2158.20
                             2176.39  2180.28  2182.38  2183.89  2191.29
                             2200.90  2219.15  2224.08  2226.46  2284.51
                             2367.82  2377.94  2390.44  2396.05  2560.56
                             4242.02  4279.11  4282.97  4342.92  4399.41
                             4444.95  4459.78  4466.18  4472.93  4500.34
                             4504.62  4514.46  4528.16  4548.03  4605.87
                             4614.27  4627.67  4630.13  4635.08  4646.26
                             4649.83  4717.09  5143.14

 Zero-point correction=                           0.402704 (Hartree/Particle)
 Thermal correction to Energy=                    0.425184
 Thermal correction to Enthalpy=                  0.426128
 Thermal correction to Gibbs Free Energy=         0.349086
 Sum of electronic and zero-point Energies=          -1090.310304
 Sum of electronic and thermal Energies=             -1090.287825
 Sum of electronic and thermal Enthalpies=           -1090.286881
 Sum of electronic and thermal Free Energies=        -1090.363923

                     E (Thermal)             CV                S
                      KCal/Mol        Cal/Mol-Kelvin    Cal/Mol-Kelvin
 Total                  266.807             87.724            162.147
 Electronic               0.000              0.000              0.000
 Translational            0.889              2.981             43.341
 Rotational               0.889              2.981             35.601
 Vibrational            265.029             81.763             83.205
 Vibration     1          0.593              1.986              7.136
 Vibration     2          0.593              1.984              6.011
 Vibration     3          0.593              1.984              5.906
 Vibration     4          0.595              1.980              5.122
 Vibration     5          0.597              1.974              4.471
 Vibration     6          0.599              1.966              4.037
 Vibration     7          0.600              1.961              3.824
 Vibration     8          0.607              1.938              3.199
 Vibration     9          0.611              1.925              2.978
 Vibration    10          0.618              1.902              2.660
 Vibration    11          0.626              1.877              2.417
 Vibration    12          0.630              1.865              2.317
 Vibration    13          0.639              1.835              2.103
 Vibration    14          0.644              1.820              2.011
 Vibration    15          0.647              1.812              1.964
 Vibration    16          0.665              1.756              1.702
 Vibration    17          0.670              1.740              1.639
 Vibration    18          0.675              1.725              1.582
 Vibration    19          0.682              1.705              1.514
 Vibration    20          0.698              1.659              1.374
 Vibration    21          0.699              1.655              1.363
 Vibration    22          0.705              1.638              1.317
 Vibration    23          0.733              1.560              1.133
 Vibration    24          0.746              1.522              1.057
 Vibration    25          0.757              1.494              1.005
 Vibration    26          0.784              1.423              0.886
 Vibration    27          0.790              1.409              0.865
 Vibration    28          0.823              1.325              0.749
 Vibration    29          0.847              1.268              0.679
 Vibration    30          0.864              1.231              0.637
 Vibration    31          0.877              1.201              0.605
 Vibration    32          0.889              1.175              0.579
 Vibration    33          0.925              1.098              0.506
 Vibration    34          0.947              1.053              0.467
 Vibration    35          0.957              1.035              0.452
 Vibration    36          0.966              1.016              0.437

 Optimization completed.
    -- Stationary point found.
 Normal termination of Gaussian 16 at Wed Mar  2 00:14:03 2022.

 ------------------------------------------
 #p b3lyp/6-31G(d) geom=allcheck guess=read
 ------------------------------------------

 Structure from the checkpoint file:  "25.n.pdb.xyz.mst.wat.chk"
 ------------
 25.n.pdb.xyz
 ------------
 Charge =  0 Multiplicity = 1

 SCF Done:  E(RB3LYP) =  -1090.69645857     A.U. after   11 cycles
 Normal termination of Gaussian 16 at Wed Mar  2 00:18:17 2022.
 Gaussian 16:  ES64L-G16RevA.03 25-Dec-2016

 ----------------------------------------------------------------------
 #p b3lyp/6-31G(d) scrf=(iefpcm,read,solvent=water) geom=allcheck guess
 =read
 ----------------------------------------------------------------------

 Structure from the checkpoint file:  "25.n.pdb.xyz.mst.wat.chk"
 ------------
 25.n.pdb.xyz
 ------------
 Charge =  0 Multiplicity = 1

                         Standard orientation:
 ---------------------------------------------------------------------
 Center     Atomic      Atomic             Coordinates (Angstroms)
 Number     Number       Type             X           Y           Z
 ---------------------------------------------------------------------
      1          6           0        6.435453   -0.072805   -0.437929
      2          7           0        5.039084   -0.455645   -0.602476
      3          6           0        4.879378   -1.884013   -0.899351
      4          6           0        3.377742   -2.122699   -0.733306
      5          6           0        2.968276   -1.160071    0.419881
      6          6           0        2.643809   -1.913624    1.718039
      7          6           0        4.204824   -0.207778    0.585138
      8          7           0        3.638384    1.134260    0.673087
      9          6           0        4.451398    2.328593    0.728937
     10          6           0        2.342916    1.134071    0.186733
     11          6           0        1.525178    2.227292   -0.115667
     12          6           0        0.211207    1.981951   -0.532951
     13          6           0       -0.253082    0.677596   -0.653654
     14          8           0       -1.549187    0.456944   -1.147678
     15          6           0       -2.547724    0.296552   -0.222400
     16          8           0       -2.370460    0.330455    0.983804
     17          7           0       -3.723630    0.100581   -0.880253
     18          6           0       -5.002511   -0.092087   -0.323006
     19          6           0       -5.239267   -0.156747    1.058582
     20          6           0       -6.539442   -0.353148    1.526403
     21          6           0       -7.611854   -0.488059    0.643961
     22          6           0       -7.371091   -0.422963   -0.730479
     23          6           0       -6.080126   -0.226338   -1.213634
     24          6           0        0.567813   -0.420990   -0.371361
     25          6           0        1.867145   -0.184935    0.044042
     26          1           0        6.922952   -0.608052    0.396012
     27          1           0        6.515994    0.999059   -0.249527
     28          1           0        6.986702   -0.297904   -1.355291
     29          1           0        5.454211   -2.509925   -0.191925
     30          1           0        5.247031   -2.105665   -1.905905
     31          1           0        3.146931   -3.164177   -0.497014
     32          1           0        2.848477   -1.860624   -1.652391
     33          1           0        2.479430   -1.217952    2.546901
     34          1           0        3.464994   -2.583864    1.992336
     35          1           0        1.738726   -2.516493    1.595405
     36          1           0        4.776693   -0.417826    1.504105
     37          1           0        3.857548    3.154036    1.130124
     38          1           0        5.296757    2.161091    1.400261
     39          1           0        4.841311    2.633646   -0.252828
     40          1           0        1.892359    3.243674   -0.032601
     41          1           0       -0.450121    2.806391   -0.775756
     42          1           0       -3.667369    0.113182   -1.893454
     43          1           0       -4.411688   -0.052384    1.744123
     44          1           0       -6.708754   -0.401026    2.597504
     45          1           0       -8.618097   -0.640703    1.019081
     46          1           0       -8.189889   -0.524634   -1.434262
     47          1           0       -5.905004   -0.175221   -2.283363
     48          1           0        0.180870   -1.426970   -0.490912
 ---------------------------------------------------------------------

 SCF Done:  E(RB3LYP) =  -1090.71118273     A.U. after   11 cycles

 The electronic state is 1-A.
 Alpha  occ. eigenvalues --  -19.19867 -19.13545 -14.37980 -14.34787 -14.32517
 Alpha  occ. eigenvalues --  -10.34858 -10.24229 -10.24180 -10.24140 -10.22303
 Alpha  occ. eigenvalues --  -10.21216 -10.20583 -10.20525 -10.19925 -10.19356
 Alpha  occ. eigenvalues --  -10.19348 -10.19307 -10.19281 -10.19228 -10.18926
 Alpha  occ. eigenvalues --  -10.18809 -10.18725 -10.18698 -10.18157 -10.17748
 Alpha  occ. eigenvalues --   -1.11449  -1.02431  -0.97274  -0.95205  -0.91436
 Alpha  occ. eigenvalues --   -0.85391  -0.84566  -0.81188  -0.76127  -0.75119
 Alpha  occ. eigenvalues --   -0.74858  -0.73808  -0.72846  -0.71271  -0.67358
 Alpha  occ. eigenvalues --   -0.65474  -0.64369  -0.62169  -0.61929  -0.59772
 Alpha  occ. eigenvalues --   -0.57955  -0.56797  -0.56174  -0.54582  -0.52784
 Alpha  occ. eigenvalues --   -0.50808  -0.49753  -0.49611  -0.48049  -0.47609
 Alpha  occ. eigenvalues --   -0.46718  -0.46076  -0.44952  -0.44507  -0.44306
 Alpha  occ. eigenvalues --   -0.43599  -0.43410  -0.42786  -0.42627  -0.42210
 Alpha  occ. eigenvalues --   -0.41803  -0.40624  -0.40365  -0.40014  -0.39376
 Alpha  occ. eigenvalues --   -0.38269  -0.38111  -0.36907  -0.36645  -0.36290
 Alpha  occ. eigenvalues --   -0.35612  -0.34772  -0.34725  -0.33149  -0.32921
 Alpha  occ. eigenvalues --   -0.32229  -0.31517  -0.30584  -0.29043  -0.28413
 Alpha  occ. eigenvalues --   -0.25524  -0.25123  -0.22397  -0.22350  -0.19041
 Alpha virt. eigenvalues --   -0.00915  -0.00606  -0.00441   0.01414   0.05833
 Alpha virt. eigenvalues --    0.08493   0.09556   0.09751   0.10045   0.11259
 Alpha virt. eigenvalues --    0.11785   0.12851   0.13288   0.13759   0.14400

 Mulliken charges:
               1
     1  C   -0.318639
     2  N   -0.421934
     3  C   -0.127744
     4  C   -0.293271
     5  C   -0.009986
     6  C   -0.466124
     7  C    0.166788
     8  N   -0.514872
     9  C   -0.327865
    10  C    0.354323
    11  C   -0.232242
    12  C   -0.188455
    13  C    0.332932
    14  O   -0.571080
    15  C    0.806004
    16  O   -0.543691
    17  N   -0.734236
    18  C    0.343280
    19  C   -0.183068
    20  C   -0.162727
    21  C   -0.150871
    22  C   -0.153327
    23  C   -0.207121
    24  C   -0.252321
    25  C    0.074684
    26  H    0.132026
    27  H    0.164210
    28  H    0.160093
    29  H    0.125026
    30  H    0.153221
    31  H    0.153434
    32  H    0.153271
    33  H    0.155911
    34  H    0.155438
    35  H    0.156980
    36  H    0.129481
    37  H    0.172524
    38  H    0.173445
    39  H    0.161203
    40  H    0.152655
    41  H    0.152634
    42  H    0.397252
    43  H    0.170594
    44  H    0.151209
    45  H    0.147361
    46  H    0.152906
    47  H    0.158567
    48  H    0.152124
 Sum of Mulliken charges =  -0.00000

 Dipole moment (field-independent basis, Debye):
    X=              2.9658    Y=             -0.8531    Z=             -2.2764  Tot=              3.8348
 Quadrupole moment (field-independent basis, Debye-Ang):
   XX=           -111.2147   YY=           -137.6201   ZZ=           -142.6246
   XY=              1.6201   XZ=             15.6024   YZ=              0.5090

 Normal termination of Gaussian 16 at Wed Mar  2 00:23:35 2022.
