 Gaussian 16, Revision A.03,

 ----------------------------------------------------------------------
 #p b3lyp/6-31G(d) opt=(MaxStep=10,MaxCycles=1000) freq scf=(MaxCycle=2
 000,NoVarAcc,NoIncFock) scrf=(iefpcm,read,solvent=water)
 ----------------------------------------------------------------------

 -------------
 250.n.pdb.xyz
 -------------
 Symbolic Z-matrix:
 Charge =  0 Multiplicity = 1

 SCF Done:  E(RB3LYP) =  -999.018087202     A.U. after   10 cycles
 SCF Done:  E(RB3LYP) =  -999.019405249     A.U. after   10 cycles
 SCF Done:  E(RB3LYP) =  -999.019533521     A.U. after    8 cycles
 SCF Done:  E(RB3LYP) =  -999.019561391     A.U. after    8 cycles
 Optimization completed.
    -- Stationary point found.
 Normal termination of Gaussian 16 at Tue Mar  1 04:27:08 2022.

 --------------------------------------------------------------------
 #P Geom=AllCheck Guess=TCheck SCRF=Check GenChk RB3LYP/6-31G(d) Freq
 --------------------------------------------------------------------

 Structure from the checkpoint file:  "250.n.pdb.xyz.mst.wat.chk"
 -------------
 250.n.pdb.xyz
 -------------
 Charge =  0 Multiplicity = 1

 SCF Done:  E(RB3LYP) =  -999.019561391     A.U. after    1 cycles

  Exact polarizability:  64.405   0.001  49.276   0.000   2.976  37.814
 Approx polarizability:  73.761   0.001  53.525   0.001   4.630  43.102

                      1                      2                      3
                      A                      A                      A
 Frequencies --    246.2901               272.7404               309.6216
 Red. masses --      1.0716                13.5151                 2.7933
 Frc consts  --      0.0383                 0.5923                 0.1578
 IR Inten    --      0.2153                 2.6800                 1.9887

                      4                      5                      6
                      A                      A                      A
 Frequencies --    391.9891               632.2479               646.2478
 Red. masses --      3.7754                 4.5301                 5.3508
 Frc consts  --      0.3418                 1.0669                 1.3166
 IR Inten    --      9.4085                29.6773               223.3857

                      7                      8                      9
                      A                      A                      A
 Frequencies --    989.9649              1067.6537              1107.2955
 Red. masses --      1.6824                 1.4110                 2.4912
 Frc consts  --      0.9715                 0.9476                 1.7997
 IR Inten    --     31.0374                71.1447                 7.3698

                     10                     11                     12
                      A                      A                      A
 Frequencies --   1274.6336              1324.2543              1420.9508
 Red. masses --      1.0972                 1.2239                 1.2584
 Frc consts  --      1.0503                 1.2646                 1.4970
 IR Inten    --     63.6590                22.0719                11.2821

                     13                     14                     15
                      A                      A                      A
 Frequencies --   1488.2948              1494.1615              3087.4167
 Red. masses --      1.0403                 1.0434                 1.0349
 Frc consts  --      1.3577                 1.3725                 5.8122
 IR Inten    --     12.6664                 2.1403                 7.6837

                     16                     17                     18
                      A                      A                      A
 Frequencies --   3162.1312              3180.4000              3203.1502
 Red. masses --      1.1040                 1.1017                 1.0910
 Frc consts  --      6.5042                 6.5659                 6.5952
 IR Inten    --     10.7079                 6.2162                 7.7852

 - Thermochemistry -
 -------------------
 Temperature   298.150 Kelvin.  Pressure   1.00000 Atm.
 Atom     1 has atomic number  6 and mass  12.00000

 Molecular mass:    97.96901 amu.
 Principal axes and moments of inertia in atomic units:
                           1         2         3
     Eigenvalues --   285.39485 578.11680 814.81225
           X            1.00000   0.00001   0.00000
           Y           -0.00001   0.99994  -0.01080
           Z           -0.00000   0.01080   0.99994
 This molecule is an asymmetric top.
 Rotational symmetry number  1.
 Rotational temperatures (Kelvin)      0.30349     0.14982     0.10630
 Rotational constants (GHZ):           6.32366     3.12176     2.21492
 Zero-point vibrational energy     151324.3 (Joules/Mol)
                                   36.16737 (Kcal/Mol)
 Warning -- explicit consideration of   4 degrees of freedom as
           vibrations may cause significant error
 Vibrational temperatures:    354.36   392.41   445.48   563.98   909.66
          (Kelvin)            929.81  1424.34  1536.12  1593.15  1833.91
                             1905.31  2044.43  2141.32  2149.77  4442.10
                             4549.60  4575.89  4608.62

 Zero-point correction=                           0.057636 (Hartree/Particle)
 Thermal correction to Energy=                    0.062551
 Thermal correction to Enthalpy=                  0.063495
 Thermal correction to Gibbs Free Energy=         0.028883
 Sum of electronic and zero-point Energies=           -998.961925
 Sum of electronic and thermal Energies=              -998.957010
 Sum of electronic and thermal Enthalpies=            -998.956066
 Sum of electronic and thermal Free Energies=         -998.990679

                     E (Thermal)             CV                S
                      KCal/Mol        Cal/Mol-Kelvin    Cal/Mol-Kelvin
 Total                   39.251             16.018             72.848
 Electronic               0.000              0.000              0.000
 Translational            0.889              2.981             39.657
 Rotational               0.889              2.981             26.400
 Vibrational             37.474             10.057              6.792
 Vibration     1          0.661              1.769              1.757
 Vibration     2          0.676              1.724              1.579
 Vibration     3          0.699              1.655              1.364
 Vibration     4          0.759              1.487              0.993

 Optimization completed.
    -- Stationary point found.
 Normal termination of Gaussian 16 at Tue Mar  1 04:27:50 2022.

 ------------------------------------------
 #p b3lyp/6-31G(d) geom=allcheck guess=read
 ------------------------------------------

 Structure from the checkpoint file:  "250.n.pdb.xyz.mst.wat.chk"
 -------------
 250.n.pdb.xyz
 -------------
 Charge =  0 Multiplicity = 1

 SCF Done:  E(RB3LYP) =  -999.016427169     A.U. after   10 cycles

 1\1\GINC-PIRINEUS2\SP\RB3LYP\6-31G(d)\C2H4Cl2\UBATOR01\01-Mar-2022\0\\
 #p b3lyp/6-31G(d) geom=allcheck guess=read\\250.n.pdb.xyz\\0,1\C,0,-0.
 8334763794,-0.0182901452,-0.0578240898\C,0,0.6590231968,-0.0373760493,
 0.174338482\Cl,0,1.3509280688,1.6350478077,0.0788650126\Cl,0,1.4882254
 683,-1.1092978032,-1.02914201\H,0,-1.3076597793,0.6126419594,0.6976560
 495\H,0,-1.2251402046,-1.0341535195,0.032535108\H,0,-1.0665474742,0.37
 03286211,-1.0489543079\H,0,0.9346471036,-0.418900871,1.1535257557\\Ver
 sion=ES64L-G16RevA.03\State=1-A\HF=-999.0164272\RMSD=2.152e-09\Dipole=

 Normal termination of Gaussian 16 at Tue Mar  1 04:27:57 2022.
 Gaussian 16:  ES64L-G16RevA.03 25-Dec-2016

 ----------------------------------------------------------------------
 #p b3lyp/6-31G(d) scrf=(iefpcm,read,solvent=water) geom=allcheck guess
 =read
 ----------------------------------------------------------------------

 Structure from the checkpoint file:  "250.n.pdb.xyz.mst.wat.chk"
 -------------
 250.n.pdb.xyz
 -------------
 Charge =  0 Multiplicity = 1

                         Standard orientation:
 ---------------------------------------------------------------------
 Center     Atomic      Atomic             Coordinates (Angstroms)
 Number     Number       Type             X           Y           Z
 ---------------------------------------------------------------------
      1          6           0        0.000069    1.743508   -0.148561
      2          6           0        0.000017    0.350161    0.434880
      3         17           0        1.481358   -0.563762   -0.070317
      4         17           0       -1.481405   -0.563691   -0.070315
      5          1           0        0.889008    2.277921    0.194754
      6          1           0       -0.888948    2.277785    0.194570
      7          1           0        0.000177    1.707541   -1.237777
      8          1           0        0.000041    0.341453    1.521278
 ---------------------------------------------------------------------

 SCF Done:  E(RB3LYP) =  -999.019353273     A.U. after    9 cycles

 The electronic state is 1-A.
 Alpha  occ. eigenvalues -- -101.55215-101.55214 -10.31296 -10.19906  -9.46904
 Alpha  occ. eigenvalues --   -9.46903  -7.23301  -7.23299  -7.22320  -7.22319
 Alpha  occ. eigenvalues --   -7.22292  -7.22291  -0.90346  -0.82266  -0.74650
 Alpha  occ. eigenvalues --   -0.61640  -0.49034  -0.46773  -0.43820  -0.39231
 Alpha  occ. eigenvalues --   -0.39070  -0.33145  -0.32346  -0.30826  -0.30661
 Alpha virt. eigenvalues --   -0.01242   0.02504   0.10501   0.13757   0.16680
 Alpha virt. eigenvalues --    0.17423   0.18984   0.34251   0.37814   0.41452
 Alpha virt. eigenvalues --    0.41915   0.43420   0.46350   0.46530   0.48485

 Mulliken charges:
               1
     1  C   -0.433084
     2  C   -0.291759
     3  Cl  -0.059863
     4  Cl  -0.059880
     5  H    0.193685
     6  H    0.193666
     7  H    0.190919
     8  H    0.266316
 Sum of Mulliken charges =  -0.00000

 Dipole moment (field-independent basis, Debye):
    X=              0.0005    Y=              2.6310    Z=              1.1378  Tot=              2.8665
 Quadrupole moment (field-independent basis, Debye-Ang):
   XX=            -41.1685   YY=            -36.3192   ZZ=            -36.7711
   XY=              0.0005   XZ=              0.0003   YZ=              0.5210

 1\1\GINC-PIRINEUS2\SP\RB3LYP\6-31G(d)\C2H4Cl2\UBATOR01\01-Mar-2022\0\\
 #p b3lyp/6-31G(d) scrf=(iefpcm,read,solvent=water) geom=allcheck guess
 =read\\250.n.pdb.xyz\\0,1\C,0,-0.8334763794,-0.0182901452,-0.057824089
 8\C,0,0.6590231968,-0.0373760493,0.174338482\Cl,0,1.3509280688,1.63504
 78077,0.0788650126\Cl,0,1.4882254683,-1.1092978032,-1.02914201\H,0,-1.
 3076597793,0.6126419594,0.6976560495\H,0,-1.2251402046,-1.0341535195,0
 .032535108\H,0,-1.0665474742,0.3703286211,-1.0489543079\H,0,0.93464710
 36,-0.418900871,1.1535257557\\Version=ES64L-G16RevA.03\State=1-A\HF=-9

 Normal termination of Gaussian 16 at Tue Mar  1 04:28:07 2022.
