 Gaussian 16, Revision A.03,

 ----------------------------------------------------------------------
 #p b3lyp/6-31G(d) opt=(MaxStep=10,MaxCycles=1000) freq scf=(MaxCycle=2
 000,NoVarAcc,NoIncFock) scrf=(iefpcm,read,solvent=water)
 ----------------------------------------------------------------------

 -------------
 251.n.pdb.xyz
 -------------
 Symbolic Z-matrix:
 Charge =  0 Multiplicity = 1

 SCF Done:  E(RB3LYP) =  -1069.82628892     A.U. after   13 cycles
 SCF Done:  E(RB3LYP) =  -1069.83121292     A.U. after   10 cycles
 SCF Done:  E(RB3LYP) =  -1069.83296567     A.U. after   11 cycles
 SCF Done:  E(RB3LYP) =  -1069.83367973     A.U. after   11 cycles
 SCF Done:  E(RB3LYP) =  -1069.83389608     A.U. after   10 cycles
 SCF Done:  E(RB3LYP) =  -1069.83405555     A.U. after   10 cycles
 SCF Done:  E(RB3LYP) =  -1069.83405296     A.U. after    8 cycles
 SCF Done:  E(RB3LYP) =  -1069.83405745     A.U. after    8 cycles
 SCF Done:  E(RB3LYP) =  -1069.83405827     A.U. after    7 cycles
 SCF Done:  E(RB3LYP) =  -1069.83405635     A.U. after    8 cycles
 SCF Done:  E(RB3LYP) =  -1069.83404930     A.U. after    7 cycles
 SCF Done:  E(RB3LYP) =  -1069.83405905     A.U. after    8 cycles
 SCF Done:  E(RB3LYP) =  -1069.83405928     A.U. after    7 cycles
 SCF Done:  E(RB3LYP) =  -1069.83405084     A.U. after    9 cycles
 SCF Done:  E(RB3LYP) =  -1069.83405153     A.U. after    6 cycles
 SCF Done:  E(RB3LYP) =  -1069.83405914     A.U. after    8 cycles
 SCF Done:  E(RB3LYP) =  -1069.83405160     A.U. after    8 cycles
 Optimization completed on the basis of negligible forces.
    -- Stationary point found.
 Normal termination of Gaussian 16 at Tue Mar  1 07:33:11 2022.

 --------------------------------------------------------------------
 #P Geom=AllCheck Guess=TCheck SCRF=Check GenChk RB3LYP/6-31G(d) Freq
 --------------------------------------------------------------------

 Structure from the checkpoint file:  "251.n.pdb.xyz.mst.wat.chk"
 -------------
 251.n.pdb.xyz
 -------------
 Charge =  0 Multiplicity = 1

 SCF Done:  E(RB3LYP) =  -1069.83405160     A.U. after    1 cycles

  Exact polarizability: 351.235 -13.122 260.543  -1.585   8.518 138.769
 Approx polarizability: 372.669  -5.515 301.152  -3.831  11.620 166.380

                      1                      2                      3
                      A                      A                      A
 Frequencies --     27.2541                48.9800                55.0611
 Red. masses --      4.6101                 5.1584                 3.6371
 Frc consts  --      0.0020                 0.0073                 0.0065
 IR Inten    --      0.4399                 0.7948                 1.0814

                      4                      5                      6
                      A                      A                      A
 Frequencies --     70.3560                81.1824                87.7085
 Red. masses --      6.3430                 4.6092                 3.3028
 Frc consts  --      0.0185                 0.0179                 0.0150
 IR Inten    --      3.9133                 7.0584                 1.5849

                      7                      8                      9
                      A                      A                      A
 Frequencies --    100.4708               116.4827               132.6554
 Red. masses --      3.8401                 1.1906                 2.8065
 Frc consts  --      0.0228                 0.0095                 0.0291
 IR Inten    --      2.1295                 1.1160                 1.3313

                     10                     11                     12
                      A                      A                      A
 Frequencies --    159.2090               181.1040               200.6310
 Red. masses --      4.6770                 5.0498                 6.7967
 Frc consts  --      0.0698                 0.0976                 0.1612
 IR Inten    --      8.9731                 2.0361                 3.1983

                     13                     14                     15
                      A                      A                      A
 Frequencies --    229.1781               245.7202               268.0435
 Red. masses --      5.5734                 2.6973                 2.0771
 Frc consts  --      0.1725                 0.0960                 0.0879
 IR Inten    --      5.6935                 1.8607                 3.1672

                     16                     17                     18
                      A                      A                      A
 Frequencies --    279.1795               294.6654               316.5147
 Red. masses --      4.2498                 3.2020                 5.6614
 Frc consts  --      0.1952                 0.1638                 0.3342
 IR Inten    --      8.4858                 0.7785                 6.2084

                     19                     20                     21
                      A                      A                      A
 Frequencies --    366.6688               378.6545               403.3454
 Red. masses --      4.7435                 4.3092                 4.9333
 Frc consts  --      0.3757                 0.3640                 0.4729
 IR Inten    --     15.8204                 5.9517                 6.5987

                     22                     23                     24
                      A                      A                      A
 Frequencies --    412.6363               416.4916               427.5730
 Red. masses --      5.2050                 5.8373                 3.1345
 Frc consts  --      0.5222                 0.5966                 0.3376
 IR Inten    --      2.3116                25.8574                16.0659

                     25                     26                     27
                      A                      A                      A
 Frequencies --    454.5356               482.9937               533.0371
 Red. masses --      6.3675                 5.6799                 4.1123
 Frc consts  --      0.7751                 0.7807                 0.6884
 IR Inten    --      0.4862                 4.4670                11.4110

                     28                     29                     30
                      A                      A                      A
 Frequencies --    553.4981               607.5511               638.8559
 Red. masses --      5.4163                 3.9261                 6.2764
 Frc consts  --      0.9777                 0.8539                 1.5093
 IR Inten    --      4.6115                 6.3930                26.1681

                     31                     32                     33
                      A                      A                      A
 Frequencies --    663.4796               674.3835               680.0589
 Red. masses --      7.9944                 4.3113                 7.3103
 Frc consts  --      2.0734                 1.1552                 1.9919
 IR Inten    --      6.8490                24.8202                20.3619

                     34                     35                     36
                      A                      A                      A
 Frequencies --    701.2594               744.0165               762.6111
 Red. masses --      5.3711                 5.7797                 7.6270
 Frc consts  --      1.5562                 1.8851                 2.6134
 IR Inten    --     11.0257                53.3375                21.3781

                     37                     38                     39
                      A                      A                      A
 Frequencies --    778.6598               797.7523               817.8031
 Red. masses --      5.6026                 5.7776                 1.1226
 Frc consts  --      2.0014                 2.1664                 0.4424
 IR Inten    --     11.7851                 7.1345                 0.3879

                     40                     41                     42
                      A                      A                      A
 Frequencies --    838.4001               842.7495               857.6293
 Red. masses --      1.5440                 1.5290                 6.3686
 Frc consts  --      0.6394                 0.6398                 2.7599
 IR Inten    --     12.7237                49.5923                40.9032

                     43                     44                     45
                      A                      A                      A
 Frequencies --    876.7154               891.3788               903.0059
 Red. masses --      4.7313                 2.6589                 1.5331
 Frc consts  --      2.1426                 1.2447                 0.7366
 IR Inten    --     17.4271                 3.3588                21.8868

                     46                     47                     48
                      A                      A                      A
 Frequencies --    947.2507               964.8032               991.1137
 Red. masses --      2.8615                 1.3077                 3.7707
 Frc consts  --      1.5128                 0.7172                 2.1823
 IR Inten    --     49.3860                 1.2501               107.4529

                     49                     50                     51
                      A                      A                      A
 Frequencies --    999.8333              1040.4352              1084.1700
 Red. masses --      2.9585                 2.9907                 2.9798
 Frc consts  --      1.7425                 1.9075                 2.0636
 IR Inten    --      7.1320                27.9843               170.5985

                     52                     53                     54
                      A                      A                      A
 Frequencies --   1103.9630              1128.4397              1142.7032
 Red. masses --      1.8665                 2.2408                 2.1397
 Frc consts  --      1.3403                 1.6812                 1.6461
 IR Inten    --     16.5547               176.5205                15.7735

                     55                     56                     57
                      A                      A                      A
 Frequencies --   1157.8424              1168.3846              1187.3154
 Red. masses --      1.3577                 1.5160                 1.5153
 Frc consts  --      1.0724                 1.2193                 1.2585
 IR Inten    --      2.0368                37.5377                 8.2761

                     58                     59                     60
                      A                      A                      A
 Frequencies --   1210.6949              1223.4479              1246.7203
 Red. masses --      2.4406                 3.9430                 1.9894
 Frc consts  --      2.1077                 3.4774                 1.8218
 IR Inten    --    132.1641               258.9935               189.7542

                     61                     62                     63
                      A                      A                      A
 Frequencies --   1263.2254              1289.8963              1293.5735
 Red. masses --      2.1662                 2.6328                 1.1159
 Frc consts  --      2.0366                 2.5809                 1.1002
 IR Inten    --    153.5430               452.4697                 1.6897

                     64                     65                     66
                      A                      A                      A
 Frequencies --   1298.0692              1309.9529              1336.1670
 Red. masses --      3.1060                 1.9121                 3.8563
 Frc consts  --      3.0836                 1.9332                 4.0565
 IR Inten    --     18.9880               100.4277                56.2785

                     67                     68                     69
                      A                      A                      A
 Frequencies --   1356.6131              1372.1413              1380.9379
 Red. masses --      3.9211                 1.8994                 2.3834
 Frc consts  --      4.2517                 2.1070                 2.6779
 IR Inten    --    102.2130                14.0320               198.8641

                     70                     71                     72
                      A                      A                      A
 Frequencies --   1416.7462              1435.1492              1440.8599
 Red. masses --      2.1413                 2.4206                 2.5628
 Frc consts  --      2.5323                 2.9374                 3.1348
 IR Inten    --    193.9868                20.5472                46.1849

                     73                     74                     75
                      A                      A                      A
 Frequencies --   1444.5585              1459.4843              1479.1370
 Red. masses --      1.6117                 2.0043                 1.9214
 Frc consts  --      1.9816                 2.5155                 2.4768
 IR Inten    --     20.6202                44.7051               114.4624

                     76                     77                     78
                      A                      A                      A
 Frequencies --   1506.7145              1507.4605              1513.7098
 Red. masses --      1.0400                 1.0804                 1.0544
 Frc consts  --      1.3910                 1.4466                 1.4234
 IR Inten    --      8.5684                33.9373                 1.8845

                     79                     80                     81
                      A                      A                      A
 Frequencies --   1518.0290              1534.7220              1537.3482
 Red. masses --      1.1755                 2.7916                 1.3235
 Frc consts  --      1.5959                 3.8740                 1.8429
 IR Inten    --     54.9751               308.0539                37.8037

                     82                     83                     84
                      A                      A                      A
 Frequencies --   1540.2036              1545.9873              1618.5310
 Red. masses --      1.2971                 2.9828                 9.1657
 Frc consts  --      1.8129                 4.2004                14.1468
 IR Inten    --     60.7771               182.4319               235.5343

                     85                     86                     87
                      A                      A                      A
 Frequencies --   1639.9474              1669.1907              1697.6340
 Red. masses --      7.7170                 7.3489                 9.3174
 Frc consts  --     12.2281                12.0638                15.8209
 IR Inten    --     32.4787                94.4852               594.6973

                     88                     89                     90
                      A                      A                      A
 Frequencies --   1741.6180              3071.7111              3077.8557
 Red. masses --     12.0472                 1.0396                 1.0353
 Frc consts  --     21.5299                 5.7793                 5.7785
 IR Inten    --    478.0310                61.6395                24.4041

                     91                     92                     93
                      A                      A                      A
 Frequencies --   3081.9409              3094.6191              3134.7364
 Red. masses --      1.0703                 1.0575                 1.1074
 Frc consts  --      5.9896                 5.9670                 6.4117
 IR Inten    --     28.2001                32.5300                 5.3823

                     94                     95                     96
                      A                      A                      A
 Frequencies --   3136.8099              3151.2963              3157.3489
 Red. masses --      1.1018                 1.1023                 1.1066
 Frc consts  --      6.3877                 6.4496                 6.4998
 IR Inten    --     27.4138                37.6971                74.3473

                     97                     98                     99
                      A                      A                      A
 Frequencies --   3198.6092              3207.6452              3244.6039
 Red. masses --      1.0948                 1.1003                 1.0893
 Frc consts  --      6.5996                 6.6702                 6.7563
 IR Inten    --      2.6558                 3.7479                 6.0581

                    100                    101                    102
                      A                      A                      A
 Frequencies --   3257.4233              3261.7699              3296.5847
 Red. masses --      1.0958                 1.0914                 1.0975
 Frc consts  --      6.8508                 6.8411                 7.0271
 IR Inten    --      3.5966                 4.6315                 0.0283

 - Thermochemistry -
 -------------------
 Temperature   298.150 Kelvin.  Pressure   1.00000 Atm.
 Atom     1 has atomic number  6 and mass  12.00000

 Molecular mass:   303.10192 amu.
 Principal axes and moments of inertia in atomic units:
                           1         2         3
     Eigenvalues --  2822.28146********************
           X            0.99999   0.00328   0.00139
           Y           -0.00329   0.99998   0.00593
           Z           -0.00137  -0.00593   0.99998
 This molecule is an asymmetric top.
 Rotational symmetry number  1.
 Warning -- assumption of classical behavior for rotation
           may cause significant error
 Rotational temperatures (Kelvin)      0.03069     0.00712     0.00603
 Rotational constants (GHZ):           0.63946     0.14836     0.12556
 Zero-point vibrational energy     732819.3 (Joules/Mol)
                                  175.14802 (Kcal/Mol)
 Warning -- explicit consideration of  29 degrees of freedom as
           vibrations may cause significant error
 Vibrational temperatures:     39.21    70.47    79.22   101.23   116.80
          (Kelvin)            126.19   144.56   167.59   190.86   229.07
                              260.57   288.66   329.74   353.54   385.65
                              401.68   423.96   455.39   527.55   544.80
                              580.32   593.69   599.24   615.18   653.98
                              694.92   766.92   796.36   874.13   919.17
                              954.60   970.29   978.45  1008.96  1070.47
                             1097.23  1120.32  1147.79  1176.64  1206.27
                             1212.53  1233.94  1261.40  1282.50  1299.22
                             1362.88  1388.14  1425.99  1438.54  1496.95
                             1559.88  1588.36  1623.57  1644.10  1665.88
                             1681.04  1708.28  1741.92  1760.27  1793.75
                             1817.50  1855.87  1861.16  1867.63  1884.73
                             1922.45  1951.86  1974.21  1986.86  2038.38
                             2064.86  2073.08  2078.40  2099.87  2128.15
                             2167.83  2168.90  2177.89  2184.11  2208.12
                             2211.90  2216.01  2224.33  2328.71  2359.52
                             2401.59  2442.52  2505.80  4419.51  4428.35
                             4434.23  4452.47  4510.19  4513.17  4534.01
                             4542.72  4602.09  4615.09  4668.26  4686.71
                             4692.96  4743.05

 Zero-point correction=                           0.279116 (Hartree/Particle)
 Thermal correction to Energy=                    0.298327
 Thermal correction to Enthalpy=                  0.299271
 Thermal correction to Gibbs Free Energy=         0.230425
 Sum of electronic and zero-point Energies=          -1069.554935
 Sum of electronic and thermal Energies=             -1069.535725
 Sum of electronic and thermal Enthalpies=           -1069.534780
 Sum of electronic and thermal Free Energies=        -1069.603627

                     E (Thermal)             CV                S
                      KCal/Mol        Cal/Mol-Kelvin    Cal/Mol-Kelvin
 Total                  187.203             72.229            144.900
 Electronic               0.000              0.000              0.000
 Translational            0.889              2.981             43.023
 Rotational               0.889              2.981             34.555
 Vibrational            185.426             66.267             67.321
 Vibration     1          0.593              1.984              6.020
 Vibration     2          0.595              1.978              4.858
 Vibration     3          0.596              1.976              4.627
 Vibration     4          0.598              1.968              4.143
 Vibration     5          0.600              1.962              3.862
 Vibration     6          0.601              1.958              3.711
 Vibration     7          0.604              1.949              3.445
 Vibration     8          0.608              1.936              3.158
 Vibration     9          0.613              1.921              2.907
 Vibration    10          0.621              1.892              2.559
 Vibration    11          0.630              1.865              2.317
 Vibration    12          0.638              1.839              2.127
 Vibration    13          0.652              1.796              1.885
 Vibration    14          0.660              1.770              1.761
 Vibration    15          0.673              1.732              1.609
 Vibration    16          0.680              1.712              1.539
 Vibration    17          0.689              1.684              1.447
 Vibration    18          0.703              1.642              1.328
 Vibration    19          0.740              1.541              1.094
 Vibration    20          0.749              1.516              1.045
 Vibration    21          0.769              1.463              0.950
 Vibration    22          0.776              1.443              0.917
 Vibration    23          0.780              1.434              0.904
 Vibration    24          0.789              1.410              0.867
 Vibration    25          0.813              1.351              0.782
 Vibration    26          0.839              1.288              0.702
 Vibration    27          0.888              1.177              0.580
 Vibration    28          0.909              1.132              0.537
 Vibration    29          0.966              1.016              0.437

 Optimization completed.
    -- Stationary point found.
 Normal termination of Gaussian 16 at Tue Mar  1 08:15:54 2022.

 ------------------------------------------
 #p b3lyp/6-31G(d) geom=allcheck guess=read
 ------------------------------------------

 Structure from the checkpoint file:  "251.n.pdb.xyz.mst.wat.chk"
 -------------
 251.n.pdb.xyz
 -------------
 Charge =  0 Multiplicity = 1

 SCF Done:  E(RB3LYP) =  -1069.81874326     A.U. after   12 cycles
 Normal termination of Gaussian 16 at Tue Mar  1 08:18:58 2022.
 Gaussian 16:  ES64L-G16RevA.03 25-Dec-2016

 ----------------------------------------------------------------------
 #p b3lyp/6-31G(d) scrf=(iefpcm,read,solvent=water) geom=allcheck guess
 =read
 ----------------------------------------------------------------------

 Structure from the checkpoint file:  "251.n.pdb.xyz.mst.wat.chk"
 -------------
 251.n.pdb.xyz
 -------------
 Charge =  0 Multiplicity = 1

                         Standard orientation:
 ---------------------------------------------------------------------
 Center     Atomic      Atomic             Coordinates (Angstroms)
 Number     Number       Type             X           Y           Z
 ---------------------------------------------------------------------
      1          6           0       -6.517684   -1.016979   -0.390924
      2          6           0       -5.487534   -0.067328    0.182867
      3          8           0       -4.178076   -0.626862   -0.093601
      4          6           0       -3.128709    0.089853    0.336241
      5          8           0       -3.237485    1.154976    0.931838
      6          6           0       -1.842961   -0.541113    0.012915
      7          6           0       -0.597016   -0.041564    0.338267
      8          6           0       -0.109142    1.187263    1.021883
      9          7           0        0.622997    2.047655    0.084296
     10          6           0        0.020331    3.330931   -0.264783
     11          6           0        1.835003    1.709883   -0.425255
     12          8           0        2.499372    2.484191   -1.125733
     13          6           0        2.412462    0.348302   -0.105221
     14          6           0        3.808409    0.324858    0.010226
     15          6           0        4.472331   -0.870559    0.212737
     16          9           0        5.815258   -0.858445    0.333090
     17          6           0        3.798673   -2.083132    0.290651
     18          6           0        2.414928   -2.074915    0.172631
     19          6           0        1.718040   -0.876973   -0.026320
     20          7           0        0.305118   -0.949917   -0.163056
     21          6           0       -0.427551   -1.951681   -0.762707
     22          7           0       -1.716701   -1.737582   -0.674594
     23          1           0       -6.440655   -2.004518    0.071207
     24          1           0       -7.519984   -0.624869   -0.199075
     25          1           0       -6.391861   -1.125552   -1.471440
     26          1           0       -5.593647    0.049100    1.263800
     27          1           0       -5.544332    0.924279   -0.272005
     28          1           0       -0.967171    1.741339    1.394045
     29          1           0        0.530356    0.930237    1.872507
     30          1           0        0.550954    3.742852   -1.120132
     31          1           0       -1.031891    3.180916   -0.516840
     32          1           0        0.086775    4.033261    0.572620
     33          1           0        4.361515    1.250195   -0.078575
     34          1           0        4.345014   -3.003563    0.451196
     35          1           0        1.861908   -3.002261    0.246154
     36          1           0        0.047827   -2.786016   -1.257082
 ---------------------------------------------------------------------

 SCF Done:  E(RB3LYP) =  -1069.83261007     A.U. after   11 cycles

 The electronic state is 1-A.
 Alpha  occ. eigenvalues --  -24.71762 -19.19419 -19.14036 -19.12376 -14.42083
 Alpha  occ. eigenvalues --  -14.38046 -14.33881 -10.32469 -10.30331 -10.28645
 Alpha  occ. eigenvalues --  -10.26288 -10.25917 -10.24600 -10.24229 -10.24159
 Alpha  occ. eigenvalues --  -10.23044 -10.22596 -10.21804 -10.21586 -10.21402
 Alpha  occ. eigenvalues --  -10.21167 -10.17986  -1.22957  -1.10527  -1.04958
 Alpha  occ. eigenvalues --   -1.04110  -1.01531  -0.94897  -0.92240  -0.87255
 Alpha  occ. eigenvalues --   -0.80354  -0.78722  -0.78000  -0.76058  -0.72833
 Alpha  occ. eigenvalues --   -0.71305  -0.67669  -0.65852  -0.64479  -0.61714
 Alpha  occ. eigenvalues --   -0.59400  -0.58386  -0.56947  -0.55534  -0.53849
 Alpha  occ. eigenvalues --   -0.51596  -0.50349  -0.50010  -0.49278  -0.48498
 Alpha  occ. eigenvalues --   -0.47827  -0.47328  -0.47084  -0.46037  -0.45575
 Alpha  occ. eigenvalues --   -0.44709  -0.43041  -0.42799  -0.42292  -0.41517
 Alpha  occ. eigenvalues --   -0.41140  -0.40341  -0.40056  -0.39466  -0.38993
 Alpha  occ. eigenvalues --   -0.38954  -0.37187  -0.36585  -0.36104  -0.35270
 Alpha  occ. eigenvalues --   -0.31455  -0.30424  -0.30109  -0.28498  -0.28149
 Alpha  occ. eigenvalues --   -0.26229  -0.25982  -0.25056  -0.24178
 Alpha virt. eigenvalues --   -0.05104  -0.03958  -0.01965   0.02001   0.04139
 Alpha virt. eigenvalues --    0.08794   0.10019   0.10723   0.11531   0.11982
 Alpha virt. eigenvalues --    0.12675   0.13239   0.14627   0.14824   0.15352

 Mulliken charges:
               1
     1  C   -0.468393
     2  C   -0.033772
     3  O   -0.476329
     4  C    0.620493
     5  O   -0.559087
     6  C    0.092684
     7  C    0.354963
     8  C   -0.267241
     9  N   -0.407796
    10  C   -0.327167
    11  C    0.569598
    12  O   -0.580431
    13  C    0.060222
    14  C   -0.256427
    15  C    0.396199
    16  F   -0.300589
    17  C   -0.203001
    18  C   -0.165043
    19  C    0.279716
    20  N   -0.560887
    21  C    0.217167
    22  N   -0.551637
    23  H    0.165012
    24  H    0.166192
    25  H    0.165026
    26  H    0.166762
    27  H    0.166874
    28  H    0.218776
    29  H    0.205503
    30  H    0.191028
    31  H    0.180067
    32  H    0.180785
    33  H    0.180848
    34  H    0.184944
    35  H    0.188891
    36  H    0.206049
 Sum of Mulliken charges =  -0.00000

 Dipole moment (field-independent basis, Debye):
    X=             -0.3217    Y=             -2.7167    Z=              2.5267  Tot=              3.7240
 Quadrupole moment (field-independent basis, Debye-Ang):
   XX=           -124.9589   YY=           -120.4076   ZZ=           -126.5936
   XY=            -16.3241   XZ=              5.8079   YZ=              2.8008

 Normal termination of Gaussian 16 at Tue Mar  1 08:22:25 2022.
