 Gaussian 16, Revision A.03,

 ----------------------------------------------------------------------
 #p b3lyp/6-31G(d) opt=(MaxStep=10,MaxCycles=1000) freq scf=(MaxCycle=2
 000,NoVarAcc,NoIncFock) scrf=(iefpcm,read,solvent=water)
 ----------------------------------------------------------------------

 -------------
 252.n.pdb.xyz
 -------------
 Symbolic Z-matrix:
 Charge =  0 Multiplicity = 1

 SCF Done:  E(RB3LYP) =  -641.073819628     A.U. after   13 cycles
 SCF Done:  E(RB3LYP) =  -641.076611575     A.U. after   11 cycles
 SCF Done:  E(RB3LYP) =  -641.075212870     A.U. after   11 cycles
 SCF Done:  E(RB3LYP) =  -641.077423168     A.U. after   10 cycles
 SCF Done:  E(RB3LYP) =  -641.077420822     A.U. after   10 cycles
 SCF Done:  E(RB3LYP) =  -641.077461251     A.U. after    9 cycles
 Optimization completed.
    -- Stationary point found.
 Normal termination of Gaussian 16 at Tue Mar  1 15:37:38 2022.

 --------------------------------------------------------------------
 #P Geom=AllCheck Guess=TCheck SCRF=Check GenChk RB3LYP/6-31G(d) Freq
 --------------------------------------------------------------------

 Structure from the checkpoint file:  "252.n.pdb.xyz.mst.wat.chk"
 -------------
 252.n.pdb.xyz
 -------------
 Charge =  0 Multiplicity = 1

 SCF Done:  E(RB3LYP) =  -641.077461251     A.U. after    1 cycles

  Exact polarizability: 178.460  -4.902 163.171  -0.010   0.009  65.081
 Approx polarizability: 195.772  -4.534 201.068  -0.010   0.007  75.461

 ******    1 imaginary frequencies (negative Signs) ******

                      1                      2                      3
                      A                      A                      A
 Frequencies --    -45.1524                96.1796               116.8779
 Red. masses --      1.0575                 4.3698                 2.0400
 Frc consts  --      0.0013                 0.0238                 0.0164
 IR Inten    --      1.0667                 0.3350                15.5266

                      4                      5                      6
                      A                      A                      A
 Frequencies --    126.2570               152.9814               185.7946
 Red. masses --      2.0407                 2.3082                 6.7560
 Frc consts  --      0.0192                 0.0318                 0.1374
 IR Inten    --      8.1224                 0.0300                 0.4277

                      7                      8                      9
                      A                      A                      A
 Frequencies --    275.4538               298.4317               337.2345
 Red. masses --      5.4033                 4.0725                 3.0277
 Frc consts  --      0.2415                 0.2137                 0.2029
 IR Inten    --      0.5064                 0.0097                 3.7096

                     10                     11                     12
                      A                      A                      A
 Frequencies --    347.1839               360.3104               432.9844
 Red. masses --      7.5611                 5.2587                 6.9641
 Frc consts  --      0.5370                 0.4022                 0.7692
 IR Inten    --      0.7405                18.2737                61.5037

                     13                     14                     15
                      A                      A                      A
 Frequencies --    451.1573               497.4507               561.3184
 Red. masses --      8.2881                 8.3309                 6.6547
 Frc consts  --      0.9939                 1.2146                 1.2354
 IR Inten    --      6.2950                15.7284                 1.3563

                     16                     17                     18
                      A                      A                      A
 Frequencies --    580.1823               665.7578               672.8166
 Red. masses --      1.4731                 2.4092                 7.1834
 Frc consts  --      0.2922                 0.6291                 1.9159
 IR Inten    --    197.1645                 1.5260                37.3025

                     19                     20                     21
                      A                      A                      A
 Frequencies --    686.5216               733.4633               758.6265
 Red. masses --      6.5586                11.2614                11.6487
 Frc consts  --      1.8213                 3.5694                 3.9499
 IR Inten    --     24.9805                39.8695                 6.4037

                     22                     23                     24
                      A                      A                      A
 Frequencies --    797.9203               831.1614               936.8883
 Red. masses --      4.7032                 1.4159                 5.5576
 Frc consts  --      1.7643                 0.5763                 2.8742
 IR Inten    --     10.2586                 9.0220                10.8580

                     25                     26                     27
                      A                      A                      A
 Frequencies --    976.4031              1001.1390              1065.8496
 Red. masses --      4.2442                 3.7901                 2.7491
 Frc consts  --      2.3840                 2.2381                 1.8401
 IR Inten    --     10.0723                45.0581               144.2314

                     28                     29                     30
                      A                      A                      A
 Frequencies --   1102.3450              1126.7984              1161.1178
 Red. masses --      2.2431                 2.6187                 1.2916
 Frc consts  --      1.6059                 1.9590                 1.0259
 IR Inten    --     19.6284                38.6772                 0.5669

                     31                     32                     33
                      A                      A                      A
 Frequencies --   1165.7182              1230.7617              1269.6643
 Red. masses --      1.2775                 2.0168                 2.9651
 Frc consts  --      1.0228                 1.8000                 2.8162
 IR Inten    --      0.3375                79.5963                95.0129

                     34                     35                     36
                      A                      A                      A
 Frequencies --   1295.5676              1334.3833              1343.9938
 Red. masses --      3.5013                 5.9458                 3.6107
 Frc consts  --      3.4626                 6.2376                 3.8427
 IR Inten    --      8.9703               201.5549                44.6518

                     37                     38                     39
                      A                      A                      A
 Frequencies --   1409.2244              1423.0243              1453.0540
 Red. masses --      2.9941                 2.2638                 1.3475
 Frc consts  --      3.5033                 2.7009                 1.6762
 IR Inten    --     81.2510                10.3032                23.6535

                     40                     41                     42
                      A                      A                      A
 Frequencies --   1468.0820              1505.6654              1510.5188
 Red. masses --      1.3415                 1.0475                 1.5736
 Frc consts  --      1.7035                 1.3991                 2.1154
 IR Inten    --     40.7094                12.8375                45.8632

                     43                     44                     45
                      A                      A                      A
 Frequencies --   1520.5915              1522.2189              1535.7032
 Red. masses --      1.1037                 1.0411                 1.9891
 Frc consts  --      1.5036                 1.4214                 2.7639
 IR Inten    --      7.2980                15.7770                75.8523

                     46                     47                     48
                      A                      A                      A
 Frequencies --   1587.2484              1664.9496              1707.6014
 Red. masses --      5.5315                 6.6208                11.4839
 Frc consts  --      8.2107                10.8134                19.7294
 IR Inten    --    347.7804               317.3891              1373.1778

                     49                     50                     51
                      A                      A                      A
 Frequencies --   1758.7861              3085.5479              3102.0713
 Red. masses --     11.1577                 1.0367                 1.0353
 Frc consts  --     20.3353                 5.8151                 5.8698
 IR Inten    --    770.0023                57.5100                42.1616

                     52                     53                     54
                      A                      A                      A
 Frequencies --   3151.6342              3166.2744              3228.9683
 Red. masses --      1.1075                 1.1063                 1.0993
 Frc consts  --      6.4813                 6.5343                 6.7528
 IR Inten    --     21.7039                24.9312                 1.0611

                     55                     56                     57
                      A                      A                      A
 Frequencies --   3234.2761              3303.3514              3619.9758
 Red. masses --      1.1014                 1.0978                 1.0833
 Frc consts  --      6.7883                 7.0582                 8.3642
 IR Inten    --      2.0625                 0.0624               281.7046

 - Thermochemistry -
 -------------------
 Temperature   298.150 Kelvin.  Pressure   1.00000 Atm.
 Atom     1 has atomic number  6 and mass  12.00000

 Molecular mass:   180.06473 amu.
 Principal axes and moments of inertia in atomic units:
                           1         2         3
     Eigenvalues --  1526.621212039.445173543.26340
           X            0.99481  -0.10176  -0.00000
           Y            0.10176   0.99481   0.00000
           Z            0.00000  -0.00000   1.00000
 This molecule is an asymmetric top.
 Rotational symmetry number  1.
 Warning -- assumption of classical behavior for rotation
           may cause significant error
 Rotational temperatures (Kelvin)      0.05674     0.04247     0.02444
 Rotational constants (GHZ):           1.18218     0.88492     0.50934
    1 imaginary frequencies ignored.
 Zero-point vibrational energy     424288.3 (Joules/Mol)
                                  101.40734 (Kcal/Mol)
 Warning -- explicit consideration of  15 degrees of freedom as
           vibrations may cause significant error
 Vibrational temperatures:    138.38   168.16   181.66   220.11   267.32
          (Kelvin)            396.32   429.38   485.21   499.52   518.41
                              622.97   649.11   715.72   807.61   834.75
                              957.88   968.03   987.75  1055.29  1091.49
                             1148.03  1195.86  1347.97  1404.83  1440.42
                             1533.52  1586.03  1621.21  1670.59  1677.21
                             1770.79  1826.76  1864.03  1919.88  1933.71
                             2027.56  2047.41  2090.62  2112.24  2166.32
                             2173.30  2187.79  2190.13  2209.53  2283.70
                             2395.49  2456.86  2530.50  4439.42  4463.19
                             4534.50  4555.56  4645.77  4653.40  4752.79
                             5208.34

 Zero-point correction=                           0.161603 (Hartree/Particle)
 Thermal correction to Energy=                    0.171936
 Thermal correction to Enthalpy=                  0.172880
 Thermal correction to Gibbs Free Energy=         0.125623
 Sum of electronic and zero-point Energies=           -640.915858
 Sum of electronic and thermal Energies=              -640.905525
 Sum of electronic and thermal Enthalpies=            -640.904581
 Sum of electronic and thermal Free Energies=         -640.951838

                     E (Thermal)             CV                S
                      KCal/Mol        Cal/Mol-Kelvin    Cal/Mol-Kelvin
 Total                  107.892             39.426             99.461
 Electronic               0.000              0.000              0.000
 Translational            0.889              2.981             41.471
 Rotational               0.889              2.981             30.779
 Vibrational            106.114             33.465             27.211
 Vibration     1          0.603              1.952              3.530
 Vibration     2          0.608              1.935              3.151
 Vibration     3          0.611              1.927              3.002
 Vibration     4          0.619              1.899              2.635
 Vibration     5          0.632              1.859              2.269
 Vibration     6          0.677              1.719              1.562
 Vibration     7          0.692              1.677              1.426
 Vibration     8          0.718              1.601              1.225
 Vibration     9          0.725              1.581              1.179
 Vibration    10          0.735              1.554              1.121
 Vibration    11          0.794              1.398              0.849
 Vibration    12          0.810              1.358              0.792
 Vibration    13          0.853              1.256              0.665
 Vibration    14          0.917              1.115              0.521
 Vibration    15          0.937              1.074              0.485

                           ! Non-Optimized Parameters !
 Normal termination of Gaussian 16 at Tue Mar  1 15:49:36 2022.

 ------------------------------------------
 #p b3lyp/6-31G(d) geom=allcheck guess=read
 ------------------------------------------

 Structure from the checkpoint file:  "252.n.pdb.xyz.mst.wat.chk"
 -------------
 252.n.pdb.xyz
 -------------
 Charge =  0 Multiplicity = 1

 SCF Done:  E(RB3LYP) =  -641.046891492     A.U. after   13 cycles
 Normal termination of Gaussian 16 at Tue Mar  1 15:51:01 2022.
 Gaussian 16:  ES64L-G16RevA.03 25-Dec-2016

 ----------------------------------------------------------------------
 #p b3lyp/6-31G(d) scrf=(iefpcm,read,solvent=water) geom=allcheck guess
 =read
 ----------------------------------------------------------------------

 Structure from the checkpoint file:  "252.n.pdb.xyz.mst.wat.chk"
 -------------
 252.n.pdb.xyz
 -------------
 Charge =  0 Multiplicity = 1

                         Standard orientation:
 ---------------------------------------------------------------------
 Center     Atomic      Atomic             Coordinates (Angstroms)
 Number     Number       Type             X           Y           Z
 ---------------------------------------------------------------------
      1          6           0       -0.326630    2.797497    0.000118
      2          7           0       -0.046757    1.361552   -0.000179
      3          6           0       -1.052713    0.437960   -0.000102
      4          6           0       -0.867363   -0.931434   -0.000107
      5          7           0       -2.091270   -1.580013    0.000066
      6          6           0       -2.975661   -0.611905    0.000217
      7          7           0       -2.397165    0.641354   -0.000174
      8          6           0        0.460515   -1.474286   -0.000081
      9          8           0        0.776456   -2.664294    0.000084
     10          7           0        1.462705   -0.473065   -0.000094
     11          6           0        2.845852   -0.961263    0.000066
     12          6           0        1.272292    0.913759   -0.000171
     13          8           0        2.213192    1.704274    0.000154
     14          1           0       -0.892703    3.070641    0.894255
     15          1           0       -0.894472    3.069780   -0.892111
     16          1           0        0.629020    3.313163   -0.001430
     17          1           0       -4.048596   -0.729429    0.000339
     18          1           0       -2.889447    1.528609   -0.000251
     19          1           0        3.021635   -1.571919    0.886771
     20          1           0        3.505186   -0.099526    0.000141
     21          1           0        3.021855   -1.571921   -0.886583
 ---------------------------------------------------------------------

 SCF Done:  E(RB3LYP) =  -641.075373046     A.U. after   12 cycles

 The electronic state is 1-A.
 Alpha  occ. eigenvalues --  -19.13180 -19.12656 -14.40888 -14.40691 -14.39273
 Alpha  occ. eigenvalues --  -14.33750 -10.33894 -10.30315 -10.28252 -10.25833
 Alpha  occ. eigenvalues --  -10.22785 -10.21513 -10.21379  -1.07807  -1.04271
 Alpha  occ. eigenvalues --   -1.03726  -0.97343  -0.93674  -0.89011  -0.78568
 Alpha  occ. eigenvalues --   -0.73736  -0.71629  -0.65524  -0.64394  -0.62687
 Alpha  occ. eigenvalues --   -0.60133  -0.53101  -0.51547  -0.50474  -0.48372
 Alpha  occ. eigenvalues --   -0.46003  -0.45956  -0.45062  -0.44438  -0.44252
 Alpha  occ. eigenvalues --   -0.42062  -0.40777  -0.40122  -0.39449  -0.38697
 Alpha  occ. eigenvalues --   -0.32597  -0.30259  -0.29485  -0.29337  -0.27275
 Alpha  occ. eigenvalues --   -0.26642  -0.22063
 Alpha virt. eigenvalues --   -0.01914   0.00743   0.03672   0.08847   0.12020
 Alpha virt. eigenvalues --    0.12710   0.13112   0.13514   0.14491   0.16101
 Alpha virt. eigenvalues --    0.16386   0.17577   0.18561   0.19126   0.19382

 Mulliken charges:
               1
     1  C   -0.347707
     2  N   -0.580485
     3  C    0.642728
     4  C    0.104833
     5  N   -0.561020
     6  C    0.226088
     7  N   -0.644153
     8  C    0.623233
     9  O   -0.590493
    10  N   -0.561638
    11  C   -0.315432
    12  C    0.806909
    13  O   -0.576709
    14  H    0.196205
    15  H    0.196354
    16  H    0.210561
    17  H    0.200431
    18  H    0.414584
    19  H    0.181263
    20  H    0.193199
    21  H    0.181248
 Sum of Mulliken charges =  -0.00000

 Dipole moment (field-independent basis, Debye):
    X=             -5.7897    Y=              8.5878    Z=             -0.0015  Tot=             10.3572
 Quadrupole moment (field-independent basis, Debye-Ang):
   XX=            -60.6611   YY=            -85.9968   ZZ=            -73.0197
   XY=            -17.4405   XZ=             -0.0016   YZ=             -0.0016

 Normal termination of Gaussian 16 at Tue Mar  1 15:52:32 2022.
