 Gaussian 16, Revision A.03,

 ----------------------------------------------------------------------
 #p b3lyp/6-31G(d) opt=(MaxStep=10,MaxCycles=1000) freq scf=(MaxCycle=2
 000,NoVarAcc,NoIncFock) scrf=(iefpcm,read,solvent=water)
 ----------------------------------------------------------------------

 -------------
 253.n.pdb.xyz
 -------------
 Symbolic Z-matrix:
 Charge =  0 Multiplicity = 1

 SCF Done:  E(RB3LYP) =  -1541.80236761     A.U. after   14 cycles
 SCF Done:  E(RB3LYP) =  -1541.80881551     A.U. after   11 cycles
 SCF Done:  E(RB3LYP) =  -1541.81182475     A.U. after   11 cycles
 SCF Done:  E(RB3LYP) =  -1541.81559393     A.U. after   11 cycles
 SCF Done:  E(RB3LYP) =  -1541.81725861     A.U. after   11 cycles
 SCF Done:  E(RB3LYP) =  -1541.81803207     A.U. after   11 cycles
 SCF Done:  E(RB3LYP) =  -1541.81930673     A.U. after   11 cycles
 SCF Done:  E(RB3LYP) =  -1541.82343263     A.U. after   12 cycles
 SCF Done:  E(RB3LYP) =  -1541.76975124     A.U. after   12 cycles
 SCF Done:  E(RB3LYP) =  -1541.82800241     A.U. after   12 cycles
 SCF Done:  E(RB3LYP) =  -1541.84791208     A.U. after    8 cycles
 SCF Done:  E(RB3LYP) =  -1541.84790895     A.U. after    8 cycles
 SCF Done:  E(RB3LYP) =  -1541.84790338     A.U. after    8 cycles
 SCF Done:  E(RB3LYP) =  -1541.84791043     A.U. after    9 cycles
 SCF Done:  E(RB3LYP) =  -1541.84791041     A.U. after    7 cycles
 SCF Done:  E(RB3LYP) =  -1541.84791048     A.U. after    7 cycles
 SCF Done:  E(RB3LYP) =  -1541.84791047     A.U. after    6 cycles
 Optimization completed.
    -- Stationary point found.
 Normal termination of Gaussian 16 at Tue Mar  1 21:11:27 2022.

 --------------------------------------------------------------------
 #P Geom=AllCheck Guess=TCheck SCRF=Check GenChk RB3LYP/6-31G(d) Freq
 --------------------------------------------------------------------

 Structure from the checkpoint file:  "253.n.pdb.xyz.mst.wat.chk"
 -------------
 253.n.pdb.xyz
 -------------
 Charge =  0 Multiplicity = 1

 SCF Done:  E(RB3LYP) =  -1541.84791047     A.U. after    1 cycles

  Exact polarizability: 425.870 -11.160 307.773  12.733  16.457 181.338
 Approx polarizability: 437.352  -3.818 360.049  10.076  27.191 220.425

                      1                      2                      3
                      A                      A                      A
 Frequencies --     22.3830                32.0837                39.4950
 Red. masses --      5.4623                 2.9890                 5.8621
 Frc consts  --      0.0016                 0.0018                 0.0054
 IR Inten    --      0.9823                 0.3972                 2.4298

                      4                      5                      6
                      A                      A                      A
 Frequencies --     45.1093                59.5049                81.9946
 Red. masses --      7.0414                 6.0989                 3.0527
 Frc consts  --      0.0084                 0.0127                 0.0121
 IR Inten    --      1.3408                 4.4253                 2.1695

                      7                      8                      9
                      A                      A                      A
 Frequencies --     90.1978                95.9473               113.0393
 Red. masses --      4.7987                 1.3068                 4.3774
 Frc consts  --      0.0230                 0.0071                 0.0330
 IR Inten    --      3.6314                 0.3997                 0.5433

                     10                     11                     12
                      A                      A                      A
 Frequencies --    146.4231               173.3988               184.1169
 Red. masses --      4.4338                 5.6949                 5.4260
 Frc consts  --      0.0560                 0.1009                 0.1084
 IR Inten    --      3.0092                 3.4766                 1.2342

                     13                     14                     15
                      A                      A                      A
 Frequencies --    196.8577               203.2750               208.6409
 Red. masses --      4.8261                 4.7818                 3.8614
 Frc consts  --      0.1102                 0.1164                 0.0990
 IR Inten    --      1.6930                 4.6971                 3.4906

                     16                     17                     18
                      A                      A                      A
 Frequencies --    232.7622               239.6436               261.7781
 Red. masses --      1.1561                 3.5342                 1.2129
 Frc consts  --      0.0369                 0.1196                 0.0490
 IR Inten    --      0.2649                 2.6083                 0.6501

                     19                     20                     21
                      A                      A                      A
 Frequencies --    282.9710               310.1963               329.8215
 Red. masses --      4.8667                 3.6920                 4.7786
 Frc consts  --      0.2296                 0.2093                 0.3063
 IR Inten    --      4.2763                 2.0592                 4.2282

                     22                     23                     24
                      A                      A                      A
 Frequencies --    341.4690               359.8365               377.8895
 Red. masses --      4.4093                 3.7615                 3.8106
 Frc consts  --      0.3029                 0.2870                 0.3206
 IR Inten    --      1.6675                 2.0122                 4.3758

                     25                     26                     27
                      A                      A                      A
 Frequencies --    398.4210               413.4455               434.5045
 Red. masses --      5.0532                 6.1438                 5.5833
 Frc consts  --      0.4726                 0.6188                 0.6211
 IR Inten    --     23.1128                10.4479                 0.5440

                     28                     29                     30
                      A                      A                      A
 Frequencies --    444.8840               462.6854               478.4033
 Red. masses --      5.9003                 7.0381                 5.9920
 Frc consts  --      0.6880                 0.8877                 0.8080
 IR Inten    --     10.4553                 2.7900                 1.8855

                     31                     32                     33
                      A                      A                      A
 Frequencies --    501.7422               558.9155               574.4471
 Red. masses --      4.1469                 4.6012                 4.9345
 Frc consts  --      0.6151                 0.8469                 0.9594
 IR Inten    --      2.3027                 0.8536                 9.0243

                     34                     35                     36
                      A                      A                      A
 Frequencies --    612.1611               656.7650               666.5418
 Red. masses --      5.0374                 3.2348                 4.0154
 Frc consts  --      1.1122                 0.8221                 1.0511
 IR Inten    --      1.8270                 1.4709                14.9907

                     37                     38                     39
                      A                      A                      A
 Frequencies --    674.2547               690.5387               711.3132
 Red. masses --      5.9846                 7.1587                 4.9623
 Frc consts  --      1.6030                 2.0112                 1.4793
 IR Inten    --     13.5820                16.4744                31.3167

                     40                     41                     42
                      A                      A                      A
 Frequencies --    745.6316               751.5824               779.9287
 Red. masses --      6.8948                 7.3479                 2.5514
 Frc consts  --      2.2585                 2.4455                 0.9144
 IR Inten    --      5.7285                16.0859                42.8841

                     43                     44                     45
                      A                      A                      A
 Frequencies --    786.4725               799.5002               807.0382
 Red. masses --      5.4674                 7.7395                 5.5400
 Frc consts  --      1.9925                 2.9147                 2.1259
 IR Inten    --     10.6823                90.2807                23.6616

                     46                     47                     48
                      A                      A                      A
 Frequencies --    811.2979               831.5637               893.6730
 Red. masses --      2.2509                 1.7297                 2.6124
 Frc consts  --      0.8729                 0.7047                 1.2292
 IR Inten    --     49.3396                12.3528                 2.1006

                     49                     50                     51
                      A                      A                      A
 Frequencies --    919.1762               924.7124               934.3870
 Red. masses --      1.3934                 3.4465                 8.8193
 Frc consts  --      0.6936                 1.7364                 4.5367
 IR Inten    --      0.6016                 4.2153               108.8242

                     52                     53                     54
                      A                      A                      A
 Frequencies --    951.4591               952.5024               981.5775
 Red. masses --      1.1596                 4.1136                 1.5489
 Frc consts  --      0.6185                 2.1989                 0.8793
 IR Inten    --      3.0196                27.7875                 0.2494

                     55                     56                     57
                      A                      A                      A
 Frequencies --    984.3230               996.1332              1021.4496
 Red. masses --      4.5728                 1.3002                 6.0656
 Frc consts  --      2.6104                 0.7601                 3.7287
 IR Inten    --     34.3037                 1.0194                20.7894

                     58                     59                     60
                      A                      A                      A
 Frequencies --   1031.0065              1073.1075              1077.4400
 Red. masses --      6.5760                 2.9966                 1.6227
 Frc consts  --      4.1184                 2.0331                 1.1099
 IR Inten    --     28.5308                75.2346                77.7530

                     61                     62                     63
                      A                      A                      A
 Frequencies --   1093.0059              1109.5323              1129.9593
 Red. masses --      3.3151                 1.7705                 2.2942
 Frc consts  --      2.3334                 1.2842                 1.7259
 IR Inten    --     55.0793                20.9807                 0.9773

                     64                     65                     66
                      A                      A                      A
 Frequencies --   1155.6440              1160.6683              1179.1793
 Red. masses --      1.7591                 1.8950                 1.4266
 Frc consts  --      1.3842                 1.5041                 1.1687
 IR Inten    --     21.8723                 1.7039                10.4979

                     67                     68                     69
                      A                      A                      A
 Frequencies --   1202.2403              1208.7301              1228.5010
 Red. masses --      1.8942                 1.6594                 2.6396
 Frc consts  --      1.6131                 1.4284                 2.3471
 IR Inten    --      0.2672                56.9679                40.5669

                     70                     71                     72
                      A                      A                      A
 Frequencies --   1242.9656              1260.6730              1294.7640
 Red. masses --      3.0352                 2.3204                 3.3247
 Frc consts  --      2.7629                 2.1728                 3.2838
 IR Inten    --     70.0370                72.9192               109.7355

                     73                     74                     75
                      A                      A                      A
 Frequencies --   1309.0272              1314.6551              1325.5214
 Red. masses --      2.8730                 4.0030                 6.8136
 Frc consts  --      2.9006                 4.0762                 7.0534
 IR Inten    --     65.7290                40.6757                 0.7031

                     76                     77                     78
                      A                      A                      A
 Frequencies --   1344.8222              1348.1726              1358.3757
 Red. masses --      1.3479                 2.7714                 1.9258
 Frc consts  --      1.4362                 2.9679                 2.0936
 IR Inten    --      0.7568                 2.7409               100.7234

                     79                     80                     81
                      A                      A                      A
 Frequencies --   1378.9965              1408.8791              1424.1444
 Red. masses --      1.4260                 6.3086                 1.2161
 Frc consts  --      1.5978                 7.3779                 1.4532
 IR Inten    --      8.9868               313.0188                 3.2256

                     82                     83                     84
                      A                      A                      A
 Frequencies --   1429.9808              1440.6419              1445.5356
 Red. masses --      4.5775                 1.5409                 1.3056
 Frc consts  --      5.5149                 1.8843                 1.6074
 IR Inten    --      7.5787                69.7988                 4.5050

                     85                     86                     87
                      A                      A                      A
 Frequencies --   1464.5679              1483.3183              1494.3073
 Red. masses --      1.5948                 2.7563                 2.4330
 Frc consts  --      2.0155                 3.5731                 3.2009
 IR Inten    --     74.0627                40.6883               114.2439

                     88                     89                     90
                      A                      A                      A
 Frequencies --   1498.2687              1510.7295              1513.2913
 Red. masses --      1.2904                 1.0435                 1.1236
 Frc consts  --      1.7067                 1.4032                 1.5161
 IR Inten    --     71.3890                 0.8883                 5.3613

                     91                     92                     93
                      A                      A                      A
 Frequencies --   1513.4984              1519.7062              1521.7885
 Red. masses --      1.1591                 1.9155                 1.1475
 Frc consts  --      1.5643                 2.6065                 1.5656
 IR Inten    --      8.7118               136.2327                23.1630

                     94                     95                     96
                      A                      A                      A
 Frequencies --   1528.9367              1535.9197              1565.8704
 Red. masses --      1.1365                 1.3533                 7.0247
 Frc consts  --      1.5653                 1.8809                10.1482
 IR Inten    --     46.6531               125.6385                30.2338

                     97                     98                     99
                      A                      A                      A
 Frequencies --   1614.9765              1619.9007              1640.5702
 Red. masses --      8.6428                 6.6243                 7.5780
 Frc consts  --     13.2812                10.2416                12.0170
 IR Inten    --    448.0633                41.9129                95.9839

                    100                    101                    102
                      A                      A                      A
 Frequencies --   1652.8691              1714.0189              3066.9391
 Red. masses --      8.9808                10.4189                 1.0431
 Frc consts  --     14.4558                18.0345                 5.7807
 IR Inten    --     28.0291               698.6605                56.1335

                    103                    104                    105
                      A                      A                      A
 Frequencies --   3072.2728              3075.6484              3089.9350
 Red. masses --      1.0343                 1.0351                 1.0693
 Frc consts  --      5.7517                 5.7691                 6.0154
 IR Inten    --     36.2801                27.6946                19.7388

                    106                    107                    108
                      A                      A                      A
 Frequencies --   3103.2072              3141.1495              3145.2049
 Red. masses --      1.0853                 1.0973                 1.1039
 Frc consts  --      6.1579                 6.3788                 6.4341
 IR Inten    --      6.6775                32.3719                11.6806

                    109                    110                    111
                      A                      A                      A
 Frequencies --   3147.6320              3150.7456              3151.0963
 Red. masses --      1.1035                 1.1028                 1.1033
 Frc consts  --      6.4416                 6.4504                 6.4546
 IR Inten    --     32.1085                60.4554                56.3026

                    112                    113                    114
                      A                      A                      A
 Frequencies --   3187.6136              3207.5773              3233.0526
 Red. masses --      1.0970                 1.1010                 1.0880
 Frc consts  --      6.5672                 6.6738                 6.7005
 IR Inten    --      0.5223                 3.8142                 5.4313

                    115                    116                    117
                      A                      A                      A
 Frequencies --   3245.1190              3252.5709              3301.9620
 Red. masses --      1.0927                 1.0966                 1.0978
 Frc consts  --      6.7794                 6.8355                 7.0523
 IR Inten    --      5.5549                 7.4928                 0.1003

 - Thermochemistry -
 -------------------
 Temperature   298.150 Kelvin.  Pressure   1.00000 Atm.
 Atom     1 has atomic number  6 and mass  12.00000

 Molecular mass:   357.09925 amu.
 Principal axes and moments of inertia in atomic units:
                           1         2         3
     Eigenvalues --  3286.98642********************
           X            0.99994  -0.01065  -0.00017
           Y            0.01065   0.99988  -0.01136
           Z            0.00029   0.01136   0.99994
 This molecule is an asymmetric top.
 Rotational symmetry number  1.
 Warning -- assumption of classical behavior for rotation
           may cause significant error
 Rotational temperatures (Kelvin)      0.02635     0.00457     0.00411
 Rotational constants (GHZ):           0.54906     0.09519     0.08564
 Zero-point vibrational energy     834519.1 (Joules/Mol)
                                  199.45486 (Kcal/Mol)
 Warning -- explicit consideration of  34 degrees of freedom as
           vibrations may cause significant error
 Vibrational temperatures:     32.20    46.16    56.82    64.90    85.61
          (Kelvin)            117.97   129.77   138.05   162.64   210.67
                              249.48   264.90   283.23   292.47   300.19
                              334.89   344.79   376.64   407.13   446.30
                              474.54   491.30   517.72   543.70   573.24
                              594.86   625.16   640.09   665.70   688.32
                              721.90   804.15   826.50   880.76   944.94
                              959.00   970.10   993.53  1023.42  1072.80
                             1081.36  1122.14  1131.56  1150.30  1161.15
                             1167.28  1196.43  1285.80  1322.49  1330.45
                             1344.37  1368.94  1370.44  1412.27  1416.22
                             1433.21  1469.64  1483.39  1543.96  1550.20
                             1572.59  1596.37  1625.76  1662.71  1669.94
                             1696.58  1729.76  1739.09  1767.54  1788.35
                             1813.83  1862.88  1883.40  1891.50  1907.13
                             1934.90  1939.72  1954.40  1984.07  2027.06
                             2049.03  2057.42  2072.76  2079.80  2107.19
                             2134.16  2149.97  2155.67  2173.60  2177.29
                             2177.59  2186.52  2189.51  2199.80  2209.85
                             2252.94  2323.59  2330.68  2360.41  2378.11
                             2466.09  4412.64  4420.32  4425.17  4445.73
                             4464.82  4519.41  4525.25  4528.74  4533.22
                             4533.72  4586.27  4614.99  4651.64  4669.00
                             4679.72  4750.79

 Zero-point correction=                           0.317852 (Hartree/Particle)
 Thermal correction to Energy=                    0.339778
 Thermal correction to Enthalpy=                  0.340723
 Thermal correction to Gibbs Free Energy=         0.264923
 Sum of electronic and zero-point Energies=          -1541.530059
 Sum of electronic and thermal Energies=             -1541.508132
 Sum of electronic and thermal Enthalpies=           -1541.507188
 Sum of electronic and thermal Free Energies=        -1541.582987

                     E (Thermal)             CV                S
                      KCal/Mol        Cal/Mol-Kelvin    Cal/Mol-Kelvin
 Total                  213.214             82.560            159.533
 Electronic               0.000              0.000              0.000
 Translational            0.889              2.981             43.512
 Rotational               0.889              2.981             35.528
 Vibrational            211.437             76.599             80.493
 Vibration     1          0.593              1.985              6.411
 Vibration     2          0.594              1.983              5.696
 Vibration     3          0.594              1.981              5.284
 Vibration     4          0.595              1.979              5.021
 Vibration     5          0.597              1.974              4.474
 Vibration     6          0.600              1.961              3.843
 Vibration     7          0.602              1.956              3.656
 Vibration     8          0.603              1.952              3.535
 Vibration     9          0.607              1.939              3.216
 Vibration    10          0.617              1.907              2.718
 Vibration    11          0.627              1.875              2.398
 Vibration    12          0.631              1.861              2.286
 Vibration    13          0.636              1.844              2.162
 Vibration    14          0.639              1.835              2.103
 Vibration    15          0.642              1.828              2.056
 Vibration    16          0.654              1.791              1.858
 Vibration    17          0.657              1.780              1.806
 Vibration    18          0.669              1.743              1.650
 Vibration    19          0.682              1.705              1.516
 Vibration    20          0.699              1.654              1.361
 Vibration    21          0.713              1.616              1.261
 Vibration    22          0.721              1.593              1.205
 Vibration    23          0.734              1.555              1.123
 Vibration    24          0.748              1.517              1.048
 Vibration    25          0.765              1.474              0.968
 Vibration    26          0.777              1.441              0.915
 Vibration    27          0.795              1.395              0.844
 Vibration    28          0.804              1.372              0.811
 Vibration    29          0.820              1.333              0.758
 Vibration    30          0.835              1.298              0.714
 Vibration    31          0.857              1.246              0.654
 Vibration    32          0.914              1.120              0.526
 Vibration    33          0.931              1.087              0.496
 Vibration    34          0.971              1.006              0.429

                           ! Non-Optimized Parameters !
 Normal termination of Gaussian 16 at Tue Mar  1 22:29:32 2022.

 ------------------------------------------
 #p b3lyp/6-31G(d) geom=allcheck guess=read
 ------------------------------------------

 Structure from the checkpoint file:  "253.n.pdb.xyz.mst.wat.chk"
 -------------
 253.n.pdb.xyz
 -------------
 Charge =  0 Multiplicity = 1

 SCF Done:  E(RB3LYP) =  -1541.82854136     A.U. after   12 cycles
 Normal termination of Gaussian 16 at Tue Mar  1 22:34:35 2022.
 Gaussian 16:  ES64L-G16RevA.03 25-Dec-2016

 ----------------------------------------------------------------------
 #p b3lyp/6-31G(d) scrf=(iefpcm,read,solvent=water) geom=allcheck guess
 =read
 ----------------------------------------------------------------------

 Structure from the checkpoint file:  "253.n.pdb.xyz.mst.wat.chk"
 -------------
 253.n.pdb.xyz
 -------------
 Charge =  0 Multiplicity = 1

                         Standard orientation:
 ---------------------------------------------------------------------
 Center     Atomic      Atomic             Coordinates (Angstroms)
 Number     Number       Type             X           Y           Z
 ---------------------------------------------------------------------
      1          6           0        6.657362   -1.044706    0.832163
      2          6           0        6.101697    0.210966    0.137408
      3          6           0        6.795401    0.468071   -1.212548
      4          6           0        4.618247    0.116721   -0.035206
      5          7           0        3.691683    0.897123    0.446088
      6          6           0        2.530175    0.331072   -0.041182
      7          7           0        2.721007   -0.739131   -0.783899
      8          8           0        4.121247   -0.886208   -0.779859
      9          6           0        1.210833    0.877340    0.239621
     10          6           0       -0.017600    0.403131   -0.171981
     11          6           0       -0.490606   -0.787608   -0.933703
     12          7           0       -1.241474   -1.691060   -0.051563
     13          6           0       -0.547804   -2.869318    0.459968
     14          6           0       -2.397192   -1.291420    0.540183
     15          8           0       -2.954633   -1.935715    1.431549
     16          6           0       -3.020360    0.005703    0.065073
     17          6           0       -2.342203    1.242499    0.099907
     18          6           0       -3.006271    2.447403   -0.142993
     19          6           0       -4.363519    2.440614   -0.439046
     20          6           0       -5.055106    1.234408   -0.529306
     21          6           0       -4.383020    0.043052   -0.276087
     22         17           0       -5.303726   -1.443778   -0.449907
     23          7           0       -0.943906    1.284034    0.355445
     24          6           0       -0.238129    2.239824    1.047579
     25          7           0        1.054359    2.024191    0.999978
     26          1           0        6.503541   -1.935361    0.216497
     27          1           0        6.179666   -1.209141    1.801670
     28          1           0        7.731183   -0.924697    0.995814
     29          1           0        6.261817    1.075517    0.786546
     30          1           0        7.868904    0.596695   -1.051425
     31          1           0        6.410873    1.371384   -1.692668
     32          1           0        6.651180   -0.373833   -1.895878
     33          1           0       -1.125400   -0.485816   -1.772192
     34          1           0        0.362381   -1.332050   -1.333446
     35          1           0       -1.265850   -3.481356    1.000918
     36          1           0       -0.133007   -3.434226   -0.376978
     37          1           0        0.265310   -2.585994    1.137211
     38          1           0       -2.450745    3.376732   -0.125122
     39          1           0       -4.879592    3.373453   -0.631610
     40          1           0       -6.103239    1.211262   -0.798541
     41          1           0       -0.729719    3.044431    1.572658
 ---------------------------------------------------------------------

 SCF Done:  E(RB3LYP) =  -1541.84563058     A.U. after   11 cycles

 The electronic state is 1-A.
 Alpha  occ. eigenvalues -- -101.55840 -19.25282 -19.12803 -14.42112 -14.39378
 Alpha  occ. eigenvalues --  -14.38187 -14.34715 -14.33930 -10.30670 -10.29928
 Alpha  occ. eigenvalues --  -10.27237 -10.27179 -10.26817 -10.25979 -10.24510
 Alpha  occ. eigenvalues --  -10.24480 -10.23513 -10.23319 -10.21668 -10.21654
 Alpha  occ. eigenvalues --  -10.21553 -10.21471 -10.21441 -10.18419 -10.18401
 Alpha  occ. eigenvalues --   -9.47466  -7.23874  -7.22903  -7.22840  -1.16901
 Alpha  occ. eigenvalues --   -1.05270  -1.04355  -0.95304  -0.94740  -0.92436
 Alpha  occ. eigenvalues --   -0.89806  -0.88647  -0.84663  -0.80698  -0.79430
 Alpha  occ. eigenvalues --   -0.78659  -0.75282  -0.73103  -0.71132  -0.69315
 Alpha  occ. eigenvalues --   -0.67814  -0.66309  -0.65317  -0.63405  -0.60654
 Alpha  occ. eigenvalues --   -0.58832  -0.57820  -0.56729  -0.54065  -0.53126
 Alpha  occ. eigenvalues --   -0.50932  -0.50171  -0.49832  -0.49151  -0.48795
 Alpha  occ. eigenvalues --   -0.47665  -0.46608  -0.46313  -0.45235  -0.44946
 Alpha  occ. eigenvalues --   -0.44292  -0.42763  -0.42154  -0.42064  -0.41862
 Alpha  occ. eigenvalues --   -0.41427  -0.40724  -0.39623  -0.39264  -0.39184
 Alpha  occ. eigenvalues --   -0.38570  -0.37827  -0.37013  -0.36151  -0.35555
 Alpha  occ. eigenvalues --   -0.35523  -0.34401  -0.34036  -0.32353  -0.31329
 Alpha  occ. eigenvalues --   -0.30991  -0.29727  -0.29513  -0.28062  -0.26094
 Alpha  occ. eigenvalues --   -0.25972  -0.25327  -0.23611
 Alpha virt. eigenvalues --   -0.05088  -0.04487  -0.02973   0.00572   0.01327
 Alpha virt. eigenvalues --    0.02087   0.02655   0.06773   0.10216   0.10457
 Alpha virt. eigenvalues --    0.10895   0.11777   0.12061   0.13221   0.13839

 Mulliken charges:
               1
     1  C   -0.456869
     2  C   -0.169218
     3  C   -0.456499
     4  C    0.611680
     5  N   -0.560419
     6  C    0.428087
     7  N   -0.284385
     8  O   -0.377316
     9  C    0.115066
    10  C    0.337813
    11  C   -0.262680
    12  N   -0.393973
    13  C   -0.326883
    14  C    0.542721
    15  O   -0.561172
    16  C    0.053441
    17  C    0.294576
    18  C   -0.152914
    19  C   -0.140185
    20  C   -0.126707
    21  C   -0.133283
    22  Cl  -0.007431
    23  N   -0.561900
    24  C    0.224958
    25  N   -0.555571
    26  H    0.165027
    27  H    0.166342
    28  H    0.167656
    29  H    0.179356
    30  H    0.167916
    31  H    0.166441
    32  H    0.164876
    33  H    0.210182
    34  H    0.217925
    35  H    0.193125
    36  H    0.182755
    37  H    0.178887
    38  H    0.185467
    39  H    0.181575
    40  H    0.184092
    41  H    0.207438
 Sum of Mulliken charges =  -0.00000

 Dipole moment (field-independent basis, Debye):
    X=              1.0568    Y=              3.1878    Z=             -3.4986  Tot=              4.8497
 Quadrupole moment (field-independent basis, Debye-Ang):
   XX=           -127.0743   YY=           -144.0814   ZZ=           -154.7798
   XY=            -29.2419   XZ=              8.2097   YZ=             -0.3143

 Normal termination of Gaussian 16 at Tue Mar  1 22:40:24 2022.
