 Gaussian 16, Revision A.03,

 ----------------------------------------------------------------------
 #p b3lyp/6-31G(d) opt=(MaxStep=10,MaxCycles=1000) freq scf=(MaxCycle=2
 000,NoVarAcc,NoIncFock) scrf=(iefpcm,read,solvent=water)
 ----------------------------------------------------------------------

 -------------
 254.n.pdb.xyz
 -------------
 Symbolic Z-matrix:
 Charge =  0 Multiplicity = 1

 SCF Done:  E(RB3LYP) =  -1493.24236100     A.U. after   13 cycles
 SCF Done:  E(RB3LYP) =  -1493.24690360     A.U. after   10 cycles
 SCF Done:  E(RB3LYP) =  -1493.24934556     A.U. after   12 cycles
 SCF Done:  E(RB3LYP) =  -1493.24997599     A.U. after   10 cycles
 SCF Done:  E(RB3LYP) =  -1493.25028817     A.U. after   10 cycles
 SCF Done:  E(RB3LYP) =  -1493.25048580     A.U. after   11 cycles
 SCF Done:  E(RB3LYP) =  -1493.25057049     A.U. after   10 cycles
 SCF Done:  E(RB3LYP) =  -1493.25052948     A.U. after   10 cycles
 SCF Done:  E(RB3LYP) =  -1493.25075977     A.U. after    9 cycles
 SCF Done:  E(RB3LYP) =  -1493.25141173     A.U. after   10 cycles
 SCF Done:  E(RB3LYP) =  -1493.25175171     A.U. after   10 cycles
 SCF Done:  E(RB3LYP) =  -1493.25175196     A.U. after    9 cycles
 SCF Done:  E(RB3LYP) =  -1493.25176136     A.U. after    8 cycles
 SCF Done:  E(RB3LYP) =  -1493.25176167     A.U. after    8 cycles
 SCF Done:  E(RB3LYP) =  -1493.25176778     A.U. after    8 cycles
 SCF Done:  E(RB3LYP) =  -1493.25176985     A.U. after    7 cycles
 SCF Done:  E(RB3LYP) =  -1493.25176965     A.U. after    6 cycles
 Optimization completed.
    -- Stationary point found.
 Normal termination of Gaussian 16 at Tue Mar  1 21:48:17 2022.

 --------------------------------------------------------------------
 #P Geom=AllCheck Guess=TCheck SCRF=Check GenChk RB3LYP/6-31G(d) Freq
 --------------------------------------------------------------------

 Structure from the checkpoint file:  "254.n.pdb.xyz.mst.wat.chk"
 -------------
 254.n.pdb.xyz
 -------------
 Charge =  0 Multiplicity = 1

 SCF Done:  E(RB3LYP) =  -1493.25176965     A.U. after    1 cycles

  Exact polarizability: 352.247  20.336 333.274 -10.082  30.120 218.385
 Approx polarizability: 384.747  21.161 376.269 -15.690  42.287 261.142

                      1                      2                      3
                      A                      A                      A
 Frequencies --     31.6718                41.7579                61.1891
 Red. masses --      6.3806                 6.9245                 7.0025
 Frc consts  --      0.0038                 0.0071                 0.0154
 IR Inten    --      0.1715                 0.7434                 1.7518

                      4                      5                      6
                      A                      A                      A
 Frequencies --     64.1188                88.8544               103.1871
 Red. masses --      6.6071                 5.6178                 3.8455
 Frc consts  --      0.0160                 0.0261                 0.0241
 IR Inten    --      0.4082                 1.8670                 0.4996

                      7                      8                      9
                      A                      A                      A
 Frequencies --    127.8129               151.5794               166.1501
 Red. masses --      7.5286                 4.1297                 4.3985
 Frc consts  --      0.0725                 0.0559                 0.0715
 IR Inten    --      1.2057                 0.5801                 2.6739

                     10                     11                     12
                      A                      A                      A
 Frequencies --    184.7110               204.9774               225.8339
 Red. masses --      1.9528                 2.2760                 7.3063
 Frc consts  --      0.0393                 0.0563                 0.2195
 IR Inten    --      0.9751                 1.0911                 2.9306

                     13                     14                     15
                      A                      A                      A
 Frequencies --    233.4402               260.2857               280.7925
 Red. masses --      4.0924                 5.8051                 2.0391
 Frc consts  --      0.1314                 0.2317                 0.0947
 IR Inten    --      9.4530                 0.9447                73.0339

                     16                     17                     18
                      A                      A                      A
 Frequencies --    293.9300               310.7031               319.1194
 Red. masses --      4.9636                 5.9940                 3.4555
 Frc consts  --      0.2527                 0.3409                 0.2073
 IR Inten    --     13.8368                 2.6613                69.4992

                     19                     20                     21
                      A                      A                      A
 Frequencies --    346.8944               356.0799               392.4391
 Red. masses --      4.2903                 3.2384                 4.2793
 Frc consts  --      0.3042                 0.2419                 0.3883
 IR Inten    --      0.6277               102.5171                12.6630

                     22                     23                     24
                      A                      A                      A
 Frequencies --    414.2802               440.7079               447.3570
 Red. masses --      5.6566                 6.8809                 3.9224
 Frc consts  --      0.5720                 0.7874                 0.4625
 IR Inten    --      3.6117                 4.6216                 0.3322

                     25                     26                     27
                      A                      A                      A
 Frequencies --    488.7868               493.4835               513.3232
 Red. masses --      5.9895                 4.6484                 4.4223
 Frc consts  --      0.8431                 0.6670                 0.6866
 IR Inten    --      9.0045                13.6587                 9.8617

                     28                     29                     30
                      A                      A                      A
 Frequencies --    531.8481               550.9381               557.6103
 Red. masses --      4.2174                 6.6749                 6.3775
 Frc consts  --      0.7029                 1.1937                 1.1683
 IR Inten    --     14.3765                 8.4406                 7.0212

                     31                     32                     33
                      A                      A                      A
 Frequencies --    584.1214               629.6526               651.5589
 Red. masses --      3.9220                 5.8372                 6.1379
 Frc consts  --      0.7884                 1.3635                 1.5353
 IR Inten    --      9.0089                 5.4759                21.1953

                     34                     35                     36
                      A                      A                      A
 Frequencies --    674.1175               687.1670               695.1615
 Red. masses --      4.4426                 5.7468                 6.0879
 Frc consts  --      1.1895                 1.5988                 1.7334
 IR Inten    --     14.7976                 1.3286                 5.9225

                     37                     38                     39
                      A                      A                      A
 Frequencies --    700.8171               740.5820               745.0272
 Red. masses --      6.2107                 4.8980                 5.1562
 Frc consts  --      1.7972                 1.5828                 1.6863
 IR Inten    --      0.4869                 8.1905                15.1338

                     40                     41                     42
                      A                      A                      A
 Frequencies --    765.5156               784.5645               799.5898
 Red. masses --      2.4267                 1.7347                 3.6145
 Frc consts  --      0.8379                 0.6291                 1.3616
 IR Inten    --     21.1642                41.3463                48.0095

                     43                     44                     45
                      A                      A                      A
 Frequencies --    816.9755               842.9363               843.9107
 Red. masses --      5.7114                 1.4857                 4.0816
 Frc consts  --      2.2460                 0.6220                 1.7127
 IR Inten    --     62.1213                13.7544                 6.7968

                     46                     47                     48
                      A                      A                      A
 Frequencies --    846.0654               879.1489               909.0128
 Red. masses --      1.7782                 1.4003                 1.5163
 Frc consts  --      0.7500                 0.6377                 0.7382
 IR Inten    --     65.1720                 0.7389                21.8844

                     49                     50                     51
                      A                      A                      A
 Frequencies --    943.3534               963.6166               973.3426
 Red. masses --      5.2897                 1.3781                 1.3301
 Frc consts  --      2.7735                 0.7539                 0.7425
 IR Inten    --     12.2202                 8.5370                 1.3021

                     52                     53                     54
                      A                      A                      A
 Frequencies --    996.9132              1001.6325              1017.3660
 Red. masses --      1.2740                 3.5594                 2.7776
 Frc consts  --      0.7460                 2.1040                 1.6939
 IR Inten    --      1.5231                84.5834                51.6372

                     55                     56                     57
                      A                      A                      A
 Frequencies --   1026.0740              1037.8760              1062.5479
 Red. masses --      3.7851                 4.1718                 2.0751
 Frc consts  --      2.3480                 2.6477                 1.3803
 IR Inten    --     12.6387                75.2280                11.9023

                     58                     59                     60
                      A                      A                      A
 Frequencies --   1073.2599              1115.4758              1121.0164
 Red. masses --      1.4686                 2.4236                 2.3847
 Frc consts  --      0.9967                 1.7767                 1.7656
 IR Inten    --      9.7790               250.6509               214.9920

                     61                     62                     63
                      A                      A                      A
 Frequencies --   1131.2949              1157.3085              1182.9290
 Red. masses --      2.2558                 1.6019                 1.2230
 Frc consts  --      1.7010                 1.2641                 1.0083
 IR Inten    --      3.6517                 5.8035                10.2514

                     64                     65                     66
                      A                      A                      A
 Frequencies --   1186.0165              1194.2534              1245.9278
 Red. masses --      2.2011                 1.7409                 2.2931
 Frc consts  --      1.8242                 1.4629                 2.0973
 IR Inten    --     26.5110                26.4413                 6.0155

                     67                     68                     69
                      A                      A                      A
 Frequencies --   1256.3175              1276.2169              1285.1770
 Red. masses --      3.1476                 1.8095                 1.7061
 Frc consts  --      2.9271                 1.7364                 1.6603
 IR Inten    --     85.9480                59.2481                41.8107

                     70                     71                     72
                      A                      A                      A
 Frequencies --   1297.4422              1305.5877              1317.6201
 Red. masses --      1.6334                 2.6248                 1.8158
 Frc consts  --      1.6200                 2.6361                 1.8574
 IR Inten    --     35.7143                46.9588                65.8127

                     73                     74                     75
                      A                      A                      A
 Frequencies --   1337.4736              1345.2807              1356.0499
 Red. masses --      2.3894                 8.0502                 7.9058
 Frc consts  --      2.5183                 8.5839                 8.5654
 IR Inten    --     14.5231                56.2613                41.8227

                     76                     77                     78
                      A                      A                      A
 Frequencies --   1363.4947              1410.9644              1422.0139
 Red. masses --      3.9340                 1.6191                 2.0029
 Frc consts  --      4.3092                 1.8992                 2.3863
 IR Inten    --     11.7799               207.0414                78.5539

                     79                     80                     81
                      A                      A                      A
 Frequencies --   1438.4500              1451.3415              1491.7539
 Red. masses --      1.8572                 2.7202                 2.3579
 Frc consts  --      2.2641                 3.3760                 3.0916
 IR Inten    --      2.4950               178.4291                36.3570

                     82                     83                     84
                      A                      A                      A
 Frequencies --   1493.6573              1507.9169              1523.8321
 Red. masses --      1.1285                 1.4782                 1.8789
 Frc consts  --      1.4834                 1.9803                 2.5706
 IR Inten    --     16.5893               121.8953               138.1712

                     85                     86                     87
                      A                      A                      A
 Frequencies --   1532.1396              1555.5036              1609.3845
 Red. masses --      2.8273                 4.5171                 7.2610
 Frc consts  --      3.9103                 6.4394                11.0807
 IR Inten    --     88.8739                36.1586                31.7466

                     88                     89                     90
                      A                      A                      A
 Frequencies --   1629.0013              1630.9700              1649.8237
 Red. masses --      6.5299                 6.1806                 6.9910
 Frc consts  --     10.2094                 9.6867                11.2115
 IR Inten    --     19.7469                23.6588                 5.3829

                     91                     92                     93
                      A                      A                      A
 Frequencies --   1662.1713              1683.4041              3039.2307
 Red. masses --      6.7439                11.9855                 1.0834
 Frc consts  --     10.9777                20.0116                 5.8961
 IR Inten    --    102.3048               305.6931                44.4730

                     94                     95                     96
                      A                      A                      A
 Frequencies --   3070.5367              3130.0401              3170.4272
 Red. masses --      1.0408                 1.0981                 1.1015
 Frc consts  --      5.7817                 6.3388                 6.5231
 IR Inten    --     29.9348                16.1486                17.5509

                     97                     98                     99
                      A                      A                      A
 Frequencies --   3216.2065              3226.8430              3236.7274
 Red. masses --      1.0866                 1.0904                 1.0934
 Frc consts  --      6.6224                 6.6898                 6.7490
 IR Inten    --      1.2167                19.1030                22.4105

                    100                    101                    102
                      A                      A                      A
 Frequencies --   3241.7097              3245.1854              3248.6391
 Red. masses --      1.0968                 1.0899                 1.0916
 Frc consts  --      6.7909                 6.7626                 6.7877
 IR Inten    --     10.2958                 2.1404                 1.3055

                    103                    104                    105
                      A                      A                      A
 Frequencies --   3259.6304              3284.6246              3695.1349
 Red. masses --      1.0943                 1.0969                 1.0659
 Frc consts  --      6.8505                 6.9724                 8.5751
 IR Inten    --      5.1378                10.7425                98.1094

 - Thermochemistry -
 -------------------
 Temperature   298.150 Kelvin.  Pressure   1.00000 Atm.
 Atom     1 has atomic number  6 and mass  12.00000

 Molecular mass:   341.07312 amu.
 Principal axes and moments of inertia in atomic units:
                           1         2         3
     Eigenvalues --  7368.446718984.36841**********
           X            0.99918  -0.04018   0.00405
           Y            0.04013   0.99914   0.01026
           Z           -0.00445  -0.01008   0.99994
 This molecule is an asymmetric top.
 Rotational symmetry number  1.
 Warning -- assumption of classical behavior for rotation
           may cause significant error
 Rotational temperatures (Kelvin)      0.01175     0.00964     0.00665
 Rotational constants (GHZ):           0.24493     0.20088     0.13851
 Zero-point vibrational energy     727376.9 (Joules/Mol)
                                  173.84724 (Kcal/Mol)
 Warning -- explicit consideration of  31 degrees of freedom as
           vibrations may cause significant error
 Vibrational temperatures:     45.57    60.08    88.04    92.25   127.84
          (Kelvin)            148.46   183.89   218.09   239.05   265.76
                              294.92   324.92   335.87   374.49   404.00
                              422.90   447.03   459.14   499.10   512.32
                              564.63   596.06   634.08   643.65   703.26
                              710.01   738.56   765.21   792.68   802.28
                              840.42   905.93   937.45   969.90   988.68
                             1000.18  1008.32  1065.53  1071.93  1101.41
                             1128.81  1150.43  1175.45  1212.80  1214.20
                             1217.30  1264.90  1307.87  1357.28  1386.43
                             1400.42  1434.34  1441.13  1463.76  1476.29
                             1493.27  1528.77  1544.18  1604.92  1612.89
                             1627.68  1665.11  1701.97  1706.41  1718.26
                             1792.61  1807.56  1836.19  1849.08  1866.73
                             1878.45  1895.76  1924.33  1935.56  1951.05
                             1961.76  2030.06  2045.96  2069.61  2088.16
                             2146.30  2149.04  2169.56  2192.45  2204.41
                             2238.02  2315.55  2343.77  2346.60  2373.73
                             2391.49  2422.04  4372.78  4417.82  4503.43
                             4561.54  4627.40  4642.71  4656.93  4664.10
                             4669.10  4674.07  4689.88  4725.84  5316.47

 Zero-point correction=                           0.277043 (Hartree/Particle)
 Thermal correction to Energy=                    0.296516
 Thermal correction to Enthalpy=                  0.297460
 Thermal correction to Gibbs Free Energy=         0.228715
 Sum of electronic and zero-point Energies=          -1492.974726
 Sum of electronic and thermal Energies=             -1492.955254
 Sum of electronic and thermal Enthalpies=           -1492.954310
 Sum of electronic and thermal Free Energies=        -1493.023054

                     E (Thermal)             CV                S
                      KCal/Mol        Cal/Mol-Kelvin    Cal/Mol-Kelvin
 Total                  186.066             76.515            144.685
 Electronic               0.000              0.000              0.000
 Translational            0.889              2.981             43.375
 Rotational               0.889              2.981             35.110
 Vibrational            184.289             70.553             66.200
 Vibration     1          0.594              1.983              5.722
 Vibration     2          0.594              1.980              5.174
 Vibration     3          0.597              1.973              4.418
 Vibration     4          0.597              1.971              4.326
 Vibration     5          0.602              1.957              3.685
 Vibration     6          0.605              1.947              3.393
 Vibration     7          0.611              1.925              2.979
 Vibration     8          0.619              1.901              2.652
 Vibration     9          0.624              1.884              2.479
 Vibration    10          0.631              1.861              2.280
 Vibration    11          0.640              1.833              2.088
 Vibration    12          0.650              1.802              1.912
 Vibration    13          0.654              1.790              1.852
 Vibration    14          0.668              1.745              1.660
 Vibration    15          0.680              1.709              1.529
 Vibration    16          0.689              1.685              1.451
 Vibration    17          0.700              1.653              1.359
 Vibration    18          0.705              1.637              1.315
 Vibration    19          0.725              1.582              1.180
 Vibration    20          0.732              1.563              1.139
 Vibration    21          0.760              1.486              0.991
 Vibration    22          0.778              1.439              0.912
 Vibration    23          0.801              1.381              0.824
 Vibration    24          0.806              1.367              0.804
 Vibration    25          0.845              1.275              0.687
 Vibration    26          0.849              1.264              0.675
 Vibration    27          0.868              1.220              0.626
 Vibration    28          0.887              1.180              0.583
 Vibration    29          0.906              1.138              0.542
 Vibration    30          0.913              1.123              0.529
 Vibration    31          0.941              1.066              0.478

 Optimization completed.
    -- Stationary point found.
 Normal termination of Gaussian 16 at Tue Mar  1 22:50:12 2022.

 ------------------------------------------
 #p b3lyp/6-31G(d) geom=allcheck guess=read
 ------------------------------------------

 Structure from the checkpoint file:  "254.n.pdb.xyz.mst.wat.chk"
 -------------
 254.n.pdb.xyz
 -------------
 Charge =  0 Multiplicity = 1

 SCF Done:  E(RB3LYP) =  -1493.23319395     A.U. after   12 cycles
 Normal termination of Gaussian 16 at Tue Mar  1 22:54:19 2022.
 Gaussian 16:  ES64L-G16RevA.03 25-Dec-2016

 ----------------------------------------------------------------------
 #p b3lyp/6-31G(d) scrf=(iefpcm,read,solvent=water) geom=allcheck guess
 =read
 ----------------------------------------------------------------------

 Structure from the checkpoint file:  "254.n.pdb.xyz.mst.wat.chk"
 -------------
 254.n.pdb.xyz
 -------------
 Charge =  0 Multiplicity = 1

                         Standard orientation:
 ---------------------------------------------------------------------
 Center     Atomic      Atomic             Coordinates (Angstroms)
 Number     Number       Type             X           Y           Z
 ---------------------------------------------------------------------
      1          6           0       -3.644573    0.595209    2.216346
      2          6           0       -3.295298   -0.445939    1.203881
      3          7           0       -3.889524   -1.619533    1.101081
      4          6           0       -3.258633   -2.289916    0.071151
      5          6           0       -2.260289   -1.521060   -0.454527
      6          6           0       -1.209090   -1.744888   -1.498859
      7          8           0       -1.438309   -2.921979   -2.233871
      8          7           0        0.094946   -1.813217   -0.841935
      9          6           0        0.591247   -0.755823   -0.310636
     10          6           0       -0.066492    0.587339   -0.290093
     11          6           0        0.725095    1.713739   -0.561309
     12          6           0        0.165877    2.983564   -0.565601
     13         17           0        1.181228    4.370781   -0.926733
     14          6           0       -1.185902    3.175523   -0.289471
     15          6           0       -1.980140    2.067801   -0.018986
     16          6           0       -1.438376    0.777811   -0.011556
     17          7           0       -2.279567   -0.330065    0.268738
     18          6           0        1.926809   -0.858556    0.344346
     19          6           0        2.979207   -1.596286   -0.213847
     20          9           0        2.820628   -2.185071   -1.418162
     21          6           0        4.213670   -1.727019    0.409587
     22          6           0        4.417419   -1.111520    1.644658
     23          6           0        3.393325   -0.365734    2.232428
     24          6           0        2.169073   -0.236365    1.580567
     25          1           0       -4.212523    0.116931    3.015517
     26          1           0       -2.753472    1.059545    2.646963
     27          1           0       -4.265035    1.393719    1.796605
     28          1           0       -3.555936   -3.284078   -0.227732
     29          1           0       -1.220440   -0.929441   -2.233568
     30          1           0       -1.310275   -3.670715   -1.623380
     31          1           0        1.779178    1.585101   -0.770528
     32          1           0       -1.615300    4.169198   -0.299378
     33          1           0       -3.035841    2.205183    0.172295
     34          1           0        4.992324   -2.300909   -0.079034
     35          1           0        5.376380   -1.212286    2.140783
     36          1           0        3.547415    0.114463    3.192089
     37          1           0        1.374921    0.343899    2.034602
 ---------------------------------------------------------------------

 SCF Done:  E(RB3LYP) =  -1493.24954624     A.U. after   11 cycles

 The electronic state is 1-A.
 Alpha  occ. eigenvalues -- -101.56123 -24.71314 -19.15567 -14.40745 -14.34221
 Alpha  occ. eigenvalues --  -14.32262 -10.28359 -10.28090 -10.26747 -10.26431
 Alpha  occ. eigenvalues --  -10.26234 -10.25618 -10.23181 -10.22317 -10.22173
 Alpha  occ. eigenvalues --  -10.22057 -10.21800 -10.21554 -10.20726 -10.20584
 Alpha  occ. eigenvalues --  -10.20436 -10.20191 -10.19826 -10.19336  -9.47748
 Alpha  occ. eigenvalues --   -7.24144  -7.23179  -7.23142  -1.22492  -1.04437
 Alpha  occ. eigenvalues --   -1.02783  -0.94344  -0.91231  -0.89517  -0.86952
 Alpha  occ. eigenvalues --   -0.84600  -0.79535  -0.79006  -0.76743  -0.75560
 Alpha  occ. eigenvalues --   -0.75140  -0.72021  -0.68817  -0.65802  -0.64546
 Alpha  occ. eigenvalues --   -0.63194  -0.62138  -0.59460  -0.59012  -0.57105
 Alpha  occ. eigenvalues --   -0.54579  -0.54189  -0.51832  -0.50768  -0.50010
 Alpha  occ. eigenvalues --   -0.49450  -0.49010  -0.47358  -0.47072  -0.46512
 Alpha  occ. eigenvalues --   -0.45973  -0.45124  -0.44494  -0.44056  -0.43410
 Alpha  occ. eigenvalues --   -0.41667  -0.41112  -0.40379  -0.40307  -0.40039
 Alpha  occ. eigenvalues --   -0.39429  -0.38306  -0.38176  -0.37095  -0.36675
 Alpha  occ. eigenvalues --   -0.35776  -0.35040  -0.32897  -0.32596  -0.30325
 Alpha  occ. eigenvalues --   -0.29652  -0.28885  -0.28039  -0.27436  -0.25824
 Alpha  occ. eigenvalues --   -0.25028  -0.24842  -0.22562
 Alpha virt. eigenvalues --   -0.06561  -0.03653  -0.03049  -0.00625   0.01437
 Alpha virt. eigenvalues --    0.02121   0.03929   0.05833   0.08861   0.09592
 Alpha virt. eigenvalues --    0.10073   0.12472   0.12655   0.13390   0.14241

 Mulliken charges:
               1
     1  C   -0.536330
     2  C    0.476516
     3  N   -0.547440
     4  C   -0.114005
     5  C    0.301828
     6  C    0.147085
     7  O   -0.656967
     8  N   -0.450523
     9  C    0.225395
    10  C    0.082415
    11  C   -0.188057
    12  C   -0.061503
    13  Cl  -0.021698
    14  C   -0.139774
    15  C   -0.147790
    16  C    0.264455
    17  N   -0.594356
    18  C    0.009908
    19  C    0.339894
    20  F   -0.293019
    21  C   -0.206635
    22  C   -0.135916
    23  C   -0.146223
    24  C   -0.174853
    25  H    0.187255
    26  H    0.184416
    27  H    0.190963
    28  H    0.158046
    29  H    0.177366
    30  H    0.435774
    31  H    0.189935
    32  H    0.190071
    33  H    0.188208
    34  H    0.170247
    35  H    0.167538
    36  H    0.161885
    37  H    0.165890
 Sum of Mulliken charges =  -0.00000

 Dipole moment (field-independent basis, Debye):
    X=              2.5427    Y=              4.6316    Z=              3.1776  Tot=              6.1656
 Quadrupole moment (field-independent basis, Debye-Ang):
   XX=           -139.1157   YY=           -143.9665   ZZ=           -145.0620
   XY=            -18.2657   XZ=              7.6771   YZ=              0.5789

 Normal termination of Gaussian 16 at Tue Mar  1 22:58:58 2022.
