 Gaussian 16, Revision A.03,

 ----------------------------------------------------------------------
 #p b3lyp/6-31G(d) opt=(MaxStep=10,MaxCycles=1000) freq scf=(MaxCycle=2
 000,NoVarAcc,NoIncFock) scrf=(iefpcm,read,solvent=water)
 ----------------------------------------------------------------------

 -------------
 255.n.pdb.xyz
 -------------
 Symbolic Z-matrix:
 Charge =  0 Multiplicity = 1

 SCF Done:  E(RB3LYP) =  -950.054287660     A.U. after   12 cycles
 SCF Done:  E(RB3LYP) =  -950.057921518     A.U. after    9 cycles
 SCF Done:  E(RB3LYP) =  -950.057048361     A.U. after   10 cycles
 SCF Done:  E(RB3LYP) =  -950.059232552     A.U. after    9 cycles
 SCF Done:  E(RB3LYP) =  -950.058628447     A.U. after    9 cycles
 SCF Done:  E(RB3LYP) =  -950.059324599     A.U. after    9 cycles
 SCF Done:  E(RB3LYP) =  -950.059271003     A.U. after    8 cycles
 SCF Done:  E(RB3LYP) =  -950.059264149     A.U. after    8 cycles
 SCF Done:  E(RB3LYP) =  -950.059270815     A.U. after    7 cycles
 SCF Done:  E(RB3LYP) =  -950.059271115     A.U. after    6 cycles
 Optimization completed.
    -- Stationary point found.
 Normal termination of Gaussian 16 at Tue Mar  1 21:54:08 2022.

 --------------------------------------------------------------------
 #P Geom=AllCheck Guess=TCheck SCRF=Check GenChk RB3LYP/6-31G(d) Freq
 --------------------------------------------------------------------

 Structure from the checkpoint file:  "255.n.pdb.xyz.mst.wat.chk"
 -------------
 255.n.pdb.xyz
 -------------
 Charge =  0 Multiplicity = 1

 SCF Done:  E(RB3LYP) =  -950.059271115     A.U. after    1 cycles

  Exact polarizability: 307.397  -1.033 263.948  -0.203 -15.420 187.049
 Approx polarizability: 313.741  -0.954 289.250   4.796 -21.269 211.198

                      1                      2                      3
                      A                      A                      A
 Frequencies --     40.6171                62.7682                77.3494
 Red. masses --      5.8163                 5.3616                 3.4308
 Frc consts  --      0.0057                 0.0124                 0.0121
 IR Inten    --      1.6518                 2.9943                 0.4833

                      4                      5                      6
                      A                      A                      A
 Frequencies --     99.5829               137.1343               170.3989
 Red. masses --      4.6591                 4.3754                 2.7757
 Frc consts  --      0.0272                 0.0485                 0.0475
 IR Inten    --      0.8443                 2.9191                 0.5665

                      7                      8                      9
                      A                      A                      A
 Frequencies --    188.0515               210.0527               219.9482
 Red. masses --      3.0065                 3.8651                 3.2158
 Frc consts  --      0.0626                 0.1005                 0.0917
 IR Inten    --      2.4205                 0.1183                 3.4959

                     10                     11                     12
                      A                      A                      A
 Frequencies --    231.4771               250.3798               260.2870
 Red. masses --      1.9182                 3.2380                 2.1816
 Frc consts  --      0.0606                 0.1196                 0.0871
 IR Inten    --      2.6967                 0.5616                10.8437

                     13                     14                     15
                      A                      A                      A
 Frequencies --    269.6994               284.8690               309.4411
 Red. masses --      4.3469                 1.9450                 3.7274
 Frc consts  --      0.1863                 0.0930                 0.2103
 IR Inten    --     20.0563                 2.0963                 0.4113

                     16                     17                     18
                      A                      A                      A
 Frequencies --    334.6138               336.4267               359.5728
 Red. masses --      2.9844                 1.2031                 1.0855
 Frc consts  --      0.1969                 0.0802                 0.0827
 IR Inten    --     17.4099               178.8745               200.4710

                     19                     20                     21
                      A                      A                      A
 Frequencies --    372.7904               393.6857               415.5648
 Red. masses --      2.4021                 4.3531                 3.3670
 Frc consts  --      0.1967                 0.3975                 0.3426
 IR Inten    --     24.0072                 7.4619                 4.4415

                     22                     23                     24
                      A                      A                      A
 Frequencies --    424.9897               453.4725               455.8762
 Red. masses --      3.4856                 2.8368                 2.8774
 Frc consts  --      0.3709                 0.3437                 0.3523
 IR Inten    --      1.6244                21.0911                 6.2127

                     25                     26                     27
                      A                      A                      A
 Frequencies --    470.6215               487.0619               531.3080
 Red. masses --      4.1896                 4.2102                 4.4730
 Frc consts  --      0.5467                 0.5885                 0.7439
 IR Inten    --     13.5985                 2.4428                 3.7869

                     28                     29                     30
                      A                      A                      A
 Frequencies --    553.7369               571.4170               588.4772
 Red. masses --      2.5921                 4.1491                 2.7421
 Frc consts  --      0.4683                 0.7982                 0.5595
 IR Inten    --      5.9024                 3.0569                 1.8484

                     31                     32                     33
                      A                      A                      A
 Frequencies --    613.8539               633.5820               685.8149
 Red. masses --      3.5529                 3.1556                 3.1655
 Frc consts  --      0.7888                 0.7463                 0.8772
 IR Inten    --      6.0016                 0.4262                 5.4402

                     34                     35                     36
                      A                      A                      A
 Frequencies --    720.3998               721.0274               743.8343
 Red. masses --      3.9964                 3.5531                 5.2356
 Frc consts  --      1.2220                 1.0883                 1.7067
 IR Inten    --     12.4105                 0.2321                 5.8765

                     37                     38                     39
                      A                      A                      A
 Frequencies --    759.3749               802.0318               822.5477
 Red. masses --      3.6322                 2.2454                 3.0228
 Frc consts  --      1.2340                 0.8510                 1.2050
 IR Inten    --     41.5640                10.6146                 5.1510

                     40                     41                     42
                      A                      A                      A
 Frequencies --    837.8526               843.6600               859.4612
 Red. masses --      1.6851                 2.1870                 1.7671
 Frc consts  --      0.6970                 0.9171                 0.7691
 IR Inten    --     22.4910                 5.2080                 4.8648

                     43                     44                     45
                      A                      A                      A
 Frequencies --    872.5754               885.6933               923.0540
 Red. masses --      2.3843                 1.7504                 2.2737
 Frc consts  --      1.0696                 0.8090                 1.1414
 IR Inten    --     15.4880                12.8550                41.1952

                     46                     47                     48
                      A                      A                      A
 Frequencies --    926.1917               941.6004               952.4778
 Red. masses --      2.1968                 1.6946                 1.6277
 Frc consts  --      1.1103                 0.8852                 0.8700
 IR Inten    --      3.6438                 4.8909                 1.7098

                     49                     50                     51
                      A                      A                      A
 Frequencies --    953.5227               974.4451               995.0549
 Red. masses --      1.9901                 1.9882                 1.8972
 Frc consts  --      1.0661                 1.1123                 1.1068
 IR Inten    --      5.3842                 0.3981                 5.0488

                     52                     53                     54
                      A                      A                      A
 Frequencies --   1014.2877              1026.6025              1034.9466
 Red. masses --      1.9278                 2.3698                 1.8228
 Frc consts  --      1.1685                 1.4715                 1.1504
 IR Inten    --      3.9813                27.8840                 4.2623

                     55                     56                     57
                      A                      A                      A
 Frequencies --   1045.1539              1063.5070              1073.9458
 Red. masses --      2.0233                 2.3140                 3.3012
 Frc consts  --      1.3022                 1.5420                 2.2433
 IR Inten    --      1.6829                47.4250                95.1939

                     58                     59                     60
                      A                      A                      A
 Frequencies --   1111.7666              1123.9882              1130.7560
 Red. masses --      2.4461                 2.6800                 2.1802
 Frc consts  --      1.7814                 1.9948                 1.6424
 IR Inten    --     60.4692                19.3731                27.0807

                     61                     62                     63
                      A                      A                      A
 Frequencies --   1151.5480              1152.3896              1176.0511
 Red. masses --      1.9364                 1.8527                 1.7435
 Frc consts  --      1.5129                 1.4496                 1.4207
 IR Inten    --     11.4171                25.4433                75.4872

                     64                     65                     66
                      A                      A                      A
 Frequencies --   1185.8323              1187.9692              1199.7454
 Red. masses --      1.6564                 2.0056                 1.3709
 Frc consts  --      1.3723                 1.6677                 1.1626
 IR Inten    --     19.3832                17.2255                32.9201

                     67                     68                     69
                      A                      A                      A
 Frequencies --   1205.9558              1211.0994              1221.1235
 Red. masses --      1.3423                 1.4124                 1.6345
 Frc consts  --      1.1501                 1.2205                 1.4360
 IR Inten    --     67.5097               216.0385                 5.9586

                     70                     71                     72
                      A                      A                      A
 Frequencies --   1229.8177              1247.7854              1259.7425
 Red. masses --      1.8859                 1.5131                 1.4648
 Frc consts  --      1.6805                 1.3881                 1.3696
 IR Inten    --     31.5770                 9.5841                12.0199

                     73                     74                     75
                      A                      A                      A
 Frequencies --   1269.1109              1280.6121              1301.8158
 Red. masses --      1.6701                 1.6772                 1.4227
 Frc consts  --      1.5849                 1.6206                 1.4205
 IR Inten    --     30.0455                17.4057                22.0477

                     76                     77                     78
                      A                      A                      A
 Frequencies --   1309.6270              1327.0115              1329.0627
 Red. masses --      1.7499                 1.8095                 1.3556
 Frc consts  --      1.7683                 1.8774                 1.4108
 IR Inten    --    104.7035                10.6456                 4.0035

                     79                     80                     81
                      A                      A                      A
 Frequencies --   1345.1836              1350.1339              1356.1944
 Red. masses --      1.4424                 1.3978                 1.4852
 Frc consts  --      1.5378                 1.5013                 1.6095
 IR Inten    --      2.9404                13.0341                 5.5951

                     82                     83                     84
                      A                      A                      A
 Frequencies --   1357.6950              1364.2797              1377.4089
 Red. masses --      1.5067                 2.9952                 1.4876
 Frc consts  --      1.6364                 3.2846                 1.6629
 IR Inten    --      2.9992                26.0565                 0.1911

                     85                     86                     87
                      A                      A                      A
 Frequencies --   1384.1998              1387.3783              1392.3270
 Red. masses --      1.3454                 1.4308                 1.6596
 Frc consts  --      1.5188                 1.6226                 1.8956
 IR Inten    --      0.6735                 0.7223                 6.9794

                     88                     89                     90
                      A                      A                      A
 Frequencies --   1401.3754              1413.7120              1429.1248
 Red. masses --      1.4109                 1.6350                 1.2466
 Frc consts  --      1.6325                 1.9253                 1.5001
 IR Inten    --     13.4443                 5.5753                11.9589

                     91                     92                     93
                      A                      A                      A
 Frequencies --   1439.8922              1444.9478              1483.5574
 Red. masses --      1.4026                 1.3922                 3.1472
 Frc consts  --      1.7133                 1.7126                 4.0811
 IR Inten    --      2.8260                10.0211                97.2834

                     94                     95                     96
                      A                      A                      A
 Frequencies --   1493.8502              1499.0260              1507.3107
 Red. masses --      1.1082                 1.0789                 1.0890
 Frc consts  --      1.4571                 1.4284                 1.4578
 IR Inten    --      3.7977                 0.9550                 5.6521

                     97                     98                     99
                      A                      A                      A
 Frequencies --   1513.3014              1517.7244              1523.2333
 Red. masses --      1.0914                 1.0905                 1.0630
 Frc consts  --      1.4726                 1.4800                 1.4532
 IR Inten    --      1.6735                 1.5415                14.6208

                    100                    101                    102
                      A                      A                      A
 Frequencies --   1528.8704              1550.1947              1644.5803
 Red. masses --      1.0653                 2.8076                 6.0336
 Frc consts  --      1.4671                 3.9753                 9.6148
 IR Inten    --      9.9320               109.3020                26.8243

                    103                    104                    105
                      A                      A                      A
 Frequencies --   1663.8945              2998.9833              3012.8552
 Red. masses --      6.2310                 1.0824                 1.0833
 Frc consts  --     10.1638                 5.7356                 5.7937
 IR Inten    --    140.8683                56.9077                64.4732

                    106                    107                    108
                      A                      A                      A
 Frequencies --   3028.1122              3033.9133              3041.1225
 Red. masses --      1.0702                 1.0803                 1.0616
 Frc consts  --      5.7817                 5.8584                 5.7846
 IR Inten    --     57.8770                56.3403                74.1298

                    109                    110                    111
                      A                      A                      A
 Frequencies --   3048.7200              3055.3541              3063.1354
 Red. masses --      1.0844                 1.0613                 1.0455
 Frc consts  --      5.9382                 5.8372                 5.7798
 IR Inten    --     82.1853                33.6052                54.2218

                    112                    113                    114
                      A                      A                      A
 Frequencies --   3072.3105              3081.0658              3083.8158
 Red. masses --      1.0636                 1.0994                 1.0650
 Frc consts  --      5.9151                 6.1490                 5.9672
 IR Inten    --     59.4423                81.0138                14.9977

                    115                    116                    117
                      A                      A                      A
 Frequencies --   3089.0466              3095.5513              3104.6613
 Red. masses --      1.0887                 1.1030                 1.0860
 Frc consts  --      6.1211                 6.2272                 6.1673
 IR Inten    --     90.9214                96.7920                72.0397

                    118                    119                    120
                      A                      A                      A
 Frequencies --   3115.2528              3125.1987              3130.9985
 Red. masses --      1.1019                 1.0973                 1.1035
 Frc consts  --      6.3005                 6.3145                 6.3738
 IR Inten    --     98.3737                33.8681                64.9533

                    121                    122                    123
                      A                      A                      A
 Frequencies --   3160.4109              3187.1446              3189.7355
 Red. masses --      1.0977                 1.0884                 1.0895
 Frc consts  --      6.4599                 6.5141                 6.5313
 IR Inten    --     58.0485                51.6698                 8.0813

                    124                    125                    126
                      A                      A                      A
 Frequencies --   3220.7687              3725.0736              3736.0410
 Red. masses --      1.0931                 1.0662                 1.0668
 Frc consts  --      6.6808                 8.7167                 8.7732
 IR Inten    --     27.8216               172.6911                97.8626

 - Thermochemistry -
 -------------------
 Temperature   298.150 Kelvin.  Pressure   1.00000 Atm.
 Atom     1 has atomic number  6 and mass  12.00000

 Molecular mass:   290.16821 amu.
 Principal axes and moments of inertia in atomic units:
                           1         2         3
     Eigenvalues --  2056.49101********************
           X            0.99996  -0.00490  -0.00770
           Y            0.00481   0.99991  -0.01272
           Z            0.00776   0.01268   0.99989
 This molecule is an asymmetric top.
 Rotational symmetry number  1.
 Warning -- assumption of classical behavior for rotation
           may cause significant error
 Rotational temperatures (Kelvin)      0.04212     0.00725     0.00677
 Rotational constants (GHZ):           0.87758     0.15101     0.14109
 Zero-point vibrational energy    1002887.2 (Joules/Mol)
                                  239.69580 (Kcal/Mol)
 Warning -- explicit consideration of  31 degrees of freedom as
           vibrations may cause significant error
 Vibrational temperatures:     58.44    90.31   111.29   143.28   197.31
          (Kelvin)            245.17   270.56   302.22   316.46   333.04
                              360.24   374.49   388.04   409.86   445.22
                              481.43   484.04   517.35   536.36   566.43
                              597.91   611.47   652.45   655.90   677.12
                              700.77   764.43   796.70   822.14   846.69
                              883.20   911.58   986.73  1036.49  1037.40
                             1070.21  1092.57  1153.94  1183.46  1205.48
                             1213.84  1236.57  1255.44  1274.32  1328.07
                             1332.58  1354.75  1370.40  1371.91  1402.01
                             1431.66  1459.33  1477.05  1489.06  1503.74
                             1530.15  1545.17  1599.58  1617.17  1626.91
                             1656.82  1658.03  1692.08  1706.15  1709.22
                             1726.17  1735.10  1742.50  1756.92  1769.43
                             1795.28  1812.49  1825.97  1842.52  1873.02
                             1884.26  1909.27  1912.22  1935.42  1942.54
                             1951.26  1953.42  1962.89  1981.78  1991.55
                             1996.13  2003.25  2016.27  2034.02  2056.19
                             2071.68  2078.96  2134.51  2149.32  2156.76
                             2168.68  2177.30  2183.67  2191.59  2199.70
                             2230.38  2366.18  2393.97  4314.87  4334.83
                             4356.78  4365.12  4375.50  4386.43  4395.97
                             4407.17  4420.37  4432.97  4436.92  4444.45
                             4453.81  4466.92  4482.15  4496.46  4504.81
                             4547.13  4585.59  4589.32  4633.97  5359.55
                             5375.33

 Zero-point correction=                           0.381980 (Hartree/Particle)
 Thermal correction to Energy=                    0.400035
 Thermal correction to Enthalpy=                  0.400979
 Thermal correction to Gibbs Free Energy=         0.337463
 Sum of electronic and zero-point Energies=           -949.677292
 Sum of electronic and thermal Energies=              -949.659236
 Sum of electronic and thermal Enthalpies=            -949.658292
 Sum of electronic and thermal Free Energies=         -949.721808

                     E (Thermal)             CV                S
                      KCal/Mol        Cal/Mol-Kelvin    Cal/Mol-Kelvin
 Total                  251.026             75.236            133.680
 Electronic               0.000              0.000              0.000
 Translational            0.889              2.981             42.893
 Rotational               0.889              2.981             34.107
 Vibrational            249.248             69.274             56.679
 Vibration     1          0.594              1.981              5.229
 Vibration     2          0.597              1.972              4.368
 Vibration     3          0.599              1.964              3.957
 Vibration     4          0.604              1.949              3.462
 Vibration     5          0.614              1.916              2.843
 Vibration     6          0.625              1.879              2.431
 Vibration     7          0.633              1.856              2.247
 Vibration     8          0.642              1.825              2.043
 Vibration     9          0.647              1.811              1.960
 Vibration    10          0.653              1.793              1.867
 Vibration    11          0.663              1.762              1.728
 Vibration    12          0.668              1.745              1.660
 Vibration    13          0.674              1.729              1.598
 Vibration    14          0.683              1.702              1.504
 Vibration    15          0.699              1.656              1.365
 Vibration    16          0.716              1.606              1.238
 Vibration    17          0.717              1.603              1.229
 Vibration    18          0.734              1.556              1.124
 Vibration    19          0.744              1.528              1.068
 Vibration    20          0.761              1.484              0.986
 Vibration    21          0.779              1.436              0.907
 Vibration    22          0.787              1.416              0.875
 Vibration    23          0.812              1.353              0.785
 Vibration    24          0.814              1.348              0.778
 Vibration    25          0.828              1.315              0.736
 Vibration    26          0.843              1.279              0.691
 Vibration    27          0.886              1.181              0.584
 Vibration    28          0.909              1.132              0.536
 Vibration    29          0.928              1.093              0.502
 Vibration    30          0.946              1.056              0.470
 Vibration    31          0.973              1.003              0.426

                           ! Non-Optimized Parameters !
 Normal termination of Gaussian 16 at Tue Mar  1 22:59:42 2022.

 ------------------------------------------
 #p b3lyp/6-31G(d) geom=allcheck guess=read
 ------------------------------------------

 Structure from the checkpoint file:  "255.n.pdb.xyz.mst.wat.chk"
 -------------
 255.n.pdb.xyz
 -------------
 Charge =  0 Multiplicity = 1

 SCF Done:  E(RB3LYP) =  -950.039378496     A.U. after   11 cycles
 Normal termination of Gaussian 16 at Tue Mar  1 23:03:43 2022.
 Gaussian 16:  ES64L-G16RevA.03 25-Dec-2016

 ----------------------------------------------------------------------
 #p b3lyp/6-31G(d) scrf=(iefpcm,read,solvent=water) geom=allcheck guess
 =read
 ----------------------------------------------------------------------

 Structure from the checkpoint file:  "255.n.pdb.xyz.mst.wat.chk"
 -------------
 255.n.pdb.xyz
 -------------
 Charge =  0 Multiplicity = 1

                         Standard orientation:
 ---------------------------------------------------------------------
 Center     Atomic      Atomic             Coordinates (Angstroms)
 Number     Number       Type             X           Y           Z
 ---------------------------------------------------------------------
      1          6           0       -2.192095   -0.111176    2.065172
      2          6           0       -2.215161    0.551850    0.672681
      3          6           0       -1.404334    1.853347    0.679144
      4          6           0        0.105443    1.556368    0.733087
      5          6           0        0.593120    0.646186   -0.424795
      6          6           0       -0.209521   -0.678721   -0.500290
      7          6           0        0.300034   -1.676061    0.549353
      8          6           0        1.747131   -2.056663    0.229634
      9          6           0        2.635275   -0.849210   -0.001620
     10          6           0        4.025834   -1.003685    0.093003
     11          6           0        4.888627    0.065937   -0.147509
     12          8           0        6.248327   -0.041158   -0.063571
     13          6           0        4.358468    1.315468   -0.492100
     14          6           0        2.979845    1.466298   -0.580805
     15          6           0        2.093509    0.404542   -0.337376
     16          6           0       -1.704815   -0.339713   -0.491588
     17          6           0       -2.756265   -1.457448   -0.590515
     18          6           0       -4.064844   -0.787725   -0.107144
     19          9           0       -5.055349   -0.828247   -1.095318
     20          6           0       -3.708733    0.677475    0.261884
     21          8           0       -3.915039    1.475671   -0.897677
     22          1           0       -1.188406   -0.140656    2.491023
     23          1           0       -2.826917    0.458874    2.752741
     24          1           0       -2.568948   -1.137337    2.040620
     25          1           0       -1.688543    2.492109    1.524547
     26          1           0       -1.628226    2.411694   -0.237348
     27          1           0        0.356112    1.082754    1.689633
     28          1           0        0.665629    2.496908    0.704852
     29          1           0        0.393683    1.195168   -1.355998
     30          1           0        0.007670   -1.131204   -1.479669
     31          1           0        0.253599   -1.239577    1.551550
     32          1           0       -0.326478   -2.574190    0.565150
     33          1           0        1.760061   -2.683302   -0.673461
     34          1           0        2.171781   -2.674061    1.027741
     35          1           0        4.435628   -1.975319    0.357657
     36          1           0        6.486725   -0.953235    0.178756
     37          1           0        5.030428    2.145009   -0.684728
     38          1           0        2.574124    2.438212   -0.849621
     39          1           0       -1.856229    0.291472   -1.377243
     40          1           0       -2.886745   -1.827390   -1.610694
     41          1           0       -2.506841   -2.314248    0.042155
     42          1           0       -4.479051   -1.299826    0.764008
     43          1           0       -4.327179    1.048607    1.088241
     44          1           0       -3.849165    2.405249   -0.623364
 ---------------------------------------------------------------------

 SCF Done:  E(RB3LYP) =  -950.057819405     A.U. after   10 cycles

 The electronic state is 1-A.
 Alpha  occ. eigenvalues --  -24.66902 -19.17179 -19.14407 -10.25388 -10.24506
 Alpha  occ. eigenvalues --  -10.22964 -10.19323 -10.18723 -10.18567 -10.18543
 Alpha  occ. eigenvalues --  -10.18283 -10.18148 -10.18112 -10.18108 -10.18051
 Alpha  occ. eigenvalues --  -10.17714 -10.17663 -10.17640 -10.17464 -10.17442
 Alpha  occ. eigenvalues --  -10.17094  -1.17403  -1.05105  -1.01692  -0.86563
 Alpha  occ. eigenvalues --   -0.84751  -0.80517  -0.78385  -0.75884  -0.73881
 Alpha  occ. eigenvalues --   -0.72517  -0.70229  -0.68643  -0.66803  -0.63133
 Alpha  occ. eigenvalues --   -0.61337  -0.60206  -0.58577  -0.56526  -0.55308
 Alpha  occ. eigenvalues --   -0.53215  -0.52414  -0.50647  -0.49077  -0.48180
 Alpha  occ. eigenvalues --   -0.47942  -0.46648  -0.45394  -0.44759  -0.43620
 Alpha  occ. eigenvalues --   -0.43221  -0.42153  -0.41796  -0.41025  -0.40585
 Alpha  occ. eigenvalues --   -0.40101  -0.39894  -0.39234  -0.38151  -0.38026
 Alpha  occ. eigenvalues --   -0.37676  -0.37155  -0.36170  -0.35059  -0.35014
 Alpha  occ. eigenvalues --   -0.34380  -0.33437  -0.32277  -0.32099  -0.31645
 Alpha  occ. eigenvalues --   -0.31042  -0.30754  -0.29043  -0.28878  -0.28267
 Alpha  occ. eigenvalues --   -0.25822  -0.24181  -0.21211
 Alpha virt. eigenvalues --   -0.00175   0.01611   0.06942   0.08152   0.09206
 Alpha virt. eigenvalues --    0.09936   0.10702   0.11085   0.11688   0.12705
 Alpha virt. eigenvalues --    0.13386   0.14155   0.14477   0.15437   0.15797

 Mulliken charges:
               1
     1  C   -0.490365
     2  C    0.072596
     3  C   -0.287775
     4  C   -0.276467
     5  C   -0.177167
     6  C   -0.098655
     7  C   -0.282993
     8  C   -0.348077
     9  C    0.100583
    10  C   -0.284864
    11  C    0.350694
    12  O   -0.686369
    13  C   -0.193654
    14  C   -0.216898
    15  C    0.107957
    16  C   -0.104396
    17  C   -0.341938
    18  C    0.214226
    19  F   -0.354579
    20  C    0.075694
    21  O   -0.674182
    22  H    0.159691
    23  H    0.149957
    24  H    0.154412
    25  H    0.133352
    26  H    0.131098
    27  H    0.138156
    28  H    0.139729
    29  H    0.133803
    30  H    0.123809
    31  H    0.143429
    32  H    0.139729
    33  H    0.157539
    34  H    0.151206
    35  H    0.141216
    36  H    0.457932
    37  H    0.141154
    38  H    0.140625
    39  H    0.134943
    40  H    0.152426
    41  H    0.154873
    42  H    0.144050
    43  H    0.130257
    44  H    0.443244
 Sum of Mulliken charges =  -0.00000

 Dipole moment (field-independent basis, Debye):
    X=              1.3572    Y=             -0.8822    Z=              3.3353  Tot=              3.7073
 Quadrupole moment (field-independent basis, Debye-Ang):
   XX=           -139.9903   YY=           -110.5549   ZZ=           -127.8401
   XY=            -17.8796   XZ=             -9.7129   YZ=             -1.7593

 Normal termination of Gaussian 16 at Tue Mar  1 23:07:56 2022.
