 Gaussian 16, Revision A.03,

 ----------------------------------------------------------------------
 #p b3lyp/6-31G(d) opt=(MaxStep=10,MaxCycles=1000) freq scf=(MaxCycle=2
 000,NoVarAcc,NoIncFock) scrf=(iefpcm,read,solvent=water)
 ----------------------------------------------------------------------

 -------------
 256.n.pdb.xyz
 -------------
 Symbolic Z-matrix:
 Charge =  0 Multiplicity = 1

 SCF Done:  E(RB3LYP) =  -421.576678618     A.U. after   12 cycles
 SCF Done:  E(RB3LYP) =  -421.578429428     A.U. after   10 cycles
 SCF Done:  E(RB3LYP) =  -421.578622737     A.U. after   10 cycles
 SCF Done:  E(RB3LYP) =  -421.578659574     A.U. after    9 cycles
 SCF Done:  E(RB3LYP) =  -421.578665393     A.U. after    8 cycles
 SCF Done:  E(RB3LYP) =  -421.578673629     A.U. after    9 cycles
 SCF Done:  E(RB3LYP) =  -421.578674808     A.U. after    8 cycles
 SCF Done:  E(RB3LYP) =  -421.578675206     A.U. after    8 cycles
 SCF Done:  E(RB3LYP) =  -421.578675819     A.U. after    7 cycles
 SCF Done:  E(RB3LYP) =  -421.578675730     A.U. after    7 cycles
 Optimization completed.
    -- Stationary point found.
 Normal termination of Gaussian 16 at Wed Mar  2 00:12:53 2022.

 --------------------------------------------------------------------
 #P Geom=AllCheck Guess=TCheck SCRF=Check GenChk RB3LYP/6-31G(d) Freq
 --------------------------------------------------------------------

 Structure from the checkpoint file:  "256.n.pdb.xyz.mst.wat.chk"
 -------------
 256.n.pdb.xyz
 -------------
 Charge =  0 Multiplicity = 1

 SCF Done:  E(RB3LYP) =  -421.578675730     A.U. after    1 cycles

  Exact polarizability: 155.921  -6.585 134.314 -19.713  -4.869  81.627
 Approx polarizability: 163.599  -5.825 157.245 -25.596  -7.896  91.689

                      1                      2                      3
                      A                      A                      A
 Frequencies --     42.6741                83.4456                89.2697
 Red. masses --      3.2271                 3.6071                 1.9202
 Frc consts  --      0.0035                 0.0148                 0.0090
 IR Inten    --      1.5641                 1.8392                 2.2220

                      4                      5                      6
                      A                      A                      A
 Frequencies --    123.5936               215.4529               243.0012
 Red. masses --      2.4482                 3.1804                 1.1814
 Frc consts  --      0.0220                 0.0870                 0.0411
 IR Inten    --      3.5048                 1.5733                 2.0626

                      7                      8                      9
                      A                      A                      A
 Frequencies --    290.1024               342.6263               402.1365
 Red. masses --      4.6310                 2.5897                 2.8491
 Frc consts  --      0.2296                 0.1791                 0.2715
 IR Inten    --      2.4455                 4.0210                 2.9801

                     10                     11                     12
                      A                      A                      A
 Frequencies --    419.0164               529.7862               611.3004
 Red. masses --      3.6183                 2.8835                 5.3423
 Frc consts  --      0.3743                 0.4768                 1.1762
 IR Inten    --      6.7888                12.6665                14.7723

                     13                     14                     15
                      A                      A                      A
 Frequencies --    644.1846               768.0917               784.4055
 Red. masses --      6.2405                 2.1757                 1.5642
 Frc consts  --      1.5258                 0.7563                 0.5671
 IR Inten    --      2.8159                14.3404                16.8897

                     16                     17                     18
                      A                      A                      A
 Frequencies --    807.0682               823.7699               856.8261
 Red. masses --      1.2818                 1.6252                 2.5391
 Frc consts  --      0.4919                 0.6498                 1.0983
 IR Inten    --     15.3824               127.6175                47.1868

                     19                     20                     21
                      A                      A                      A
 Frequencies --    915.0535               981.6876               995.9538
 Red. masses --      1.3182                 1.4268                 1.9354
 Frc consts  --      0.6503                 0.8101                 1.1311
 IR Inten    --      1.5727                 0.2912                 7.8769

                     22                     23                     24
                      A                      A                      A
 Frequencies --   1010.5718              1020.1448              1030.7225
 Red. masses --      5.8794                 1.2993                 2.4008
 Frc consts  --      3.5377                 0.7967                 1.5027
 IR Inten    --     13.2754                 0.0477                 5.7369

                     25                     26                     27
                      A                      A                      A
 Frequencies --   1056.8998              1078.0666              1117.0616
 Red. masses --      2.0276                 2.2820                 1.4140
 Frc consts  --      1.3344                 1.5626                 1.0395
 IR Inten    --      8.5960                 8.7069                 5.5080

                     28                     29                     30
                      A                      A                      A
 Frequencies --   1139.5456              1154.2929              1181.5567
 Red. masses --      2.5825                 1.4118                 1.1123
 Frc consts  --      1.9759                 1.1083                 0.9149
 IR Inten    --     43.6751                28.9161                 7.4498

                     31                     32                     33
                      A                      A                      A
 Frequencies --   1187.9834              1251.3432              1261.7913
 Red. masses --      1.8074                 2.0044                 1.7043
 Frc consts  --      1.5029                 1.8492                 1.5987
 IR Inten    --     13.6198                 5.3736                12.5678

                     34                     35                     36
                      A                      A                      A
 Frequencies --   1306.5546              1316.2306              1329.9570
 Red. masses --      3.4891                 1.2578                 1.6819
 Frc consts  --      3.5093                 1.2838                 1.7528
 IR Inten    --      2.9919                 7.0588                 3.8949

                     37                     38                     39
                      A                      A                      A
 Frequencies --   1354.3412              1408.1931              1470.0293
 Red. masses --      1.3621                 1.4601                 1.1825
 Frc consts  --      1.4720                 1.7059                 1.5056
 IR Inten    --      1.5638                24.7198                 4.9287

                     40                     41                     42
                      A                      A                      A
 Frequencies --   1478.7289              1500.5510              1503.2157
 Red. masses --      2.0291                 1.2105                 1.1031
 Frc consts  --      2.6142                 1.6059                 1.4686
 IR Inten    --     48.2505                23.9642                 2.9462

                     43                     44                     45
                      A                      A                      A
 Frequencies --   1506.2036              1522.4823              1535.5255
 Red. masses --      1.0841                 2.2908                 1.0520
 Frc consts  --      1.4490                 3.1285                 1.4614
 IR Inten    --      5.8247                43.1282                18.2106

                     46                     47                     48
                      A                      A                      A
 Frequencies --   1546.2450              1628.8778              1650.3481
 Red. masses --      1.0877                 5.6901                 5.3872
 Frc consts  --      1.5321                 8.8951                 8.6450
 IR Inten    --      2.2241                33.6548                85.9019

                     49                     50                     51
                      A                      A                      A
 Frequencies --   2957.4011              2979.0833              3064.7480
 Red. masses --      1.0722                 1.0585                 1.0657
 Frc consts  --      5.5250                 5.5349                 5.8974
 IR Inten    --    124.6781               149.6183                21.5378

                     52                     53                     54
                      A                      A                      A
 Frequencies --   3071.7186              3083.3887              3113.5293
 Red. masses --      1.0803                 1.0759                 1.1049
 Frc consts  --      6.0056                 6.0264                 6.3105
 IR Inten    --     71.4836                72.0156                57.9516

                     55                     56                     57
                      A                      A                      A
 Frequencies --   3130.8606              3185.8491              3211.5904
 Red. masses --      1.1025                 1.0893                 1.0877
 Frc consts  --      6.3672                 6.5143                 6.6099
 IR Inten    --     57.9349                49.3122                 8.4974

                     58                     59                     60
                      A                      A                      A
 Frequencies --   3225.3756              3235.8800              3488.8261
 Red. masses --      1.0929                 1.0976                 1.0742
 Frc consts  --      6.6985                 6.7712                 7.7040
 IR Inten    --     35.5646                23.2110                 1.4054

 - Thermochemistry -
 -------------------
 Temperature   298.150 Kelvin.  Pressure   1.00000 Atm.
 Atom     1 has atomic number  6 and mass  12.00000

 Molecular mass:   136.10005 amu.
 Principal axes and moments of inertia in atomic units:
                           1         2         3
     Eigenvalues --   467.086023120.739813323.09486
           X            0.99999   0.00144   0.00479
           Y           -0.00155   0.99968   0.02508
           Z           -0.00475  -0.02509   0.99967
 This molecule is an asymmetric top.
 Rotational symmetry number  1.
 Warning -- assumption of classical behavior for rotation
           may cause significant error
 Rotational temperatures (Kelvin)      0.18543     0.02775     0.02606
 Rotational constants (GHZ):           3.86383     0.57831     0.54309
 Zero-point vibrational energy     504017.6 (Joules/Mol)
                                  120.46310 (Kcal/Mol)
 Warning -- explicit consideration of  12 degrees of freedom as
           vibrations may cause significant error
 Vibrational temperatures:     61.40   120.06   128.44   177.82   309.99
          (Kelvin)            349.62   417.39   492.96   578.58   602.87
                              762.24   879.52   926.84  1105.11  1128.58
                             1161.19  1185.22  1232.78  1316.56  1412.43
                             1432.96  1453.99  1467.76  1482.98  1520.64
                             1551.10  1607.20  1639.55  1660.77  1700.00
                             1709.24  1800.40  1815.44  1879.84  1893.76
                             1913.51  1948.59  2026.08  2115.04  2127.56
                             2158.96  2162.79  2167.09  2190.51  2209.28
                             2224.70  2343.59  2374.48  4255.04  4286.24
                             4409.49  4419.52  4436.31  4479.67  4504.61
                             4583.73  4620.76  4640.60  4655.71  5019.64

 Zero-point correction=                           0.191970 (Hartree/Particle)
 Thermal correction to Energy=                    0.201682
 Thermal correction to Enthalpy=                  0.202626
 Thermal correction to Gibbs Free Energy=         0.155954
 Sum of electronic and zero-point Energies=           -421.386706
 Sum of electronic and thermal Energies=              -421.376994
 Sum of electronic and thermal Enthalpies=            -421.376050
 Sum of electronic and thermal Free Energies=         -421.422722

                     E (Thermal)             CV                S
                      KCal/Mol        Cal/Mol-Kelvin    Cal/Mol-Kelvin
 Total                  126.557             35.672             98.230
 Electronic               0.000              0.000              0.000
 Translational            0.889              2.981             40.637
 Rotational               0.889              2.981             29.961
 Vibrational            124.780             29.711             27.632
 Vibration     1          0.595              1.980              5.131
 Vibration     2          0.600              1.961              3.808
 Vibration     3          0.602              1.957              3.676
 Vibration     4          0.610              1.929              3.043
 Vibration     5          0.645              1.817              1.997
 Vibration     6          0.659              1.774              1.781
 Vibration     7          0.686              1.692              1.473
 Vibration     8          0.722              1.590              1.200
 Vibration     9          0.768              1.466              0.955
 Vibration    10          0.782              1.429              0.895
 Vibration    11          0.885              1.184              0.588
 Vibration    12          0.970              1.008              0.431

 Optimization completed.
    -- Stationary point found.
 Normal termination of Gaussian 16 at Wed Mar  2 00:20:40 2022.

 ------------------------------------------
 #p b3lyp/6-31G(d) geom=allcheck guess=read
 ------------------------------------------

 Structure from the checkpoint file:  "256.n.pdb.xyz.mst.wat.chk"
 -------------
 256.n.pdb.xyz
 -------------
 Charge =  0 Multiplicity = 1

 SCF Done:  E(RB3LYP) =  -421.568098368     A.U. after   11 cycles
 Normal termination of Gaussian 16 at Wed Mar  2 00:21:30 2022.
 Gaussian 16:  ES64L-G16RevA.03 25-Dec-2016

 ----------------------------------------------------------------------
 #p b3lyp/6-31G(d) scrf=(iefpcm,read,solvent=water) geom=allcheck guess
 =read
 ----------------------------------------------------------------------

 Structure from the checkpoint file:  "256.n.pdb.xyz.mst.wat.chk"
 -------------
 256.n.pdb.xyz
 -------------
 Charge =  0 Multiplicity = 1

                         Standard orientation:
 ---------------------------------------------------------------------
 Center     Atomic      Atomic             Coordinates (Angstroms)
 Number     Number       Type             X           Y           Z
 ---------------------------------------------------------------------
      1          6           0       -4.117852   -0.299510   -0.673407
      2          7           0       -3.126098    0.107255    0.320689
      3          6           0       -1.759946   -0.051520   -0.174281
      4          6           0       -0.735937    0.403668    0.875318
      5          6           0        0.686833    0.186471    0.417706
      6          7           0        1.140317   -1.081804    0.436623
      7          6           0        2.390506   -1.312313    0.013527
      8          6           0        3.250321   -0.315317   -0.444794
      9          6           0        2.780146    0.996536   -0.463767
     10          6           0        1.481798    1.249911   -0.027050
     11          1           0       -4.037620   -1.377261   -0.851488
     12          1           0       -5.122802   -0.093743   -0.294569
     13          1           0       -4.006697    0.206794   -1.647393
     14          1           0       -3.273356    1.094441    0.529517
     15          1           0       -1.585803    0.496233   -1.118206
     16          1           0       -1.596695   -1.113330   -0.395644
     17          1           0       -0.891575    1.465033    1.099685
     18          1           0       -0.910887   -0.159357    1.797572
     19          1           0        2.722047   -2.347501    0.046462
     20          1           0        4.253475   -0.563218   -0.771991
     21          1           0        3.412153    1.807714   -0.809639
     22          1           0        1.083011    2.258480   -0.025011
 ---------------------------------------------------------------------

 SCF Done:  E(RB3LYP) =  -421.578218715     A.U. after   11 cycles

 The electronic state is 1-A.
 Alpha  occ. eigenvalues --  -14.33196 -14.31434 -10.22954 -10.22332 -10.20635
 Alpha  occ. eigenvalues --  -10.20436 -10.19586 -10.19578 -10.19539 -10.18412
 Alpha  occ. eigenvalues --   -0.94237  -0.89597  -0.80138  -0.78806  -0.72802
 Alpha  occ. eigenvalues --   -0.66207  -0.62971  -0.61771  -0.58962  -0.51374
 Alpha  occ. eigenvalues --   -0.49095  -0.47838  -0.46446  -0.44140  -0.43429
 Alpha  occ. eigenvalues --   -0.41452  -0.40557  -0.40014  -0.38892  -0.36510
 Alpha  occ. eigenvalues --   -0.35527  -0.34472  -0.34325  -0.28611  -0.26064
 Alpha  occ. eigenvalues --   -0.25484  -0.22474
 Alpha virt. eigenvalues --   -0.02562  -0.00896   0.09531   0.10299   0.12508
 Alpha virt. eigenvalues --    0.13656   0.13956   0.14747   0.16188   0.16633
 Alpha virt. eigenvalues --    0.17963   0.18231   0.18666   0.19700   0.20036

 Mulliken charges:
               1
     1  C   -0.305794
     2  N   -0.594054
     3  C   -0.112013
     4  C   -0.333694
     5  C    0.298075
     6  N   -0.518471
     7  C    0.026276
     8  C   -0.154176
     9  C   -0.110853
    10  C   -0.181496
    11  H    0.152271
    12  H    0.153650
    13  H    0.128300
    14  H    0.335090
    15  H    0.119783
    16  H    0.146481
    17  H    0.155016
    18  H    0.155244
    19  H    0.156154
    20  H    0.160135
    21  H    0.167201
    22  H    0.156873
 Sum of Mulliken charges =  -0.00000

 Dipole moment (field-independent basis, Debye):
    X=              1.3119    Y=              3.2173    Z=             -1.7914  Tot=              3.9091
 Quadrupole moment (field-independent basis, Debye-Ang):
   XX=            -49.7746   YY=            -56.6069   ZZ=            -63.1303
   XY=             -3.0110   XZ=              0.0984   YZ=              1.8779

 Normal termination of Gaussian 16 at Wed Mar  2 00:22:29 2022.
