 Gaussian 16, Revision A.03,

 ----------------------------------------------------------------------
 #p b3lyp/6-31G(d) opt=(MaxStep=10,MaxCycles=1000) freq scf=(MaxCycle=2
 000,NoVarAcc,NoIncFock) scrf=(iefpcm,read,solvent=water)
 ----------------------------------------------------------------------

 -------------
 257.n.pdb.xyz
 -------------
 Symbolic Z-matrix:
 Charge =  0 Multiplicity = 1

 SCF Done:  E(RB3LYP) =  -515.499887012     A.U. after   13 cycles
 SCF Done:  E(RB3LYP) =  -515.501900344     A.U. after   10 cycles
 SCF Done:  E(RB3LYP) =  -515.502192386     A.U. after   10 cycles
 SCF Done:  E(RB3LYP) =  -515.502192607     A.U. after    9 cycles
 SCF Done:  E(RB3LYP) =  -515.502231469     A.U. after    8 cycles
 SCF Done:  E(RB3LYP) =  -515.502231755     A.U. after    8 cycles
 SCF Done:  E(RB3LYP) =  -515.502232242     A.U. after    7 cycles
 Optimization completed.
    -- Stationary point found.
 Normal termination of Gaussian 16 at Wed Mar  2 03:01:37 2022.

 --------------------------------------------------------------------
 #P Geom=AllCheck Guess=TCheck SCRF=Check GenChk RB3LYP/6-31G(d) Freq
 --------------------------------------------------------------------

 Structure from the checkpoint file:  "257.n.pdb.xyz.mst.wat.chk"
 -------------
 257.n.pdb.xyz
 -------------
 Charge =  0 Multiplicity = 1

 SCF Done:  E(RB3LYP) =  -515.502232242     A.U. after    1 cycles

  Exact polarizability: 196.977   4.068 143.195  -0.001  -0.000  51.757
 Approx polarizability: 210.398   5.296 175.990   0.000  -0.000  60.592

 ******    1 imaginary frequencies (negative Signs) ******

                      1                      2                      3
                      A                      A                      A
 Frequencies --    -34.8462                67.9989                78.5802
 Red. masses --      1.1222                 4.6525                 3.7022
 Frc consts  --      0.0008                 0.0127                 0.0135
 IR Inten    --      0.0001                 4.1133                 5.9431

                      4                      5                      6
                      A                      A                      A
 Frequencies --    159.7937               185.2801               308.8561
 Red. masses --      4.9794                 5.5788                 6.7398
 Frc consts  --      0.0749                 0.1128                 0.3788
 IR Inten    --      6.2957                 0.0297                15.9325

                      7                      8                      9
                      A                      A                      A
 Frequencies --    321.9935               383.3803               402.8715
 Red. masses --      4.0532                 6.1725                 3.8129
 Frc consts  --      0.2476                 0.5345                 0.3646
 IR Inten    --      0.8148                 6.2877                10.1282

                     10                     11                     12
                      A                      A                      A
 Frequencies --    426.9771               432.8225               505.9273
 Red. masses --      2.2490                 1.2682                 4.6323
 Frc consts  --      0.2416                 0.1400                 0.6986
 IR Inten    --     42.6254               150.9534                40.0977

                     13                     14                     15
                      A                      A                      A
 Frequencies --    535.7551               553.2253               624.3003
 Red. masses --      2.2661                 1.4826                 1.9106
 Frc consts  --      0.3832                 0.2674                 0.4387
 IR Inten    --     38.7037               110.9142                16.9893

                     16                     17                     18
                      A                      A                      A
 Frequencies --    634.8134               658.5163               717.1814
 Red. masses --      5.4264                 6.0953                 4.5458
 Frc consts  --      1.2884                 1.5573                 1.3776
 IR Inten    --      1.8186                 1.7589                 0.2753

                     19                     20                     21
                      A                      A                      A
 Frequencies --    802.9369               822.0239               851.5292
 Red. masses --      4.9825                 1.3360                 1.5372
 Frc consts  --      1.8926                 0.5319                 0.6567
 IR Inten    --     36.4868                26.2383                59.6880

                     22                     23                     24
                      A                      A                      A
 Frequencies --    868.2156               939.9060               973.8249
 Red. masses --      5.4449                 1.2903                 1.2616
 Frc consts  --      2.4182                 0.6716                 0.7049
 IR Inten    --      7.3360                 1.4034                 1.7207

                     25                     26                     27
                      A                      A                      A
 Frequencies --    973.8887              1020.3008              1031.0761
 Red. masses --      6.1342                 2.3694                 1.6288
 Frc consts  --      3.4279                 1.4533                 1.0203
 IR Inten    --     22.1812                15.2045                28.7202

                     28                     29                     30
                      A                      A                      A
 Frequencies --   1063.7141              1126.8147              1190.1968
 Red. masses --      1.6706                 1.3358                 1.1664
 Frc consts  --      1.1137                 0.9993                 0.9735
 IR Inten    --      9.5526                28.2622                96.3844

                     31                     32                     33
                      A                      A                      A
 Frequencies --   1218.7181              1259.0219              1292.0894
 Red. masses --      1.4834                 3.5375                 2.0779
 Frc consts  --      1.2981                 3.3038                 2.0439
 IR Inten    --    304.2895                 4.6058               279.6507

                     34                     35                     36
                      A                      A                      A
 Frequencies --   1306.3482              1345.2030              1384.7745
 Red. masses --      3.2395                 1.6077                 2.7555
 Frc consts  --      3.2572                 1.7141                 3.1132
 IR Inten    --     10.4473                60.4586               147.0362

                     37                     38                     39
                      A                      A                      A
 Frequencies --   1417.4074              1465.4812              1489.4796
 Red. masses --      1.3249                 2.9279                 1.0823
 Frc consts  --      1.5682                 3.7048                 1.4147
 IR Inten    --     32.1552               213.6773                28.7595

                     40                     41                     42
                      A                      A                      A
 Frequencies --   1500.2703              1552.6537              1584.3018
 Red. masses --      1.0432                 2.6073                 2.1439
 Frc consts  --      1.3834                 3.7034                 3.1706
 IR Inten    --     10.0203               336.3020               545.6798

                     43                     44                     45
                      A                      A                      A
 Frequencies --   1653.9688              1677.0524              1733.4571
 Red. masses --      4.5745                 5.9641                 6.4685
 Frc consts  --      7.3731                 9.8829                11.4519
 IR Inten    --    105.0152                 3.2172               438.0630

                     46                     47                     48
                      A                      A                      A
 Frequencies --   3079.0885              3141.5902              3190.0256
 Red. masses --      1.0378                 1.1013                 1.1024
 Frc consts  --      5.7973                 6.4042                 6.6094
 IR Inten    --      6.5164                12.3883                18.8696

                     49                     50                     51
                      A                      A                      A
 Frequencies --   3194.4277              3214.0542              3216.2067
 Red. masses --      1.0893                 1.0928                 1.0916
 Frc consts  --      6.5493                 6.6514                 6.6530
 IR Inten    --     29.2123                40.5597                 3.8102

                     52                     53                     54
                      A                      A                      A
 Frequencies --   3284.2587              3587.3632              3721.7034
 Red. masses --      1.0914                 1.0785                 1.0668
 Frc consts  --      6.9357                 8.1776                 8.7058
 IR Inten    --      2.9869                95.3318               204.9410

 - Thermochemistry -
 -------------------
 Temperature   298.150 Kelvin.  Pressure   1.00000 Atm.
 Atom     1 has atomic number  6 and mass  12.00000

 Molecular mass:   151.06333 amu.
 Principal axes and moments of inertia in atomic units:
                           1         2         3
     Eigenvalues --   502.938893311.317293803.02853
           X            0.99997  -0.00813  -0.00000
           Y            0.00813   0.99997  -0.00000
           Z            0.00000   0.00000   1.00000
 This molecule is an asymmetric top.
 Rotational symmetry number  1.
 Warning -- assumption of classical behavior for rotation
           may cause significant error
 Rotational temperatures (Kelvin)      0.17222     0.02616     0.02277
 Rotational constants (GHZ):           3.58839     0.54502     0.47455
    1 imaginary frequencies ignored.
 Zero-point vibrational energy     419719.7 (Joules/Mol)
                                  100.31540 (Kcal/Mol)
 Warning -- explicit consideration of  13 degrees of freedom as
           vibrations may cause significant error
 Vibrational temperatures:     97.84   113.06   229.91   266.58   444.38
          (Kelvin)            463.28   551.60   579.64   614.32   622.74
                              727.92   770.83   795.97   898.23   913.35
                              947.46  1031.86  1155.25  1182.71  1225.16
                             1249.17  1352.32  1401.12  1401.21  1467.99
                             1483.49  1530.45  1621.23  1712.43  1753.46
                             1811.45  1859.03  1879.54  1935.45  1992.38
                             2039.33  2108.50  2143.03  2158.55  2233.92
                             2279.46  2379.69  2412.90  2494.06  4430.12
                             4520.05  4589.74  4596.07  4624.31  4627.40
                             4725.32  5161.42  5354.70

 Zero-point correction=                           0.159863 (Hartree/Particle)
 Thermal correction to Energy=                    0.169254
 Thermal correction to Enthalpy=                  0.170198
 Thermal correction to Gibbs Free Energy=         0.124893
 Sum of electronic and zero-point Energies=           -515.342369
 Sum of electronic and thermal Energies=              -515.332979
 Sum of electronic and thermal Enthalpies=            -515.332035
 Sum of electronic and thermal Free Energies=         -515.377339

                     E (Thermal)             CV                S
                      KCal/Mol        Cal/Mol-Kelvin    Cal/Mol-Kelvin
 Total                  106.208             36.489             95.352
 Electronic               0.000              0.000              0.000
 Translational            0.889              2.981             40.948
 Rotational               0.889              2.981             30.228
 Vibrational            104.431             30.527             24.177
 Vibration     1          0.598              1.969              4.210
 Vibration     2          0.600              1.964              3.926
 Vibration     3          0.622              1.892              2.552
 Vibration     4          0.631              1.860              2.275
 Vibration     5          0.698              1.657              1.368
 Vibration     6          0.707              1.631              1.300
 Vibration     7          0.753              1.506              1.026
 Vibration     8          0.768              1.464              0.952
 Vibration     9          0.789              1.412              0.869
 Vibration    10          0.794              1.399              0.849
 Vibration    11          0.861              1.237              0.643
 Vibration    12          0.891              1.171              0.574
 Vibration    13          0.909              1.133              0.538

                           ! Non-Optimized Parameters !
 Normal termination of Gaussian 16 at Wed Mar  2 03:09:34 2022.

 ------------------------------------------
 #p b3lyp/6-31G(d) geom=allcheck guess=read
 ------------------------------------------

 Structure from the checkpoint file:  "257.n.pdb.xyz.mst.wat.chk"
 -------------
 257.n.pdb.xyz
 -------------
 Charge =  0 Multiplicity = 1

 SCF Done:  E(RB3LYP) =  -515.478983681     A.U. after   12 cycles
 Normal termination of Gaussian 16 at Wed Mar  2 03:10:31 2022.
 Gaussian 16:  ES64L-G16RevA.03 25-Dec-2016

 ----------------------------------------------------------------------
 #p b3lyp/6-31G(d) scrf=(iefpcm,read,solvent=water) geom=allcheck guess
 =read
 ----------------------------------------------------------------------

 Structure from the checkpoint file:  "257.n.pdb.xyz.mst.wat.chk"
 -------------
 257.n.pdb.xyz
 -------------
 Charge =  0 Multiplicity = 1

                         Standard orientation:
 ---------------------------------------------------------------------
 Center     Atomic      Atomic             Coordinates (Angstroms)
 Number     Number       Type             X           Y           Z
 ---------------------------------------------------------------------
      1          6           0       -3.963607    0.485210    0.000196
      2          6           0       -2.614775   -0.212228   -0.000105
      3          8           0       -2.512660   -1.442042   -0.000159
      4          7           0       -1.547936    0.640639   -0.000124
      5          6           0       -0.168863    0.337382   -0.000031
      6          6           0        0.732971    1.411414   -0.000055
      7          6           0        2.109258    1.197937   -0.000028
      8          6           0        2.614730   -0.108516    0.000065
      9          8           0        3.950542   -0.400686    0.000028
     10          6           0        1.718882   -1.183043    0.000082
     11          6           0        0.342405   -0.970239    0.000031
     12          1           0       -4.074974    1.119602    0.884738
     13          1           0       -4.749524   -0.268954   -0.002127
     14          1           0       -4.073546    1.123698   -0.881509
     15          1           0       -1.769632    1.630074   -0.000114
     16          1           0        0.355497    2.428937   -0.000133
     17          1           0        2.781594    2.050619   -0.000073
     18          1           0        4.467903    0.423844    0.000066
     19          1           0        2.112394   -2.194045    0.000130
     20          1           0       -0.343224   -1.803942    0.000013
 ---------------------------------------------------------------------

 SCF Done:  E(RB3LYP) =  -515.500620001     A.U. after   11 cycles

 The electronic state is 1-A.
 Alpha  occ. eigenvalues --  -19.17305 -19.12105 -14.37099 -10.29550 -10.24773
 Alpha  occ. eigenvalues --  -10.23160 -10.19455 -10.19136 -10.18780 -10.18698
 Alpha  occ. eigenvalues --  -10.18574  -1.05182  -1.03644  -0.93748  -0.84547
 Alpha  occ. eigenvalues --   -0.75803  -0.75040  -0.71470  -0.63906  -0.61152
 Alpha  occ. eigenvalues --   -0.57728  -0.54384  -0.52469  -0.48337  -0.46158
 Alpha  occ. eigenvalues --   -0.45040  -0.44011  -0.42284  -0.42032  -0.40849
 Alpha  occ. eigenvalues --   -0.40037  -0.39159  -0.38250  -0.37651  -0.34238
 Alpha  occ. eigenvalues --   -0.34084  -0.28732  -0.25605  -0.25598  -0.20284
 Alpha virt. eigenvalues --   -0.00552  -0.00440   0.04999   0.09344   0.09822
 Alpha virt. eigenvalues --    0.10807   0.13753   0.15697   0.16725   0.16873
 Alpha virt. eigenvalues --    0.18646   0.19058   0.20351   0.22009   0.23862

 Mulliken charges:
               1
     1  C   -0.543329
     2  C    0.584999
     3  O   -0.563049
     4  N   -0.697842
     5  C    0.330772
     6  C   -0.214516
     7  C   -0.212608
     8  C    0.345036
     9  O   -0.684174
    10  C   -0.200115
    11  C   -0.185803
    12  H    0.189443
    13  H    0.178996
    14  H    0.189367
    15  H    0.389823
    16  H    0.159461
    17  H    0.157493
    18  H    0.459289
    19  H    0.147940
    20  H    0.168816
 Sum of Mulliken charges =  -0.00000

 Dipole moment (field-independent basis, Debye):
    X=              0.4888    Y=              6.9213    Z=              0.0011  Tot=              6.9386
 Quadrupole moment (field-independent basis, Debye-Ang):
   XX=            -51.3420   YY=            -59.8971   ZZ=            -66.1126
   XY=             -3.4916   XZ=             -0.0027   YZ=             -0.0002

 Normal termination of Gaussian 16 at Wed Mar  2 03:11:33 2022.
