 Gaussian 16, Revision A.03,

 ----------------------------------------------------------------------
 #p b3lyp/6-31G(d) opt=(MaxStep=10,MaxCycles=1000) freq scf=(MaxCycle=2
 000,NoVarAcc,NoIncFock) scrf=(iefpcm,read,solvent=water)
 ----------------------------------------------------------------------

 -------------
 258.n.pdb.xyz
 -------------
 Symbolic Z-matrix:
 Charge =  0 Multiplicity = 1

 SCF Done:  E(RB3LYP) =  -838.688750694     A.U. after   13 cycles
 SCF Done:  E(RB3LYP) =  -838.696479453     A.U. after   10 cycles
 SCF Done:  E(RB3LYP) =  -838.704978457     A.U. after   11 cycles
 SCF Done:  E(RB3LYP) =  -838.702410400     A.U. after   11 cycles
 SCF Done:  E(RB3LYP) =  -838.710395545     A.U. after   12 cycles
 SCF Done:  E(RB3LYP) =  -838.712425155     A.U. after   12 cycles
 SCF Done:  E(RB3LYP) =  -838.714169869     A.U. after   11 cycles
 SCF Done:  E(RB3LYP) =  -838.714457235     A.U. after   11 cycles
 SCF Done:  E(RB3LYP) =  -838.714831067     A.U. after   10 cycles
 SCF Done:  E(RB3LYP) =  -838.714981131     A.U. after   10 cycles
 SCF Done:  E(RB3LYP) =  -838.715114656     A.U. after    9 cycles
 SCF Done:  E(RB3LYP) =  -838.715117954     A.U. after    9 cycles
 SCF Done:  E(RB3LYP) =  -838.715121104     A.U. after    8 cycles
 SCF Done:  E(RB3LYP) =  -838.715132311     A.U. after    9 cycles
 SCF Done:  E(RB3LYP) =  -838.715126964     A.U. after    8 cycles
 SCF Done:  E(RB3LYP) =  -838.715127686     A.U. after    7 cycles
 SCF Done:  E(RB3LYP) =  -838.715128182     A.U. after    6 cycles
 Optimization completed.
    -- Stationary point found.
 Normal termination of Gaussian 16 at Wed Mar  2 04:44:16 2022.

 --------------------------------------------------------------------
 #P Geom=AllCheck Guess=TCheck SCRF=Check GenChk RB3LYP/6-31G(d) Freq
 --------------------------------------------------------------------

 Structure from the checkpoint file:  "258.n.pdb.xyz.mst.wat.chk"
 -------------
 258.n.pdb.xyz
 -------------
 Charge =  0 Multiplicity = 1

 SCF Done:  E(RB3LYP) =  -838.715128182     A.U. after    1 cycles

  Exact polarizability: 338.156  -2.678 249.584  -3.727 -16.343 126.907
 Approx polarizability: 355.785  -4.120 297.297  -3.345 -27.583 154.945

                      1                      2                      3
                      A                      A                      A
 Frequencies --     32.9943                61.5880                82.9152
 Red. masses --      5.9604                 4.8818                 4.9213
 Frc consts  --      0.0038                 0.0109                 0.0199
 IR Inten    --      3.3443                22.5019                10.0634

                      4                      5                      6
                      A                      A                      A
 Frequencies --    115.2341               146.5373               152.0079
 Red. masses --      4.0903                 4.8443                 5.1328
 Frc consts  --      0.0320                 0.0613                 0.0699
 IR Inten    --      1.0999                 2.2074                 3.0885

                      7                      8                      9
                      A                      A                      A
 Frequencies --    199.8646               224.6070               266.2951
 Red. masses --      7.1387                 5.4479                 5.1227
 Frc consts  --      0.1680                 0.1619                 0.2140
 IR Inten    --      6.7416                 8.9127                 1.1986

                     10                     11                     12
                      A                      A                      A
 Frequencies --    283.6345               294.8066               348.1413
 Red. masses --      8.2679                 6.6926                 4.1395
 Frc consts  --      0.3919                 0.3427                 0.2956
 IR Inten    --      0.3181                11.3182                10.6668

                     13                     14                     15
                      A                      A                      A
 Frequencies --    355.9959               360.2192               437.6757
 Red. masses --      4.9846                 1.2409                 4.2906
 Frc consts  --      0.3722                 0.0949                 0.4843
 IR Inten    --      0.8196               372.5102                 3.5511

                     16                     17                     18
                      A                      A                      A
 Frequencies --    446.0680               467.0876               489.4944
 Red. masses --      4.7521                 3.6586                 4.5680
 Frc consts  --      0.5571                 0.4703                 0.6449
 IR Inten    --      1.6341                 9.6258                 2.0779

                     19                     20                     21
                      A                      A                      A
 Frequencies --    532.9464               537.4595               575.0475
 Red. masses --      3.5844                 4.1581                 3.7281
 Frc consts  --      0.5998                 0.7077                 0.7263
 IR Inten    --      3.0216                 0.8028                13.2871

                     22                     23                     24
                      A                      A                      A
 Frequencies --    578.4629               626.0800               634.9760
 Red. masses --      3.9569                 5.9064                 1.9714
 Frc consts  --      0.7801                 1.3641                 0.4683
 IR Inten    --      1.8413                 7.5067                21.1517

                     25                     26                     27
                      A                      A                      A
 Frequencies --    644.9069               650.0515               701.2414
 Red. masses --      2.6031                 4.0517                 4.5115
 Frc consts  --      0.6379                 1.0087                 1.3071
 IR Inten    --     10.7530                57.8156                 8.9180

                     28                     29                     30
                      A                      A                      A
 Frequencies --    738.8305               749.1240               763.6214
 Red. masses --      4.6779                 4.7967                 1.3200
 Frc consts  --      1.5045                 1.5860                 0.4535
 IR Inten    --      1.3498                23.1669                88.5139

                     31                     32                     33
                      A                      A                      A
 Frequencies --    765.7818               779.7211               811.1754
 Red. masses --      2.3417                 1.9596                 5.1520
 Frc consts  --      0.8091                 0.7019                 1.9974
 IR Inten    --     53.0180                14.4676                 2.5550

                     34                     35                     36
                      A                      A                      A
 Frequencies --    850.3692               874.8564               897.2608
 Red. masses --      2.3507                 1.6387                 1.4856
 Frc consts  --      1.0015                 0.7390                 0.7047
 IR Inten    --      2.4573                 1.6878                 0.3798

                     37                     38                     39
                      A                      A                      A
 Frequencies --    909.7975               931.6008               946.5656
 Red. masses --      6.7111                 5.2483                 3.7118
 Frc consts  --      3.2729                 2.6837                 1.9595
 IR Inten    --     57.0173                93.5402                15.4513

                     40                     41                     42
                      A                      A                      A
 Frequencies --    950.0848               957.9634               984.1351
 Red. masses --      1.5773                 1.4548                 1.2565
 Frc consts  --      0.8389                 0.7866                 0.7170
 IR Inten    --     10.4199                 2.4727                 0.2867

                     43                     44                     45
                      A                      A                      A
 Frequencies --    991.2998               996.0995              1071.2234
 Red. masses --      2.1284                 2.0221                 2.4632
 Frc consts  --      1.2323                 1.1821                 1.6654
 IR Inten    --     12.4575                16.5054                11.1677

                     46                     47                     48
                      A                      A                      A
 Frequencies --   1083.5774              1086.2803              1129.3821
 Red. masses --      1.7509                 1.6928                 2.0715
 Frc consts  --      1.2112                 1.1769                 1.5567
 IR Inten    --      2.7728                56.1895                88.3232

                     49                     50                     51
                      A                      A                      A
 Frequencies --   1131.7071              1134.0116              1146.3483
 Red. masses --      1.5104                 1.6654                 1.9254
 Frc consts  --      1.1398                 1.2618                 1.4907
 IR Inten    --      4.1509                 4.7545                27.7232

                     52                     53                     54
                      A                      A                      A
 Frequencies --   1172.6116              1194.0097              1196.5004
 Red. masses --      2.6856                 1.1759                 1.2736
 Frc consts  --      2.1757                 0.9877                 1.0743
 IR Inten    --     75.6663                32.9041                 9.1575

                     55                     56                     57
                      A                      A                      A
 Frequencies --   1218.7821              1237.2911              1272.8804
 Red. masses --      2.3005                 2.0793                 4.3608
 Frc consts  --      2.0134                 1.8755                 4.1628
 IR Inten    --     46.5113               234.2325               470.1555

                     58                     59                     60
                      A                      A                      A
 Frequencies --   1303.0761              1320.3384              1331.8977
 Red. masses --      1.6633                 2.8319                 2.7023
 Frc consts  --      1.6640                 2.9087                 2.8243
 IR Inten    --     51.2505                74.8796                42.3534

                     61                     62                     63
                      A                      A                      A
 Frequencies --   1350.9492              1356.5009              1362.0808
 Red. masses --      2.1278                 2.5175                 2.7095
 Frc consts  --      2.2880                 2.7293                 2.9618
 IR Inten    --     66.8197               324.3927                32.2621

                     64                     65                     66
                      A                      A                      A
 Frequencies --   1387.8153              1480.7461              1493.6405
 Red. masses --      1.2270                 2.4754                 2.1612
 Frc consts  --      1.3923                 3.1979                 2.8408
 IR Inten    --     58.6666                93.3465               161.2780

                     67                     68                     69
                      A                      A                      A
 Frequencies --   1499.1618              1519.5357              1540.6842
 Red. masses --      2.3668                 2.8158                 3.1047
 Frc consts  --      3.1340                 3.8307                 4.3421
 IR Inten    --     60.3842                93.8354                38.9517

                     70                     71                     72
                      A                      A                      A
 Frequencies --   1619.0837              1622.2605              1627.7524
 Red. masses --      4.8389                 1.3273                 4.9423
 Frc consts  --      7.4737                 2.0581                 7.7153
 IR Inten    --     17.4082               152.5394                21.1416

                     73                     74                     75
                      A                      A                      A
 Frequencies --   1659.7798              1666.8141              1759.4973
 Red. masses --      6.1050                 5.9714                 9.8034
 Frc consts  --      9.9091                 9.7747                17.8816
 IR Inten    --     89.2040                 5.5251               808.0120

                     76                     77                     78
                      A                      A                      A
 Frequencies --   3139.7508              3147.0703              3204.0820
 Red. masses --      1.0874                 1.0856                 1.0866
 Frc consts  --      6.3157                 6.3350                 6.5726
 IR Inten    --      9.8794                47.7579                 3.6357

                     79                     80                     81
                      A                      A                      A
 Frequencies --   3207.1066              3209.0580              3214.7859
 Red. masses --      1.0863                 1.0909                 1.0904
 Frc consts  --      6.5828                 6.6190                 6.6398
 IR Inten    --      3.5784                32.5766                24.5677

                     82                     83                     84
                      A                      A                      A
 Frequencies --   3228.9619              3229.5736              3236.2912
 Red. masses --      1.0946                 1.0962                 1.0942
 Frc consts  --      6.7239                 6.7361                 6.7522
 IR Inten    --     46.9819                39.4338                13.2166

                     85                     86                     87
                      A                      A                      A
 Frequencies --   3258.6751              3571.2207              3692.2504
 Red. masses --      1.0908                 1.0461                 1.1078
 Frc consts  --      6.8245                 7.8603                 8.8981
 IR Inten    --      4.9048               157.0134               133.2419

 - Thermochemistry -
 -------------------
 Temperature   298.150 Kelvin.  Pressure   1.00000 Atm.
 Atom     1 has atomic number  7 and mass  14.00307

 Molecular mass:   252.08988 amu.
 Principal axes and moments of inertia in atomic units:
                           1         2         3
     Eigenvalues --  2922.693134970.446257255.69151
           X            1.00000   0.00073  -0.00156
           Y           -0.00072   0.99994   0.01056
           Z            0.00157  -0.01056   0.99994
 This molecule is an asymmetric top.
 Rotational symmetry number  1.
 Warning -- assumption of classical behavior for rotation
           may cause significant error
 Rotational temperatures (Kelvin)      0.02963     0.01743     0.01194
 Rotational constants (GHZ):           0.61749     0.36309     0.24873
 Zero-point vibrational energy     636770.2 (Joules/Mol)
                                  152.19174 (Kcal/Mol)
 Warning -- explicit consideration of  22 degrees of freedom as
           vibrations may cause significant error
 Vibrational temperatures:     47.47    88.61   119.30   165.80   210.83
          (Kelvin)            218.71   287.56   323.16   383.14   408.09
                              424.16   500.90   512.20   518.28   629.72
                              641.79   672.03   704.27   766.79   773.28
                              827.37   832.28   900.79   913.59   927.88
                              935.28  1008.93  1063.01  1077.82  1098.68
                             1101.79  1121.84  1167.10  1223.49  1258.72
                             1290.96  1309.00  1340.37  1361.90  1366.96
                             1378.30  1415.95  1426.26  1433.17  1541.25
                             1559.03  1562.92  1624.93  1628.27  1631.59
                             1649.34  1687.13  1717.91  1721.50  1753.56
                             1780.19  1831.39  1874.84  1899.67  1916.30
                             1943.71  1951.70  1959.73  1996.76  2130.46
                             2149.02  2156.96  2186.27  2216.70  2329.50
                             2334.07  2341.97  2388.05  2398.17  2531.52
                             4517.40  4527.93  4609.96  4614.31  4617.12
                             4625.36  4645.76  4646.64  4656.30  4688.51
                             5138.19  5312.32

 Zero-point correction=                           0.242533 (Hartree/Particle)
 Thermal correction to Energy=                    0.257159
 Thermal correction to Enthalpy=                  0.258103
 Thermal correction to Gibbs Free Energy=         0.200749
 Sum of electronic and zero-point Energies=           -838.472595
 Sum of electronic and thermal Energies=              -838.457969
 Sum of electronic and thermal Enthalpies=            -838.457025
 Sum of electronic and thermal Free Energies=         -838.514379

                     E (Thermal)             CV                S
                      KCal/Mol        Cal/Mol-Kelvin    Cal/Mol-Kelvin
 Total                  161.370             59.421            120.713
 Electronic               0.000              0.000              0.000
 Translational            0.889              2.981             42.474
 Rotational               0.889              2.981             33.022
 Vibrational            159.592             53.459             45.217
 Vibration     1          0.594              1.983              5.641
 Vibration     2          0.597              1.973              4.406
 Vibration     3          0.600              1.961              3.821
 Vibration     4          0.608              1.937              3.179
 Vibration     5          0.617              1.906              2.717
 Vibration     6          0.619              1.900              2.647
 Vibration     7          0.638              1.840              2.134
 Vibration     8          0.649              1.804              1.922
 Vibration     9          0.672              1.735              1.620
 Vibration    10          0.682              1.704              1.512
 Vibration    11          0.689              1.683              1.446
 Vibration    12          0.726              1.579              1.175
 Vibration    13          0.732              1.563              1.140
 Vibration    14          0.735              1.554              1.121
 Vibration    15          0.798              1.388              0.834
 Vibration    16          0.805              1.370              0.808
 Vibration    17          0.824              1.323              0.746
 Vibration    18          0.845              1.273              0.685
 Vibration    19          0.888              1.177              0.581
 Vibration    20          0.892              1.167              0.571
 Vibration    21          0.931              1.085              0.495
 Vibration    22          0.935              1.078              0.488

                           ! Non-Optimized Parameters !
 Normal termination of Gaussian 16 at Wed Mar  2 05:22:48 2022.

 ------------------------------------------
 #p b3lyp/6-31G(d) geom=allcheck guess=read
 ------------------------------------------

 Structure from the checkpoint file:  "258.n.pdb.xyz.mst.wat.chk"
 -------------
 258.n.pdb.xyz
 -------------
 Charge =  0 Multiplicity = 1

 SCF Done:  E(RB3LYP) =  -838.694071869     A.U. after   12 cycles
 Normal termination of Gaussian 16 at Wed Mar  2 05:25:48 2022.
 Gaussian 16:  ES64L-G16RevA.03 25-Dec-2016

 ----------------------------------------------------------------------
 #p b3lyp/6-31G(d) scrf=(iefpcm,read,solvent=water) geom=allcheck guess
 =read
 ----------------------------------------------------------------------

 Structure from the checkpoint file:  "258.n.pdb.xyz.mst.wat.chk"
 -------------
 258.n.pdb.xyz
 -------------
 Charge =  0 Multiplicity = 1

                         Standard orientation:
 ---------------------------------------------------------------------
 Center     Atomic      Atomic             Coordinates (Angstroms)
 Number     Number       Type             X           Y           Z
 ---------------------------------------------------------------------
      1          7           0        0.247833    2.498428    1.568480
      2          6           0        0.028039    2.227470    0.274794
      3          8           0       -0.122607    3.067630   -0.605020
      4          7           0       -0.016615    0.790917    0.001396
      5          6           0       -1.343921    0.256127   -0.147916
      6          6           0       -2.432546    1.151603   -0.153783
      7          6           0       -3.748059    0.692762   -0.206800
      8          6           0       -4.037865   -0.668307   -0.274091
      9          6           0       -2.977681   -1.572301   -0.303801
     10          6           0       -1.658536   -1.131721   -0.238553
     11          6           0       -0.448872   -1.972952   -0.323041
     12          8           0       -0.003600   -3.086733    0.488518
     13          6           0        0.477997   -1.762208    0.783904
     14          6           0        1.686480   -1.047370    0.318983
     15          6           0        2.995272   -1.498570    0.222461
     16          6           0        3.987982   -0.668809   -0.309022
     17          6           0        3.646026    0.607454   -0.749522
     18          6           0        2.326382    1.062713   -0.674425
     19          6           0        1.321693    0.246905   -0.138217
     20          1           0        0.351708    3.461729    1.864704
     21          1           0        0.371950    1.761856    2.250877
     22          1           0       -2.261376    2.218428   -0.121584
     23          1           0       -4.552013    1.421607   -0.199025
     24          1           0       -5.063279   -1.017360   -0.315681
     25          1           0       -3.162636   -2.639597   -0.372305
     26          1           0        0.003972   -2.023600   -1.312067
     27          1           0        0.043891   -1.377380    1.705366
     28          1           0        3.234900   -2.500693    0.562472
     29          1           0        5.011346   -1.020116   -0.380359
     30          1           0        4.402756    1.258544   -1.174621
     31          1           0        2.075569    2.047213   -1.050727
 ---------------------------------------------------------------------

 SCF Done:  E(RB3LYP) =  -838.713808121     A.U. after   11 cycles

 The electronic state is 1-A.
 Alpha  occ. eigenvalues --  -19.17965 -19.13129 -14.38074 -14.36389 -10.33078
 Alpha  occ. eigenvalues --  -10.25108 -10.24710 -10.24538 -10.24373 -10.20842
 Alpha  occ. eigenvalues --  -10.20490 -10.19737 -10.19555 -10.19527 -10.19499
 Alpha  occ. eigenvalues --  -10.19362 -10.19263 -10.19125 -10.18720  -1.08107
 Alpha  occ. eigenvalues --   -1.06105  -0.95702  -0.90997  -0.86747  -0.84634
 Alpha  occ. eigenvalues --   -0.78469  -0.76875  -0.76401  -0.73410  -0.68214
 Alpha  occ. eigenvalues --   -0.65856  -0.63925  -0.61880  -0.59685  -0.58948
 Alpha  occ. eigenvalues --   -0.57605  -0.54971  -0.54773  -0.51317  -0.50345
 Alpha  occ. eigenvalues --   -0.50110  -0.47437  -0.46842  -0.45531  -0.45190
 Alpha  occ. eigenvalues --   -0.44692  -0.44135  -0.42987  -0.41697  -0.40721
 Alpha  occ. eigenvalues --   -0.39830  -0.39055  -0.38133  -0.37353  -0.36518
 Alpha  occ. eigenvalues --   -0.35544  -0.34668  -0.32768  -0.30470  -0.28792
 Alpha  occ. eigenvalues --   -0.28314  -0.27690  -0.25977  -0.25316  -0.24690
 Alpha  occ. eigenvalues --   -0.20441
 Alpha virt. eigenvalues --   -0.02408  -0.01044  -0.00822   0.00535   0.02238
 Alpha virt. eigenvalues --    0.07455   0.08079   0.09592   0.11084   0.11376
 Alpha virt. eigenvalues --    0.12511   0.13740   0.14727   0.15481   0.15634

 Mulliken charges:
               1
     1  N   -0.687686
     2  C    0.639394
     3  O   -0.555659
     4  N   -0.681528
     5  C    0.311214
     6  C   -0.205616
     7  C   -0.155705
     8  C   -0.157465
     9  C   -0.211310
    10  C    0.094694
    11  C   -0.004886
    12  O   -0.486783
    13  C   -0.001958
    14  C    0.117048
    15  C   -0.224309
    16  C   -0.148633
    17  C   -0.156444
    18  C   -0.179747
    19  C    0.262018
    20  H    0.399675
    21  H    0.401053
    22  H    0.170295
    23  H    0.152792
    24  H    0.149048
    25  H    0.155210
    26  H    0.185536
    27  H    0.182972
    28  H    0.158642
    29  H    0.153382
    30  H    0.155367
    31  H    0.169388
 Sum of Mulliken charges =  -0.00000

 Dipole moment (field-independent basis, Debye):
    X=              1.4582    Y=              1.6678    Z=              4.1189  Tot=              4.6768
 Quadrupole moment (field-independent basis, Debye-Ang):
   XX=            -94.3679   YY=           -113.7794   ZZ=           -102.6178
   XY=              1.8991   XZ=              0.4087   YZ=             13.9057

 Normal termination of Gaussian 16 at Wed Mar  2 05:29:00 2022.
