 Gaussian 16, Revision A.03,

 ----------------------------------------------------------------------
 #p b3lyp/6-31G(d) opt=(MaxStep=10,MaxCycles=1000) freq scf=(MaxCycle=2
 000,NoVarAcc,NoIncFock) scrf=(iefpcm,read,solvent=water)
 ----------------------------------------------------------------------

 -------------
 259.n.pdb.xyz
 -------------
 Symbolic Z-matrix:
 Charge =  0 Multiplicity = 1

 SCF Done:  E(RB3LYP) =  -802.863861362     A.U. after   13 cycles
 SCF Done:  E(RB3LYP) =  -802.867849818     A.U. after   10 cycles
 SCF Done:  E(RB3LYP) =  -802.869956746     A.U. after   11 cycles
 SCF Done:  E(RB3LYP) =  -802.870579416     A.U. after   10 cycles
 SCF Done:  E(RB3LYP) =  -802.870809974     A.U. after   10 cycles
 SCF Done:  E(RB3LYP) =  -802.870927862     A.U. after   10 cycles
 SCF Done:  E(RB3LYP) =  -802.871110958     A.U. after   10 cycles
 SCF Done:  E(RB3LYP) =  -802.871194988     A.U. after   10 cycles
 SCF Done:  E(RB3LYP) =  -802.871239406     A.U. after   10 cycles
 SCF Done:  E(RB3LYP) =  -802.871233938     A.U. after    8 cycles
 SCF Done:  E(RB3LYP) =  -802.871281804     A.U. after    9 cycles
 SCF Done:  E(RB3LYP) =  -802.871287704     A.U. after    8 cycles
 SCF Done:  E(RB3LYP) =  -802.871287959     A.U. after    8 cycles
 SCF Done:  E(RB3LYP) =  -802.871288945     A.U. after    7 cycles
 Optimization completed.
    -- Stationary point found.
 Normal termination of Gaussian 16 at Wed Mar  2 05:23:23 2022.

 --------------------------------------------------------------------
 #P Geom=AllCheck Guess=TCheck SCRF=Check GenChk RB3LYP/6-31G(d) Freq
 --------------------------------------------------------------------

 Structure from the checkpoint file:  "259.n.pdb.xyz.mst.wat.chk"
 -------------
 259.n.pdb.xyz
 -------------
 Charge =  0 Multiplicity = 1

 SCF Done:  E(RB3LYP) =  -802.871288945     A.U. after    1 cycles

  Exact polarizability: 273.508   1.271 250.266  -0.440  35.050 186.867
 Approx polarizability: 294.815   4.558 284.110  -3.327  43.512 214.145

                      1                      2                      3
                      A                      A                      A
 Frequencies --     50.2377                59.0440                90.4289
 Red. masses --      5.3496                 5.2021                 4.4801
 Frc consts  --      0.0080                 0.0107                 0.0216
 IR Inten    --      1.3912                 0.4686                 7.6797

                      4                      5                      6
                      A                      A                      A
 Frequencies --     93.7127               129.7470               136.3739
 Red. masses --      5.0177                 5.0399                 3.5656
 Frc consts  --      0.0260                 0.0500                 0.0391
 IR Inten    --      9.9021                 5.7091                 1.8013

                      7                      8                      9
                      A                      A                      A
 Frequencies --    190.6221               210.8589               278.0310
 Red. masses --      3.8426                 3.8578                 4.2410
 Frc consts  --      0.0823                 0.1011                 0.1932
 IR Inten    --      2.7685                 6.5069                 3.5372

                     10                     11                     12
                      A                      A                      A
 Frequencies --    306.6804               342.9673               355.8121
 Red. masses --      4.7384                 4.8093                 5.0047
 Frc consts  --      0.2626                 0.3333                 0.3733
 IR Inten    --      0.8991                 1.9885                 5.8933

                     13                     14                     15
                      A                      A                      A
 Frequencies --    376.5618               395.0704               446.8058
 Red. masses --      4.3657                 4.8326                 3.6447
 Frc consts  --      0.3647                 0.4444                 0.4287
 IR Inten    --      6.1740                12.9124                12.1137

                     16                     17                     18
                      A                      A                      A
 Frequencies --    458.4972               474.7910               482.6865
 Red. masses --      2.4205                 1.4132                 1.2475
 Frc consts  --      0.2998                 0.1877                 0.1712
 IR Inten    --     11.2353                31.7053               457.3922

                     19                     20                     21
                      A                      A                      A
 Frequencies --    522.1444               532.4217               540.4166
 Red. masses --      3.6336                 3.9556                 3.6918
 Frc consts  --      0.5837                 0.6606                 0.6353
 IR Inten    --      6.3928                 5.9309                 1.1632

                     22                     23                     24
                      A                      A                      A
 Frequencies --    569.4985               589.7871               624.6542
 Red. masses --      4.7490                 3.6807                 3.8554
 Frc consts  --      0.9075                 0.7543                 0.8863
 IR Inten    --      3.3760                 3.8377                71.9910

                     25                     26                     27
                      A                      A                      A
 Frequencies --    655.4216               665.5337               703.8224
 Red. masses --      5.7975                 3.9171                 4.4712
 Frc consts  --      1.4674                 1.0222                 1.3050
 IR Inten    --     13.3636                 9.6065                 9.8133

                     28                     29                     30
                      A                      A                      A
 Frequencies --    722.0039               751.8347               764.9044
 Red. masses --      4.5526                 8.4014                 3.0228
 Frc consts  --      1.3983                 2.7980                 1.0420
 IR Inten    --      3.6866                50.8006                14.6262

                     31                     32                     33
                      A                      A                      A
 Frequencies --    774.3144               776.8817               788.7630
 Red. masses --      2.4325                 1.3408                 1.6094
 Frc consts  --      0.8593                 0.4768                 0.5899
 IR Inten    --     10.0853                23.3607                57.6986

                     34                     35                     36
                      A                      A                      A
 Frequencies --    792.5067               851.5879               889.3124
 Red. masses --      3.8111                 1.2722                 1.3546
 Frc consts  --      1.4103                 0.5436                 0.6312
 IR Inten    --     10.0002                16.9537                 0.5783

                     37                     38                     39
                      A                      A                      A
 Frequencies --    894.1213               929.9742               955.3377
 Red. masses --      1.4300                 4.1108                 2.3443
 Frc consts  --      0.6736                 2.0947                 1.2606
 IR Inten    --      4.8864                 4.8235                 5.1207

                     40                     41                     42
                      A                      A                      A
 Frequencies --    961.7593               964.3681               977.1938
 Red. masses --      1.4518                 1.8726                 4.3364
 Frc consts  --      0.7912                 1.0261                 2.4397
 IR Inten    --      2.3419                 0.9445                 1.6873

                     43                     44                     45
                      A                      A                      A
 Frequencies --    996.2410               998.2854              1043.8208
 Red. masses --      1.2680                 1.2749                 4.4454
 Frc consts  --      0.7415                 0.7486                 2.8537
 IR Inten    --      0.2176                 0.0875                 2.8501

                     46                     47                     48
                      A                      A                      A
 Frequencies --   1046.2304              1065.0122              1068.7753
 Red. masses --      2.2248                 1.3848                 2.3702
 Frc consts  --      1.4348                 0.9254                 1.5952
 IR Inten    --      1.7561                11.3623                 7.1199

                     49                     50                     51
                      A                      A                      A
 Frequencies --   1072.6673              1099.7912              1114.7477
 Red. masses --      1.7732                 1.9299                 1.7310
 Frc consts  --      1.2021                 1.3753                 1.2674
 IR Inten    --      2.2378                 0.5458                38.1578

                     52                     53                     54
                      A                      A                      A
 Frequencies --   1134.2908              1140.6513              1151.8857
 Red. masses --      1.3121                 1.4852                 1.4947
 Frc consts  --      0.9947                 1.1385                 1.1685
 IR Inten    --      2.2592                 2.6698                16.4281

                     55                     56                     57
                      A                      A                      A
 Frequencies --   1186.1817              1187.5705              1192.8566
 Red. masses --      1.2213                 1.0973                 1.6769
 Frc consts  --      1.0125                 0.9118                 1.4058
 IR Inten    --      0.7049                 0.0716                 1.9560

                     58                     59                     60
                      A                      A                      A
 Frequencies --   1221.1275              1258.8789              1271.8949
 Red. masses --      1.9291                 3.5427                 1.5046
 Frc consts  --      1.6948                 3.3079                 1.4341
 IR Inten    --      0.5989                21.0276                13.5136

                     61                     62                     63
                      A                      A                      A
 Frequencies --   1284.4562              1293.5032              1333.1478
 Red. masses --      1.7202                 1.5253                 3.2011
 Frc consts  --      1.6721                 1.5036                 3.3521
 IR Inten    --     21.0344                15.4817                27.0957

                     64                     65                     66
                      A                      A                      A
 Frequencies --   1338.3631              1345.6090              1400.5293
 Red. masses --      6.9691                 6.9614                 1.6676
 Frc consts  --      7.3549                 7.4265                 1.9272
 IR Inten    --     24.8209                 5.9042                14.0934

                     67                     68                     69
                      A                      A                      A
 Frequencies --   1410.9391              1425.6436              1492.5623
 Red. masses --      4.5930                 2.0863                 1.9146
 Frc consts  --      5.3872                 2.4984                 2.5130
 IR Inten    --    844.3004                26.0851                12.6144

                     70                     71                     72
                      A                      A                      A
 Frequencies --   1495.7622              1513.3961              1533.6565
 Red. masses --      2.4245                 1.5327                 2.8377
 Frc consts  --      3.1959                 2.0682                 3.9325
 IR Inten    --     31.4170                 1.2166               121.8435

                     73                     74                     75
                      A                      A                      A
 Frequencies --   1542.2395              1614.1181              1628.4832
 Red. masses --      2.9557                 1.2315                 6.2337
 Frc consts  --      4.1420                 1.8905                 9.7400
 IR Inten    --     40.7179               276.0391                18.1246

                     76                     77                     78
                      A                      A                      A
 Frequencies --   1634.0468              1654.8499              1658.8102
 Red. masses --      6.2033                 6.0853                 5.9766
 Frc consts  --      9.7589                 9.8185                 9.6894
 IR Inten    --      1.0598                 0.1649                12.3586

                     79                     80                     81
                      A                      A                      A
 Frequencies --   1727.4309              3145.1597              3154.4538
 Red. masses --      8.0496                 1.0866                 1.0852
 Frc consts  --     14.1523                 6.3331                 6.3620
 IR Inten    --    727.6029                 7.4327                36.2143

                     82                     83                     84
                      A                      A                      A
 Frequencies --   3163.1026              3200.2746              3203.2084
 Red. masses --      1.0575                 1.0870                 1.0862
 Frc consts  --      6.2338                 6.5595                 6.5662
 IR Inten    --     25.4745                 9.1986                 4.5353

                     85                     86                     87
                      A                      A                      A
 Frequencies --   3210.4351              3211.1792              3220.8188
 Red. masses --      1.0888                 1.0891                 1.0932
 Frc consts  --      6.6117                 6.6166                 6.6814
 IR Inten    --     13.1562                15.9646                44.7254

                     88                     89                     90
                      A                      A                      A
 Frequencies --   3222.1751              3230.2431              3231.9894
 Red. masses --      1.0932                 1.0974                 1.0968
 Frc consts  --      6.6875                 6.7468                 6.7501
 IR Inten    --     48.6546                30.7267                28.1122

                     91                     92                     93
                      A                      A                      A
 Frequencies --   3247.0117              3565.6919              3670.6187
 Red. masses --      1.1185                 1.0480                 1.1023
 Frc consts  --      6.9478                 7.8505                 8.7506
 IR Inten    --     21.2082                94.8731               103.6118

 - Thermochemistry -
 -------------------
 Temperature   298.150 Kelvin.  Pressure   1.00000 Atm.
 Atom     1 has atomic number  7 and mass  14.00307

 Molecular mass:   250.11061 amu.
 Principal axes and moments of inertia in atomic units:
                           1         2         3
     Eigenvalues --  3281.157544909.742356099.81787
           X            0.99987  -0.01548   0.00498
           Y            0.01530   0.99930   0.03427
           Z           -0.00551  -0.03419   0.99940
 This molecule is an asymmetric top.
 Rotational symmetry number  1.
 Warning -- assumption of classical behavior for rotation
           may cause significant error
 Rotational temperatures (Kelvin)      0.02640     0.01764     0.01420
 Rotational constants (GHZ):           0.55003     0.36758     0.29587
 Zero-point vibrational energy     701803.1 (Joules/Mol)
                                  167.73496 (Kcal/Mol)
 Warning -- explicit consideration of  23 degrees of freedom as
           vibrations may cause significant error
 Vibrational temperatures:     72.28    84.95   130.11   134.83   186.68
          (Kelvin)            196.21   274.26   303.38   400.02   441.24
                              493.45   511.93   541.79   568.42   642.85
                              659.68   683.12   694.48   751.25   766.04
                              777.54   819.38   848.57   898.74   943.01
                              957.55  1012.64  1038.80  1081.72  1100.53
                             1114.07  1117.76  1134.85  1140.24  1225.25
                             1279.52  1286.44  1338.03  1374.52  1383.76
                             1387.51  1405.96  1433.37  1436.31  1501.83
                             1505.29  1532.32  1537.73  1543.33  1582.35
                             1603.87  1631.99  1641.14  1657.31  1706.65
                             1708.65  1716.25  1756.93  1811.25  1829.97
                             1848.05  1861.06  1918.10  1925.61  1936.03
                             2015.05  2030.03  2051.18  2147.46  2152.07
                             2177.44  2206.59  2218.94  2322.36  2343.02
                             2351.03  2380.96  2386.66  2485.39  4525.18
                             4538.56  4551.00  4604.48  4608.70  4619.10
                             4620.17  4634.04  4635.99  4647.60  4650.11
                             4671.73  5130.24  5281.20

 Zero-point correction=                           0.267303 (Hartree/Particle)
 Thermal correction to Energy=                    0.282005
 Thermal correction to Enthalpy=                  0.282949
 Thermal correction to Gibbs Free Energy=         0.225720
 Sum of electronic and zero-point Energies=           -802.603986
 Sum of electronic and thermal Energies=              -802.589284
 Sum of electronic and thermal Enthalpies=            -802.588340
 Sum of electronic and thermal Free Energies=         -802.645569

                     E (Thermal)             CV                S
                      KCal/Mol        Cal/Mol-Kelvin    Cal/Mol-Kelvin
 Total                  176.961             60.561            120.449
 Electronic               0.000              0.000              0.000
 Translational            0.889              2.981             42.451
 Rotational               0.889              2.981             32.952
 Vibrational            175.183             54.600             45.046
 Vibration     1          0.595              1.977              4.808
 Vibration     2          0.596              1.974              4.489
 Vibration     3          0.602              1.956              3.651
 Vibration     4          0.603              1.954              3.581
 Vibration     5          0.612              1.924              2.950
 Vibration     6          0.614              1.917              2.854
 Vibration     7          0.634              1.853              2.222
 Vibration     8          0.643              1.824              2.036
 Vibration     9          0.679              1.714              1.546
 Vibration    10          0.697              1.661              1.380
 Vibration    11          0.722              1.590              1.198
 Vibration    12          0.731              1.563              1.140
 Vibration    13          0.747              1.520              1.053
 Vibration    14          0.762              1.481              0.981
 Vibration    15          0.806              1.368              0.805
 Vibration    16          0.817              1.342              0.770
 Vibration    17          0.832              1.306              0.724
 Vibration    18          0.839              1.288              0.703
 Vibration    19          0.877              1.201              0.605
 Vibration    20          0.887              1.178              0.582
 Vibration    21          0.895              1.161              0.564
 Vibration    22          0.926              1.097              0.505
 Vibration    23          0.947              1.054              0.468

 Optimization completed.
    -- Stationary point found.
 Normal termination of Gaussian 16 at Wed Mar  2 06:06:15 2022.

 ------------------------------------------
 #p b3lyp/6-31G(d) geom=allcheck guess=read
 ------------------------------------------

 Structure from the checkpoint file:  "259.n.pdb.xyz.mst.wat.chk"
 -------------
 259.n.pdb.xyz
 -------------
 Charge =  0 Multiplicity = 1

 SCF Done:  E(RB3LYP) =  -802.852047373     A.U. after   12 cycles
 Normal termination of Gaussian 16 at Wed Mar  2 06:09:32 2022.
 Gaussian 16:  ES64L-G16RevA.03 25-Dec-2016

 ----------------------------------------------------------------------
 #p b3lyp/6-31G(d) scrf=(iefpcm,read,solvent=water) geom=allcheck guess
 =read
 ----------------------------------------------------------------------

 Structure from the checkpoint file:  "259.n.pdb.xyz.mst.wat.chk"
 -------------
 259.n.pdb.xyz
 -------------
 Charge =  0 Multiplicity = 1

                         Standard orientation:
 ---------------------------------------------------------------------
 Center     Atomic      Atomic             Coordinates (Angstroms)
 Number     Number       Type             X           Y           Z
 ---------------------------------------------------------------------
      1          7           0       -1.202117    2.662887   -1.310353
      2          6           0        0.018304    2.140662   -0.962988
      3          8           0        1.081096    2.674153   -1.297244
      4          7           0       -0.005431    1.000304   -0.171981
      5          6           0        1.235620    0.396335    0.223413
      6          6           0        2.046928    1.037129    1.165277
      7          6           0        3.232263    0.442863    1.590657
      8          6           0        3.599348   -0.807194    1.088012
      9          6           0        2.783023   -1.447588    0.158349
     10          6           0        1.594585   -0.857178   -0.296115
     11          6           0        0.783081   -1.532906   -1.355987
     12          6           0        0.052315   -2.827686   -1.076433
     13          6           0       -0.727169   -1.559112   -1.347250
     14          6           0       -1.545245   -0.913212   -0.274552
     15          6           0       -2.707576   -1.539492    0.196068
     16          6           0       -3.524142   -0.932055    1.148066
     17          6           0       -3.181568    0.321221    1.660660
     18          6           0       -2.020425    0.952649    1.219605
     19          6           0       -1.211868    0.347004    0.250716
     20          1           0       -1.158358    3.327329   -2.073398
     21          1           0       -2.019307    2.065078   -1.315645
     22          1           0        1.738126    1.999202    1.558328
     23          1           0        3.858564    0.946273    2.319358
     24          1           0        4.515911   -1.281982    1.421972
     25          1           0        3.065992   -2.419887   -0.233134
     26          1           0        1.227473   -1.463310   -2.346813
     27          1           0        0.060524   -3.601576   -1.836424
     28          1           0        0.064562   -3.193779   -0.054895
     29          1           0       -1.187425   -1.505754   -2.331770
     30          1           0       -2.970932   -2.515319   -0.199589
     31          1           0       -4.421137   -1.436075    1.492140
     32          1           0       -3.805565    0.798168    2.408999
     33          1           0       -1.729219    1.917432    1.620179
 ---------------------------------------------------------------------

 SCF Done:  E(RB3LYP) =  -802.870158822     A.U. after   11 cycles

 The electronic state is 1-A.
 Alpha  occ. eigenvalues --  -19.10644 -14.36574 -14.34126 -10.31333 -10.23277
 Alpha  occ. eigenvalues --  -10.22953 -10.20525 -10.20188 -10.20040 -10.19982
 Alpha  occ. eigenvalues --  -10.19659 -10.19529 -10.19475 -10.19353 -10.19276
 Alpha  occ. eigenvalues --  -10.19227 -10.19181 -10.19103 -10.18971  -1.04170
 Alpha  occ. eigenvalues --   -0.95063  -0.89380  -0.87189  -0.86112  -0.83741
 Alpha  occ. eigenvalues --   -0.76167  -0.75557  -0.74828  -0.73144  -0.64531
 Alpha  occ. eigenvalues --   -0.63841  -0.63117  -0.60991  -0.58481  -0.57417
 Alpha  occ. eigenvalues --   -0.56542  -0.54307  -0.51785  -0.50980  -0.49320
 Alpha  occ. eigenvalues --   -0.48575  -0.47773  -0.46319  -0.45164  -0.44880
 Alpha  occ. eigenvalues --   -0.43410  -0.42968  -0.41625  -0.41136  -0.39766
 Alpha  occ. eigenvalues --   -0.38703  -0.37567  -0.37318  -0.36722  -0.35629
 Alpha  occ. eigenvalues --   -0.35234  -0.33996  -0.30842  -0.29119  -0.28318
 Alpha  occ. eigenvalues --   -0.27403  -0.26484  -0.25653  -0.24573  -0.23593
 Alpha  occ. eigenvalues --   -0.23499
 Alpha virt. eigenvalues --   -0.02100  -0.01617  -0.00206   0.00093   0.05818
 Alpha virt. eigenvalues --    0.09211   0.09908   0.10762   0.11461   0.12779
 Alpha virt. eigenvalues --    0.14029   0.14257   0.15207   0.15604   0.15710

 Mulliken charges:
               1
     1  N   -0.787858
     2  C    0.710094
     3  O   -0.608199
     4  N   -0.603097
     5  C    0.201838
     6  C   -0.146018
     7  C   -0.167405
     8  C   -0.137111
     9  C   -0.216084
    10  C    0.153506
    11  C   -0.203920
    12  C   -0.317715
    13  C   -0.206771
    14  C    0.170199
    15  C   -0.214455
    16  C   -0.134214
    17  C   -0.161809
    18  C   -0.141425
    19  C    0.145490
    20  H    0.379426
    21  H    0.375564
    22  H    0.151407
    23  H    0.152986
    24  H    0.151159
    25  H    0.148358
    26  H    0.176600
    27  H    0.166196
    28  H    0.167159
    29  H    0.177441
    30  H    0.151154
    31  H    0.154305
    32  H    0.156418
    33  H    0.156782
 Sum of Mulliken charges =  -0.00000

 Dipole moment (field-independent basis, Debye):
    X=             -4.5699    Y=             -3.3623    Z=              0.0069  Tot=              5.6735
 Quadrupole moment (field-independent basis, Debye-Ang):
   XX=            -98.0186   YY=           -107.7371   ZZ=           -101.1508
   XY=            -10.4377   XZ=              7.1103   YZ=              5.9978

 Normal termination of Gaussian 16 at Wed Mar  2 06:13:18 2022.
