 Gaussian 16, Revision A.03,

 ----------------------------------------------------------------------
 #p b3lyp/6-31G(d) opt=(MaxStep=10,MaxCycles=1000) freq scf=(MaxCycle=2
 000,NoVarAcc,NoIncFock) scrf=(iefpcm,read,solvent=water)
 ----------------------------------------------------------------------

 ------------
 26.n.pdb.xyz
 ------------
 Symbolic Z-matrix:
 Charge =  0 Multiplicity = 1

 SCF Done:  E(RB3LYP) =  -808.647869301     A.U. after   12 cycles
 SCF Done:  E(RB3LYP) =  -808.653246137     A.U. after   10 cycles
 SCF Done:  E(RB3LYP) =  -808.655132196     A.U. after   10 cycles
 SCF Done:  E(RB3LYP) =  -808.656414722     A.U. after   10 cycles
 SCF Done:  E(RB3LYP) =  -808.656343321     A.U. after   10 cycles
 SCF Done:  E(RB3LYP) =  -808.654608640     A.U. after   11 cycles
 SCF Done:  E(RB3LYP) =  -808.653931257     A.U. after   10 cycles
 SCF Done:  E(RB3LYP) =  -808.656696128     A.U. after    8 cycles
 SCF Done:  E(RB3LYP) =  -808.657335472     A.U. after   10 cycles
 SCF Done:  E(RB3LYP) =  -808.657367879     A.U. after    9 cycles
 SCF Done:  E(RB3LYP) =  -808.657450578     A.U. after    9 cycles
 SCF Done:  E(RB3LYP) =  -808.657458699     A.U. after    8 cycles
 SCF Done:  E(RB3LYP) =  -808.657462490     A.U. after    7 cycles
 SCF Done:  E(RB3LYP) =  -808.657465167     A.U. after    7 cycles
 SCF Done:  E(RB3LYP) =  -808.657466705     A.U. after    7 cycles
 SCF Done:  E(RB3LYP) =  -808.657468366     A.U. after    7 cycles
 SCF Done:  E(RB3LYP) =  -808.657468470     A.U. after    6 cycles
 Optimization completed.
    -- Stationary point found.
 Normal termination of Gaussian 16 at Wed Mar  2 01:49:37 2022.

 --------------------------------------------------------------------
 #P Geom=AllCheck Guess=TCheck SCRF=Check GenChk RB3LYP/6-31G(d) Freq
 --------------------------------------------------------------------

 Structure from the checkpoint file:  "26.n.pdb.xyz.mst.wat.chk"
 ------------
 26.n.pdb.xyz
 ------------
 Charge =  0 Multiplicity = 1

 SCF Done:  E(RB3LYP) =  -808.657468470     A.U. after    1 cycles

  Exact polarizability: 312.270 -11.479 377.315  -0.641   9.626 155.207
 Approx polarizability: 338.716 -11.502 397.252  -0.790  11.584 177.212

                      1                      2                      3
                      A                      A                      A
 Frequencies --     13.1308                27.2057                57.4384
 Red. masses --      2.8594                 4.0140                 4.1246
 Frc consts  --      0.0003                 0.0018                 0.0080
 IR Inten    --      1.3648                 0.2559                 0.4139

                      4                      5                      6
                      A                      A                      A
 Frequencies --     70.1899                95.8882               106.6388
 Red. masses --      2.1857                 3.2133                 2.6543
 Frc consts  --      0.0063                 0.0174                 0.0178
 IR Inten    --      4.0248                 1.4584                 2.8314

                      7                      8                      9
                      A                      A                      A
 Frequencies --    129.5559               146.8496               178.2260
 Red. masses --      3.3936                 3.9790                 3.2891
 Frc consts  --      0.0336                 0.0506                 0.0616
 IR Inten    --      0.6160                 0.0389                 3.3290

                     10                     11                     12
                      A                      A                      A
 Frequencies --    200.9459               234.9952               245.5855
 Red. masses --      3.6104                 2.1479                 1.2612
 Frc consts  --      0.0859                 0.0699                 0.0448
 IR Inten    --      1.4233                 0.2029                 1.7613

                     13                     14                     15
                      A                      A                      A
 Frequencies --    284.0007               310.1721               322.5719
 Red. masses --      4.0260                 3.9046                 3.8089
 Frc consts  --      0.1913                 0.2213                 0.2335
 IR Inten    --      1.2846                 2.8766                 3.4164

                     16                     17                     18
                      A                      A                      A
 Frequencies --    341.0069               348.7948               364.3828
 Red. masses --      3.6488                 4.3796                 3.4593
 Frc consts  --      0.2500                 0.3139                 0.2706
 IR Inten    --      3.9877                 1.6887                 7.9822

                     19                     20                     21
                      A                      A                      A
 Frequencies --    423.0160               459.2923               480.9839
 Red. masses --      2.6579                 3.3061                 2.9416
 Frc consts  --      0.2802                 0.4109                 0.4010
 IR Inten    --      1.4404                 4.9581                 4.1725

                     22                     23                     24
                      A                      A                      A
 Frequencies --    484.7783               515.0965               546.3807
 Red. masses --      3.2542                 3.8994                 3.8054
 Frc consts  --      0.4506                 0.6096                 0.6693
 IR Inten    --      2.2732                 1.0968                 2.1355

                     25                     26                     27
                      A                      A                      A
 Frequencies --    565.4513               569.8478               600.0696
 Red. masses --      3.7576                 3.8697                 3.0902
 Frc consts  --      0.7079                 0.7404                 0.6556
 IR Inten    --      1.4060                 0.9460                 5.1818

                     28                     29                     30
                      A                      A                      A
 Frequencies --    626.3911               631.7067               692.9768
 Red. masses --      5.7731                 4.8788                 5.2599
 Frc consts  --      1.3346                 1.1471                 1.4882
 IR Inten    --      5.8157                13.2459                 0.5069

                     31                     32                     33
                      A                      A                      A
 Frequencies --    734.1807               753.6681               762.5139
 Red. masses --      3.4421                 3.0235                 1.3685
 Frc consts  --      1.0932                 1.0119                 0.4688
 IR Inten    --      1.4913                 3.7939                65.3575

                     34                     35                     36
                      A                      A                      A
 Frequencies --    765.2000               773.2537               788.5534
 Red. masses --      1.2276                 1.2876                 2.8414
 Frc consts  --      0.4235                 0.4536                 1.0410
 IR Inten    --     31.8472                67.4606                11.1327

                     37                     38                     39
                      A                      A                      A
 Frequencies --    813.6424               824.8549               857.1660
 Red. masses --      2.2116                 1.7742                 1.5408
 Frc consts  --      0.8626                 0.7112                 0.6670
 IR Inten    --     66.1820                84.2686                13.0814

                     40                     41                     42
                      A                      A                      A
 Frequencies --    865.0913               877.9101               922.3654
 Red. masses --      1.6336                 1.3978                 1.7674
 Frc consts  --      0.7203                 0.6347                 0.8859
 IR Inten    --     43.0507                 0.9171                11.9414

                     43                     44                     45
                      A                      A                      A
 Frequencies --    942.1489               948.4188               958.4073
 Red. masses --      1.3747                 1.3472                 2.4000
 Frc consts  --      0.7189                 0.7140                 1.2989
 IR Inten    --      1.8567                 5.2392                41.9642

                     46                     47                     48
                      A                      A                      A
 Frequencies --    971.2950               974.3329               976.9617
 Red. masses --      2.2280                 2.3153                 1.2484
 Frc consts  --      1.2384                 1.2950                 0.7020
 IR Inten    --      2.9740                 1.2204                 0.1435

                     49                     50                     51
                      A                      A                      A
 Frequencies --    983.0459              1032.5606              1052.8230
 Red. masses --      1.2490                 2.8647                 2.7935
 Frc consts  --      0.7111                 1.7996                 1.8243
 IR Inten    --      0.3007                16.7173                 8.4009

                     52                     53                     54
                      A                      A                      A
 Frequencies --   1062.2945              1068.3879              1093.5559
 Red. masses --      2.8013                 3.5441                 2.1866
 Frc consts  --      1.8625                 2.3835                 1.5407
 IR Inten    --      3.9103                12.3627                41.4658

                     55                     56                     57
                      A                      A                      A
 Frequencies --   1103.7972              1112.6602              1138.5983
 Red. masses --      2.0369                 1.6712                 2.0920
 Frc consts  --      1.4622                 1.2190                 1.5979
 IR Inten    --     20.1059                19.7943                74.5867

                     58                     59                     60
                      A                      A                      A
 Frequencies --   1144.1207              1161.9952              1182.2468
 Red. masses --      3.2418                 1.8848                 1.6330
 Frc consts  --      2.5002                 1.4994                 1.3447
 IR Inten    --     56.0869                37.9537                39.9110

                     61                     62                     63
                      A                      A                      A
 Frequencies --   1189.4840              1191.8802              1196.8202
 Red. masses --      1.3040                 1.5033                 1.2582
 Frc consts  --      1.0870                 1.2582                 1.0618
 IR Inten    --     15.7288                39.0137                14.4910

                     64                     65                     66
                      A                      A                      A
 Frequencies --   1200.8187              1220.2924              1231.4954
 Red. masses --      1.2827                 2.3327                 1.6903
 Frc consts  --      1.0898                 2.0466                 1.5103
 IR Inten    --      1.1272                82.8937                 6.6662

                     67                     68                     69
                      A                      A                      A
 Frequencies --   1241.8108              1252.6230              1257.5761
 Red. masses --      1.9016                 1.4783                 1.6341
 Frc consts  --      1.7278                 1.3666                 1.5226
 IR Inten    --     34.6976                15.5866               107.7029

                     70                     71                     72
                      A                      A                      A
 Frequencies --   1293.8808              1307.0685              1311.5098
 Red. masses --      1.4851                 1.4422                 1.2876
 Frc consts  --      1.4648                 1.4517                 1.3049
 IR Inten    --    161.4229                17.8747                 3.2804

                     73                     74                     75
                      A                      A                      A
 Frequencies --   1337.1103              1342.9298              1345.5775
 Red. masses --      1.3752                 1.8064                 3.8737
 Frc consts  --      1.4486                 1.9194                 4.1323
 IR Inten    --     18.5376                 9.2192                92.0316

                     76                     77                     78
                      A                      A                      A
 Frequencies --   1364.1187              1372.9817              1383.4518
 Red. masses --      2.7701                 1.6017                 1.6814
 Frc consts  --      3.0370                 1.7790                 1.8961
 IR Inten    --      2.5080                 5.5620               204.2425

                     79                     80                     81
                      A                      A                      A
 Frequencies --   1405.3877              1409.1122              1428.1000
 Red. masses --      1.3696                 1.4155                 1.4516
 Frc consts  --      1.5939                 1.6560                 1.7442
 IR Inten    --      5.9225                83.3689                73.0078

                     82                     83                     84
                      A                      A                      A
 Frequencies --   1472.1366              1489.4886              1492.2775
 Red. masses --      1.1813                 2.1107                 2.0113
 Frc consts  --      1.5084                 2.7589                 2.6389
 IR Inten    --      3.2447                97.7479               104.5088

                     85                     86                     87
                      A                      A                      A
 Frequencies --   1502.0632              1507.3771              1509.8619
 Red. masses --      1.1898                 1.0761                 1.2431
 Frc consts  --      1.5816                 1.4406                 1.6696
 IR Inten    --     27.6624                 6.6862                 6.7042

                     88                     89                     90
                      A                      A                      A
 Frequencies --   1514.4488              1524.6080              1534.3037
 Red. masses --      1.2141                 1.1504                 1.4031
 Frc consts  --      1.6406                 1.5755                 1.9461
 IR Inten    --      6.0560                27.9701               199.0864

                     91                     92                     93
                      A                      A                      A
 Frequencies --   1537.5130              1541.7695              1550.3029
 Red. masses --      1.0936                 1.3662                 1.3981
 Frc consts  --      1.5231                 1.9133                 1.9798
 IR Inten    --     39.8283               116.5003                13.8053

                     94                     95                     96
                      A                      A                      A
 Frequencies --   1552.9979              1624.3171              1634.9342
 Red. masses --      1.4126                 5.4954                 6.3683
 Frc consts  --      2.0073                 8.5426                10.0294
 IR Inten    --     10.3994                14.2301                21.2385

                     97                     98                     99
                      A                      A                      A
 Frequencies --   1652.0255              1661.3001              2946.5418
 Red. masses --      5.4186                 5.5310                 1.0726
 Frc consts  --      8.7131                 8.9939                 5.4868
 IR Inten    --    114.4705                18.7940               142.4109

                    100                    101                    102
                      A                      A                      A
 Frequencies --   2974.2435              3045.5448              3051.0109
 Red. masses --      1.0591                 1.0666                 1.0862
 Frc consts  --      5.5199                 5.8288                 5.9574
 IR Inten    --    152.8390                46.8884                49.6281

                    103                    104                    105
                      A                      A                      A
 Frequencies --   3058.5086              3070.0770              3080.6495
 Red. masses --      1.0635                 1.0669                 1.0752
 Frc consts  --      5.8614                 5.9248                 6.0122
 IR Inten    --     52.0956                16.4172                90.8901

                    106                    107                    108
                      A                      A                      A
 Frequencies --   3082.4755              3093.5888              3112.9543
 Red. masses --      1.0644                 1.0987                 1.0990
 Frc consts  --      5.9585                 6.1950                 6.2745
 IR Inten    --     91.8514                64.7284                59.5639

                    109                    110                    111
                      A                      A                      A
 Frequencies --   3117.7180              3130.2139              3137.3270
 Red. masses --      1.0975                 1.1018                 1.0998
 Frc consts  --      6.2852                 6.3605                 6.3781
 IR Inten    --     19.2206                57.9075                87.9871

                    112                    113                    114
                      A                      A                      A
 Frequencies --   3190.3954              3192.1884              3202.7061
 Red. masses --      1.0874                 1.0876                 1.0890
 Frc consts  --      6.5213                 6.5297                 6.5812
 IR Inten    --     23.4180                21.9818                30.5241

                    115                    116                    117
                      A                      A                      A
 Frequencies --   3205.5548              3223.6037              3225.2767
 Red. masses --      1.0888                 1.0962                 1.0963
 Frc consts  --      6.5917                 6.7114                 6.7193
 IR Inten    --     25.7246                54.7839                48.6986

                    118                    119                    120
                      A                      A                      A
 Frequencies --   3266.5986              3295.3326              3493.2781
 Red. masses --      1.0895                 1.0882                 1.0744
 Frc consts  --      6.8496                 6.9627                 7.7248
 IR Inten    --     12.7391                15.8810                 1.6223

 - Thermochemistry -
 -------------------
 Temperature   298.150 Kelvin.  Pressure   1.00000 Atm.
 Atom     1 has atomic number  6 and mass  12.00000

 Molecular mass:   266.17830 amu.
 Principal axes and moments of inertia in atomic units:
                           1         2         3
     Eigenvalues --  4688.036186971.94599**********
           X            0.99987   0.01608  -0.00248
           Y           -0.01607   0.99987   0.00142
           Z            0.00250  -0.00138   1.00000
 This molecule is an asymmetric top.
 Rotational symmetry number  1.
 Warning -- assumption of classical behavior for rotation
           may cause significant error
 Rotational temperatures (Kelvin)      0.01848     0.01242     0.00771
 Rotational constants (GHZ):           0.38497     0.25886     0.16074
 Zero-point vibrational energy     965991.5 (Joules/Mol)
                                  230.87750 (Kcal/Mol)
 Warning -- explicit consideration of  27 degrees of freedom as
           vibrations may cause significant error
 Vibrational temperatures:     18.89    39.14    82.64   100.99   137.96
          (Kelvin)            153.43   186.40   211.28   256.43   289.12
                              338.11   353.34   408.61   446.27   464.11
                              490.63   501.84   524.27   608.63   660.82
                              692.03   697.49   741.11   786.12   813.56
                              819.88   863.37   901.24   908.89   997.04
                             1056.32  1084.36  1097.09  1100.95  1112.54
                             1134.55  1170.65  1186.78  1233.27  1244.67
                             1263.12  1327.08  1355.54  1364.56  1378.93
                             1397.48  1401.85  1405.63  1414.38  1485.62
                             1514.78  1528.40  1537.17  1573.38  1588.12
                             1600.87  1638.19  1646.13  1671.85  1700.99
                             1711.40  1714.85  1721.96  1727.71  1755.73
                             1771.85  1786.69  1802.25  1809.37  1861.61
                             1880.58  1886.97  1923.80  1932.18  1935.99
                             1962.66  1975.41  1990.48  2022.04  2027.40
                             2054.72  2118.08  2143.04  2147.05  2161.13
                             2168.78  2172.35  2178.95  2193.57  2207.52
                             2212.14  2218.26  2230.54  2234.42  2337.03
                             2352.31  2376.90  2390.24  4239.42  4279.27
                             4381.86  4389.72  4400.51  4417.16  4432.37
                             4434.99  4450.98  4478.85  4485.70  4503.68
                             4513.91  4590.27  4592.85  4607.98  4612.08
                             4638.05  4640.45  4699.91  4741.25  5026.05

 Zero-point correction=                           0.367927 (Hartree/Particle)
 Thermal correction to Energy=                    0.385590
 Thermal correction to Enthalpy=                  0.386534
 Thermal correction to Gibbs Free Energy=         0.320588
 Sum of electronic and zero-point Energies=           -808.289542
 Sum of electronic and thermal Energies=              -808.271879
 Sum of electronic and thermal Enthalpies=            -808.270935
 Sum of electronic and thermal Free Energies=         -808.336880

                     E (Thermal)             CV                S
                      KCal/Mol        Cal/Mol-Kelvin    Cal/Mol-Kelvin
 Total                  241.961             70.218            138.795
 Electronic               0.000              0.000              0.000
 Translational            0.889              2.981             42.636
 Rotational               0.889              2.981             34.261
 Vibrational            240.184             64.256             61.897
 Vibration     1          0.593              1.987              7.470
 Vibration     2          0.593              1.984              6.023
 Vibration     3          0.596              1.975              4.543
 Vibration     4          0.598              1.968              4.148
 Vibration     5          0.603              1.952              3.536
 Vibration     6          0.606              1.944              3.329
 Vibration     7          0.612              1.924              2.953
 Vibration     8          0.617              1.906              2.713
 Vibration     9          0.629              1.869              2.347
 Vibration    10          0.638              1.839              2.124
 Vibration    11          0.655              1.787              1.840
 Vibration    12          0.660              1.770              1.762
 Vibration    13          0.682              1.703              1.509
 Vibration    14          0.699              1.654              1.361
 Vibration    15          0.708              1.630              1.297
 Vibration    16          0.721              1.594              1.207
 Vibration    17          0.726              1.578              1.172
 Vibration    18          0.738              1.546              1.103
 Vibration    19          0.785              1.420              0.882
 Vibration    20          0.817              1.340              0.768
 Vibration    21          0.837              1.292              0.707
 Vibration    22          0.841              1.284              0.697
 Vibration    23          0.870              1.217              0.621
 Vibration    24          0.902              1.148              0.552
 Vibration    25          0.921              1.106              0.513
 Vibration    26          0.926              1.096              0.505
 Vibration    27          0.958              1.032              0.450

                           ! Non-Optimized Parameters !
 Normal termination of Gaussian 16 at Wed Mar  2 02:58:59 2022.

 ------------------------------------------
 #p b3lyp/6-31G(d) geom=allcheck guess=read
 ------------------------------------------

 Structure from the checkpoint file:  "26.n.pdb.xyz.mst.wat.chk"
 ------------
 26.n.pdb.xyz
 ------------
 Charge =  0 Multiplicity = 1

 SCF Done:  E(RB3LYP) =  -808.647749558     A.U. after   11 cycles
 Normal termination of Gaussian 16 at Wed Mar  2 03:03:19 2022.
 Gaussian 16:  ES64L-G16RevA.03 25-Dec-2016

 ----------------------------------------------------------------------
 #p b3lyp/6-31G(d) scrf=(iefpcm,read,solvent=water) geom=allcheck guess
 =read
 ----------------------------------------------------------------------

 Structure from the checkpoint file:  "26.n.pdb.xyz.mst.wat.chk"
 ------------
 26.n.pdb.xyz
 ------------
 Charge =  0 Multiplicity = 1

                         Standard orientation:
 ---------------------------------------------------------------------
 Center     Atomic      Atomic             Coordinates (Angstroms)
 Number     Number       Type             X           Y           Z
 ---------------------------------------------------------------------
      1          6           0       -6.079253   -0.399691    0.080163
      2          7           0       -4.767852   -0.246558   -0.547112
      3          6           0       -3.680891   -0.302655    0.430485
      4          6           0       -2.316437   -0.175432   -0.248015
      5          6           0       -1.180595   -0.246161    0.786328
      6          7           0        0.197402   -0.035168    0.295511
      7          6           0        0.929351   -1.236694    0.053124
      8          6           0        2.292350   -1.404419    0.379867
      9          6           0        3.132908   -0.252476    0.840774
     10          6           0        3.162922    0.824937   -0.254444
     11          6           0        1.945291    1.720727   -0.232555
     12          6           0        0.616878    1.301449    0.072116
     13          6           0       -0.359788    2.325073    0.173537
     14          6           0       -0.075532    3.668181   -0.047732
     15          6           0        1.213703    4.066887   -0.383006
     16          6           0        2.193603    3.082695   -0.454327
     17          6           0        2.896638   -2.651407    0.183130
     18          6           0        2.193710   -3.751667   -0.301832
     19          6           0        0.846821   -3.591289   -0.620076
     20          6           0        0.232076   -2.353618   -0.450176
     21          1           0       -6.280129    0.462332    0.725971
     22          1           0       -6.853671   -0.430713   -0.691462
     23          1           0       -6.174448   -1.308180    0.700251
     24          1           0       -4.639639   -1.014617   -1.204917
     25          1           0       -3.709081   -1.228627    1.034702
     26          1           0       -3.819658    0.526887    1.136556
     27          1           0       -2.278882    0.761885   -0.808743
     28          1           0       -2.204085   -0.977130   -0.985047
     29          1           0       -1.368456    0.479529    1.583643
     30          1           0       -1.195577   -1.225807    1.266107
     31          1           0        2.749249    0.183391    1.770937
     32          1           0        4.145937   -0.609759    1.044068
     33          1           0        4.044402    1.461085   -0.128624
     34          1           0        3.281311    0.327861   -1.225263
     35          1           0       -1.379335    2.078564    0.419384
     36          1           0       -0.877464    4.394179    0.042673
     37          1           0        1.456904    5.108009   -0.563870
     38          1           0        3.218259    3.368817   -0.674059
     39          1           0        3.948779   -2.748841    0.435571
     40          1           0        2.687864   -4.708729   -0.430184
     41          1           0        0.267858   -4.421724   -1.011102
     42          1           0       -0.809515   -2.252969   -0.719545
 ---------------------------------------------------------------------

 SCF Done:  E(RB3LYP) =  -808.656928906     A.U. after   10 cycles

 The electronic state is 1-A.
 Alpha  occ. eigenvalues --  -14.36690 -14.31440 -10.23704 -10.23111 -10.21879
 Alpha  occ. eigenvalues --  -10.20422 -10.19590 -10.19400 -10.19384 -10.18807
 Alpha  occ. eigenvalues --  -10.18666 -10.18643 -10.18565 -10.18538 -10.18468
 Alpha  occ. eigenvalues --  -10.18448 -10.18385 -10.18219 -10.18186 -10.17840
 Alpha  occ. eigenvalues --   -0.95416  -0.89612  -0.85582  -0.84612  -0.79978
 Alpha  occ. eigenvalues --   -0.77467  -0.75637  -0.75461  -0.72407  -0.70532
 Alpha  occ. eigenvalues --   -0.67789  -0.64929  -0.63571  -0.60330  -0.60028
 Alpha  occ. eigenvalues --   -0.59143  -0.58814  -0.56522  -0.52083  -0.50485
 Alpha  occ. eigenvalues --   -0.48923  -0.47852  -0.47234  -0.46533  -0.46345
 Alpha  occ. eigenvalues --   -0.45260  -0.44282  -0.43150  -0.42737  -0.42101
 Alpha  occ. eigenvalues --   -0.41277  -0.40789  -0.40133  -0.39434  -0.38559
 Alpha  occ. eigenvalues --   -0.37932  -0.37426  -0.36157  -0.35801  -0.35543
 Alpha  occ. eigenvalues --   -0.35199  -0.34638  -0.33758  -0.33137  -0.32747
 Alpha  occ. eigenvalues --   -0.32646  -0.30106  -0.25103  -0.24513  -0.24088
 Alpha  occ. eigenvalues --   -0.22447  -0.18962
 Alpha virt. eigenvalues --   -0.00898  -0.00190   0.00349   0.02030   0.08030
 Alpha virt. eigenvalues --    0.09815   0.10449   0.10644   0.11676   0.12559
 Alpha virt. eigenvalues --    0.13256   0.14288   0.14338   0.14757   0.15180

 Mulliken charges:
               1
     1  C   -0.305776
     2  N   -0.596630
     3  C   -0.118386
     4  C   -0.292880
     5  C   -0.176397
     6  N   -0.614672
     7  C    0.236796
     8  C    0.147540
     9  C   -0.353993
    10  C   -0.349737
    11  C    0.142722
    12  C    0.284802
    13  C   -0.212238
    14  C   -0.169130
    15  C   -0.154012
    16  C   -0.234803
    17  C   -0.228413
    18  C   -0.149221
    19  C   -0.164834
    20  C   -0.178369
    21  H    0.151912
    22  H    0.153536
    23  H    0.127879
    24  H    0.335428
    25  H    0.121736
    26  H    0.144960
    27  H    0.156279
    28  H    0.160788
    29  H    0.167952
    30  H    0.172055
    31  H    0.158304
    32  H    0.156561
    33  H    0.158141
    34  H    0.159816
    35  H    0.152979
    36  H    0.144365
    37  H    0.139736
    38  H    0.140051
    39  H    0.143110
    40  H    0.144809
    41  H    0.147609
    42  H    0.149624
 Sum of Mulliken charges =  -0.00000

 Dipole moment (field-independent basis, Debye):
    X=             -0.7850    Y=             -2.1582    Z=              0.8463  Tot=              2.4475
 Quadrupole moment (field-independent basis, Debye-Ang):
   XX=           -105.2541   YY=           -114.3837   ZZ=           -122.8126
   XY=              6.1579   XZ=             -1.5220   YZ=              3.2903

 Normal termination of Gaussian 16 at Wed Mar  2 03:08:12 2022.
