 Gaussian 16, Revision A.03,

 ----------------------------------------------------------------------
 #p b3lyp/6-31G(d) opt=(MaxStep=10,MaxCycles=1000) freq scf=(MaxCycle=2
 000,NoVarAcc,NoIncFock) scrf=(iefpcm,read,solvent=water)
 ----------------------------------------------------------------------

 -------------
 260.n.pdb.xyz
 -------------
 Symbolic Z-matrix:
 Charge =  0 Multiplicity = 1

 SCF Done:  E(RB3LYP) =  -1796.93796114     A.U. after   13 cycles
 SCF Done:  E(RB3LYP) =  -1796.94252463     A.U. after   10 cycles
 SCF Done:  E(RB3LYP) =  -1796.94584317     A.U. after   11 cycles
 SCF Done:  E(RB3LYP) =  -1796.94516169     A.U. after   11 cycles
 SCF Done:  E(RB3LYP) =  -1796.94701122     A.U. after   10 cycles
 SCF Done:  E(RB3LYP) =  -1796.94724101     A.U. after   11 cycles
 SCF Done:  E(RB3LYP) =  -1796.94726553     A.U. after    9 cycles
 SCF Done:  E(RB3LYP) =  -1796.94726308     A.U. after    9 cycles
 SCF Done:  E(RB3LYP) =  -1796.94725817     A.U. after    9 cycles
 SCF Done:  E(RB3LYP) =  -1796.94726770     A.U. after    8 cycles
 SCF Done:  E(RB3LYP) =  -1796.94726909     A.U. after    8 cycles
 SCF Done:  E(RB3LYP) =  -1796.94726908     A.U. after    7 cycles
 SCF Done:  E(RB3LYP) =  -1796.94726867     A.U. after    7 cycles
 SCF Done:  E(RB3LYP) =  -1796.94726893     A.U. after    7 cycles
 Optimization completed.
    -- Stationary point found.
 Normal termination of Gaussian 16 at Tue Mar  1 06:26:27 2022.

 --------------------------------------------------------------------
 #P Geom=AllCheck Guess=TCheck SCRF=Check GenChk RB3LYP/6-31G(d) Freq
 --------------------------------------------------------------------

 Structure from the checkpoint file:  "260.n.pdb.xyz.mst.wat.chk"
 -------------
 260.n.pdb.xyz
 -------------
 Charge =  0 Multiplicity = 1

 SCF Done:  E(RB3LYP) =  -1796.94726893     A.U. after    1 cycles

  Exact polarizability: 408.447 -11.762 519.246  -7.454  -3.957 229.376
 Approx polarizability: 455.051 -14.961 535.310 -13.535   4.082 262.377

                      1                      2                      3
                      A                      A                      A
 Frequencies --     18.0553                26.7253                32.5960
 Red. masses --      4.5752                 4.7671                 4.0327
 Frc consts  --      0.0009                 0.0020                 0.0025
 IR Inten    --      0.0700                 3.6641                 0.5477

                      4                      5                      6
                      A                      A                      A
 Frequencies --     35.6854                50.8221                64.8654
 Red. masses --      4.5117                 4.4135                 2.9074
 Frc consts  --      0.0034                 0.0067                 0.0072
 IR Inten    --      4.1369                 2.7108                 0.2720

                      7                      8                      9
                      A                      A                      A
 Frequencies --     78.5604               105.3732               116.0991
 Red. masses --      5.5921                 4.8119                 3.7804
 Frc consts  --      0.0203                 0.0315                 0.0300
 IR Inten    --      2.8878                 4.2889                 1.2307

                     10                     11                     12
                      A                      A                      A
 Frequencies --    126.1919               148.4389               161.2412
 Red. masses --      3.3728                 3.9507                 1.7544
 Frc consts  --      0.0316                 0.0513                 0.0269
 IR Inten    --      0.7536                 0.3259                 1.4814

                     13                     14                     15
                      A                      A                      A
 Frequencies --    168.7385               187.1172               209.7849
 Red. masses --      3.5950                 3.9035                 1.2223
 Frc consts  --      0.0603                 0.0805                 0.0317
 IR Inten    --      0.6136                 0.5717                 0.7460

                     16                     17                     18
                      A                      A                      A
 Frequencies --    220.2267               227.1367               240.0203
 Red. masses --      1.5948                 2.2132                 4.7999
 Frc consts  --      0.0456                 0.0673                 0.1629
 IR Inten    --      1.7052                 1.7722                 1.8764

                     19                     20                     21
                      A                      A                      A
 Frequencies --    253.0768               276.2827               304.6016
 Red. masses --      3.1140                 5.7699                 4.3787
 Frc consts  --      0.1175                 0.2595                 0.2394
 IR Inten    --      2.4521                14.5257                 4.8652

                     22                     23                     24
                      A                      A                      A
 Frequencies --    319.9806               339.0298               347.2395
 Red. masses --      3.1594                 3.2210                 4.9243
 Frc consts  --      0.1906                 0.2181                 0.3498
 IR Inten    --      1.0320                 5.3267                11.8369

                     25                     26                     27
                      A                      A                      A
 Frequencies --    364.9158               373.5088               390.5214
 Red. masses --      4.2050                 3.2127                 4.7351
 Frc consts  --      0.3299                 0.2641                 0.4255
 IR Inten    --      1.7777                17.5292                 2.3551

                     28                     29                     30
                      A                      A                      A
 Frequencies --    427.1109               440.3323               455.2243
 Red. masses --      4.1012                 4.2304                 2.9731
 Frc consts  --      0.4408                 0.4833                 0.3630
 IR Inten    --     10.0538                 5.0472                 6.1351

                     31                     32                     33
                      A                      A                      A
 Frequencies --    457.4334               463.1887               471.1828
 Red. masses --      3.4392                 3.2891                 3.7972
 Frc consts  --      0.4240                 0.4158                 0.4967
 IR Inten    --      4.5204                 1.9313                14.3692

                     34                     35                     36
                      A                      A                      A
 Frequencies --    486.0774               501.1697               515.8844
 Red. masses --      3.3854                 5.0336                 2.5394
 Frc consts  --      0.4713                 0.7449                 0.3982
 IR Inten    --      0.5606                 8.3321                 9.5910

                     37                     38                     39
                      A                      A                      A
 Frequencies --    539.2898               549.6241               584.6535
 Red. masses --      6.3113                 3.8884                 2.5266
 Frc consts  --      1.0815                 0.6921                 0.5088
 IR Inten    --      9.2940                 0.5953                11.8717

                     40                     41                     42
                      A                      A                      A
 Frequencies --    599.0605               622.9521               654.3715
 Red. masses --      4.9294                 5.7877                 4.3124
 Frc consts  --      1.0423                 1.3233                 1.0880
 IR Inten    --     12.2600                 6.2721                14.5642

                     43                     44                     45
                      A                      A                      A
 Frequencies --    671.8487               689.6403               716.3095
 Red. masses --      5.3248                 5.8786                 5.5799
 Frc consts  --      1.4161                 1.6473                 1.6869
 IR Inten    --     23.2735                 3.4210                 1.0892

                     46                     47                     48
                      A                      A                      A
 Frequencies --    728.9762               736.1024               763.9316
 Red. masses --      4.9781                 4.3459                 1.2927
 Frc consts  --      1.5586                 1.3874                 0.4445
 IR Inten    --      9.1650                 8.0031                91.0184

                     49                     50                     51
                      A                      A                      A
 Frequencies --    769.5829               773.0456               795.8471
 Red. masses --      1.4168                 2.2645                 1.7822
 Frc consts  --      0.4944                 0.7973                 0.6651
 IR Inten    --      6.1081                10.5737                27.2673

                     52                     53                     54
                      A                      A                      A
 Frequencies --    810.2561               835.6237               859.9623
 Red. masses --      3.9553                 1.2923                 2.5045
 Frc consts  --      1.5299                 0.5317                 1.0913
 IR Inten    --      2.1828                40.5709                 4.7001

                     55                     56                     57
                      A                      A                      A
 Frequencies --    866.3092               868.3360               878.4803
 Red. masses --      1.4264                 1.3623                 2.2514
 Frc consts  --      0.6307                 0.6052                 1.0237
 IR Inten    --     25.4007                 4.8402                 9.6284

                     58                     59                     60
                      A                      A                      A
 Frequencies --    915.8952               942.1931               946.6767
 Red. masses --      2.4365                 1.3492                 2.0458
 Frc consts  --      1.2042                 0.7057                 1.0802
 IR Inten    --     40.1904                 3.5082                 2.2038

                     61                     62                     63
                      A                      A                      A
 Frequencies --    960.8784               965.1738               968.6135
 Red. masses --      1.2925                 1.5246                 2.1182
 Frc consts  --      0.7031                 0.8368                 1.1709
 IR Inten    --      3.1257                21.4489                22.3832

                     64                     65                     66
                      A                      A                      A
 Frequencies --    983.1702               983.6226              1011.4640
 Red. masses --      1.3041                 1.2600                 2.2044
 Frc consts  --      0.7427                 0.7183                 1.3287
 IR Inten    --     72.5212                 4.3858                 0.1449

                     67                     68                     69
                      A                      A                      A
 Frequencies --   1030.4774              1042.9509              1044.1473
 Red. masses --      2.5364                 4.7604                 2.1895
 Frc consts  --      1.5869                 3.0509                 1.4065
 IR Inten    --     25.3357               185.6105                90.5633

                     70                     71                     72
                      A                      A                      A
 Frequencies --   1066.4961              1067.2949              1070.0793
 Red. masses --      3.9694                 3.9930                 4.3619
 Frc consts  --      2.6601                 2.6799                 2.9428
 IR Inten    --     27.0326                13.0663                48.9777

                     73                     74                     75
                      A                      A                      A
 Frequencies --   1082.1814              1082.7936              1108.5745
 Red. masses --      1.9885                 2.5951                 2.0730
 Frc consts  --      1.3721                 1.7926                 1.5010
 IR Inten    --     35.8458                 4.4951                39.1287

                     76                     77                     78
                      A                      A                      A
 Frequencies --   1118.0649              1122.2881              1135.0466
 Red. masses --      2.6770                 3.2312                 2.0690
 Frc consts  --      1.9716                 2.3978                 1.5705
 IR Inten    --      4.5857                37.8586                13.3909

                     79                     80                     81
                      A                      A                      A
 Frequencies --   1147.8434              1150.1967              1165.8283
 Red. masses --      1.4273                 1.4820                 1.4459
 Frc consts  --      1.1080                 1.1551                 1.1578
 IR Inten    --     14.3192                12.9447                19.4345

                     82                     83                     84
                      A                      A                      A
 Frequencies --   1178.0135              1201.6371              1204.4332
 Red. masses --      1.6866                 1.1986                 1.9201
 Frc consts  --      1.3790                 1.0197                 1.6411
 IR Inten    --     43.9065                21.1845                34.7450

                     85                     86                     87
                      A                      A                      A
 Frequencies --   1211.7428              1239.3874              1277.1030
 Red. masses --      1.4396                 1.5943                 2.0823
 Frc consts  --      1.2454                 1.4429                 2.0010
 IR Inten    --     47.9986               134.9005               111.6578

                     88                     89                     90
                      A                      A                      A
 Frequencies --   1280.6703              1289.9677              1299.6522
 Red. masses --      1.8416                 1.3962                 1.5565
 Frc consts  --      1.7796                 1.3688                 1.5490
 IR Inten    --     68.9121                 8.3898                19.8719

                     91                     92                     93
                      A                      A                      A
 Frequencies --   1316.9852              1321.9779              1327.0312
 Red. masses --      1.4614                 1.3596                 1.5185
 Frc consts  --      1.4935                 1.3999                 1.5755
 IR Inten    --     15.5861                46.1094                32.9768

                     94                     95                     96
                      A                      A                      A
 Frequencies --   1336.9656              1338.0866              1354.0229
 Red. masses --      1.3934                 6.1273                 1.2728
 Frc consts  --      1.4675                 6.4638                 1.3749
 IR Inten    --     30.0518                66.0383                24.8176

                     97                     98                     99
                      A                      A                      A
 Frequencies --   1355.9883              1356.7456              1372.1854
 Red. masses --      1.4568                 3.6647                 1.3738
 Frc consts  --      1.5782                 3.9745                 1.5241
 IR Inten    --      3.3085                 8.9798                 2.0149

                    100                    101                    102
                      A                      A                      A
 Frequencies --   1378.4066              1384.5711              1392.4127
 Red. masses --      1.5138                 1.3931                 1.4288
 Frc consts  --      1.6946                 1.5735                 1.6322
 IR Inten    --     69.8137                22.0296                34.6174

                    103                    104                    105
                      A                      A                      A
 Frequencies --   1412.0362              1420.0043              1431.2803
 Red. masses --      1.2997                 1.5893                 1.3626
 Frc consts  --      1.5268                 1.8881                 1.6447
 IR Inten    --     21.6867                12.7458                45.8789

                    106                    107                    108
                      A                      A                      A
 Frequencies --   1441.9481              1463.2453              1477.7699
 Red. masses --      3.2183                 1.0505                 1.0545
 Frc consts  --      3.9426                 1.3252                 1.3568
 IR Inten    --    331.1433                 9.7959                12.2109

                    109                    110                    111
                      A                      A                      A
 Frequencies --   1478.0589              1486.4859              1500.5971
 Red. masses --      1.1782                 2.2528                 1.0793
 Frc consts  --      1.5165                 2.9329                 1.4319
 IR Inten    --      0.6400                57.8940                 0.1944

                    112                    113                    114
                      A                      A                      A
 Frequencies --   1507.6234              1508.0841              1509.5951
 Red. masses --      2.2664                 1.1025                 1.0575
 Frc consts  --      3.0351                 1.4774                 1.4198
 IR Inten    --    405.1696                 2.8662                14.6816

                    115                    116                    117
                      A                      A                      A
 Frequencies --   1517.6342              1521.2281              1526.3467
 Red. masses --      1.1021                 1.1576                 1.1895
 Frc consts  --      1.4956                 1.5783                 1.6328
 IR Inten    --      6.9443                20.1410                 7.2201

                    118                    119                    120
                      A                      A                      A
 Frequencies --   1537.6280              1540.3995              1542.2656
 Red. masses --      1.0858                 1.1288                 1.6869
 Frc consts  --      1.5125                 1.5781                 2.3640
 IR Inten    --      3.6758                27.9557                11.7698

                    121                    122                    123
                      A                      A                      A
 Frequencies --   1609.7462              1622.2338              1631.0658
 Red. masses --      5.8040                 6.2878                 5.9251
 Frc consts  --      8.8612                 9.7494                 9.2874
 IR Inten    --      7.2525                93.1885                 0.4483

                    124                    125                    126
                      A                      A                      A
 Frequencies --   1650.8816              2923.9812              2962.7370
 Red. masses --      6.2663                 1.0807                 1.0605
 Frc consts  --     10.0622                 5.4439                 5.4846
 IR Inten    --     70.7194               112.3060               149.9858

                    127                    128                    129
                      A                      A                      A
 Frequencies --   3044.7186              3052.2997              3058.2078
 Red. masses --      1.0700                 1.0601                 1.0646
 Frc consts  --      5.8441                 5.8193                 5.8663
 IR Inten    --     39.5249                28.8488               113.6889

                    130                    131                    132
                      A                      A                      A
 Frequencies --   3064.3858              3082.6974              3086.3223
 Red. masses --      1.0658                 1.0616                 1.1007
 Frc consts  --      5.8965                 5.9441                 6.1774
 IR Inten    --     51.2566                 4.8325                35.5986

                    133                    134                    135
                      A                      A                      A
 Frequencies --   3088.3019              3092.1907              3094.3096
 Red. masses --      1.0287                 1.0658                 1.0680
 Frc consts  --      5.7808                 6.0041                 6.0248
 IR Inten    --      9.4851                12.0046               121.4577

                    136                    137                    138
                      A                      A                      A
 Frequencies --   3103.0895              3111.1677              3114.4657
 Red. masses --      1.1004                 1.0977                 1.0999
 Frc consts  --      6.2428                 6.2600                 6.2861
 IR Inten    --     90.9705               139.5263                34.2418

                    139                    140                    141
                      A                      A                      A
 Frequencies --   3119.1340              3136.2926              3139.9893
 Red. masses --      1.0999                 1.1036                 1.1045
 Frc consts  --      6.3045                 6.3959                 6.4161
 IR Inten    --     42.8453                67.3788                72.7501

                    142                    143                    144
                      A                      A                      A
 Frequencies --   3191.4895              3197.6339              3210.5182
 Red. masses --      1.1076                 1.1070                 1.0863
 Frc consts  --      6.6471                 6.6691                 6.5968
 IR Inten    --      5.3743                 5.3075                 3.0130

                    145                    146                    147
                      A                      A                      A
 Frequencies --   3212.7852              3218.9873              3232.0495
 Red. masses --      1.0895                 1.0907                 1.0967
 Frc consts  --      6.6256                 6.6589                 6.7501
 IR Inten    --     12.9767                22.0966                44.4314

                    148                    149                    150
                      A                      A                      A
 Frequencies --   3236.9972              3257.7506              3270.2327
 Red. masses --      1.0924                 1.0887                 1.0899
 Frc consts  --      6.7438                 6.8074                 6.8673
 IR Inten    --      6.1326                 2.2391                12.9484

 - Thermochemistry -
 -------------------
 Temperature   298.150 Kelvin.  Pressure   1.00000 Atm.
 Atom     1 has atomic number  6 and mass  12.00000

 Molecular mass:   386.14866 amu.
 Principal axes and moments of inertia in atomic units:
                           1         2         3
     Eigenvalues --  ******************************
           X            1.00000  -0.00208  -0.00059
           Y            0.00207   0.99989  -0.01436
           Z            0.00062   0.01436   0.99990
 This molecule is an asymmetric top.
 Rotational symmetry number  1.
 Warning -- assumption of classical behavior for rotation
           may cause significant error
 Rotational temperatures (Kelvin)      0.00815     0.00672     0.00393
 Rotational constants (GHZ):           0.16980     0.14001     0.08179
 Zero-point vibrational energy    1147742.0 (Joules/Mol)
                                  274.31691 (Kcal/Mol)
 Warning -- explicit consideration of  40 degrees of freedom as
           vibrations may cause significant error
 Vibrational temperatures:     25.98    38.45    46.90    51.34    73.12
          (Kelvin)             93.33   113.03   151.61   167.04   181.56
                              213.57   231.99   242.78   269.22   301.83
                              316.86   326.80   345.34   364.12   397.51
                              438.25   460.38   487.79   499.60   525.03
                              537.40   561.87   614.52   633.54   654.97
                              658.14   666.43   677.93   699.36   721.07
                              742.24   775.92   790.79   841.19   861.91
                              896.29   941.49   966.64   992.24  1030.61
                             1048.83  1059.09  1099.13  1107.26  1112.24
                             1145.05  1165.78  1202.28  1237.29  1246.43
                             1249.34  1263.94  1317.77  1355.61  1362.06
                             1382.49  1388.67  1393.62  1414.56  1415.21
                             1455.27  1482.63  1500.57  1502.30  1534.45
                             1535.60  1539.61  1557.02  1557.90  1594.99
                             1608.65  1614.72  1633.08  1651.49  1654.88
                             1677.37  1694.90  1728.89  1732.91  1743.43
                             1783.20  1837.47  1842.60  1855.98  1869.91
                             1894.85  1902.03  1909.30  1923.60  1925.21
                             1948.14  1950.96  1952.05  1974.27  1983.22
                             1992.09  2003.37  2031.61  2043.07  2059.29
                             2074.64  2105.28  2126.18  2126.60  2138.72
                             2159.02  2169.13  2169.80  2171.97  2183.54
                             2188.71  2196.07  2212.30  2216.29  2218.98
                             2316.07  2334.03  2346.74  2375.25  4206.96
                             4262.72  4380.67  4391.58  4400.08  4408.97
                             4435.31  4440.53  4443.38  4448.97  4452.02
                             4464.65  4476.28  4481.02  4487.74  4512.43
                             4517.74  4591.84  4600.68  4619.22  4622.48
                             4631.40  4650.20  4657.32  4687.18  4705.14

 Zero-point correction=                           0.437152 (Hartree/Particle)
 Thermal correction to Energy=                    0.461705
 Thermal correction to Enthalpy=                  0.462649
 Thermal correction to Gibbs Free Energy=         0.381134
 Sum of electronic and zero-point Energies=          -1796.510117
 Sum of electronic and thermal Energies=             -1796.485564
 Sum of electronic and thermal Enthalpies=           -1796.484620
 Sum of electronic and thermal Free Energies=        -1796.566135

                     E (Thermal)             CV                S
                      KCal/Mol        Cal/Mol-Kelvin    Cal/Mol-Kelvin
 Total                  289.724             96.078            171.563
 Electronic               0.000              0.000              0.000
 Translational            0.889              2.981             43.745
 Rotational               0.889              2.981             36.356
 Vibrational            287.947             90.116             91.461
 Vibration     1          0.593              1.986              6.837
 Vibration     2          0.593              1.984              6.059
 Vibration     3          0.594              1.983              5.665
 Vibration     4          0.594              1.982              5.485
 Vibration     5          0.595              1.977              4.785
 Vibration     6          0.597              1.971              4.303
 Vibration     7          0.600              1.964              3.927
 Vibration     8          0.605              1.945              3.352
 Vibration     9          0.608              1.936              3.164
 Vibration    10          0.611              1.927              3.003
 Vibration    11          0.618              1.904              2.692
 Vibration    12          0.622              1.890              2.535
 Vibration    13          0.625              1.881              2.449
 Vibration    14          0.632              1.858              2.256
 Vibration    15          0.642              1.826              2.046
 Vibration    16          0.647              1.810              1.957
 Vibration    17          0.651              1.800              1.901
 Vibration    18          0.657              1.779              1.803
 Vibration    19          0.664              1.758              1.709
 Vibration    20          0.678              1.717              1.557
 Vibration    21          0.696              1.665              1.391
 Vibration    22          0.706              1.635              1.310
 Vibration    23          0.719              1.598              1.217
 Vibration    24          0.725              1.581              1.179
 Vibration    25          0.738              1.544              1.101
 Vibration    26          0.745              1.526              1.065
 Vibration    27          0.758              1.490              0.998
 Vibration    28          0.789              1.411              0.868
 Vibration    29          0.800              1.382              0.826
 Vibration    30          0.814              1.349              0.780
 Vibration    31          0.816              1.344              0.774
 Vibration    32          0.821              1.332              0.757
 Vibration    33          0.828              1.314              0.734
 Vibration    34          0.842              1.281              0.694
 Vibration    35          0.857              1.247              0.655
 Vibration    36          0.871              1.215              0.620
 Vibration    37          0.894              1.163              0.567
 Vibration    38          0.905              1.141              0.545
 Vibration    39          0.942              1.065              0.477
 Vibration    40          0.957              1.034              0.451

 Optimization completed.
    -- Stationary point found.
 Normal termination of Gaussian 16 at Tue Mar  1 08:23:48 2022.

 ------------------------------------------
 #p b3lyp/6-31G(d) geom=allcheck guess=read
 ------------------------------------------

 Structure from the checkpoint file:  "260.n.pdb.xyz.mst.wat.chk"
 -------------
 260.n.pdb.xyz
 -------------
 Charge =  0 Multiplicity = 1

 SCF Done:  E(RB3LYP) =  -1796.93164184     A.U. after   12 cycles
 Normal termination of Gaussian 16 at Tue Mar  1 08:30:25 2022.
 Gaussian 16:  ES64L-G16RevA.03 25-Dec-2016

 ----------------------------------------------------------------------
 #p b3lyp/6-31G(d) scrf=(iefpcm,read,solvent=water) geom=allcheck guess
 =read
 ----------------------------------------------------------------------

 Structure from the checkpoint file:  "260.n.pdb.xyz.mst.wat.chk"
 -------------
 260.n.pdb.xyz
 -------------
 Charge =  0 Multiplicity = 1

                         Standard orientation:
 ---------------------------------------------------------------------
 Center     Atomic      Atomic             Coordinates (Angstroms)
 Number     Number       Type             X           Y           Z
 ---------------------------------------------------------------------
      1          6           0       -4.442050    1.582821   -1.279327
      2          7           0       -4.043498    0.204964   -1.011760
      3          6           0       -5.209137   -0.698176   -0.916369
      4          6           0       -5.778694   -0.796622    0.503424
      5          6           0       -4.712221   -1.386563    1.456518
      6          6           0       -3.294128   -1.212359    0.877320
      7          6           0       -3.136411    0.135069    0.160218
      8          6           0       -1.691738    0.395469   -0.301191
      9          6           0       -0.732078    0.652363    0.874587
     10          7           0        0.641955    1.038767    0.520865
     11          6           0        1.562539    0.021739    0.205797
     12          6           0        1.140536   -1.299380   -0.022167
     13          6           0        2.070755   -2.300542   -0.299184
     14          6           0        3.426222   -2.034561   -0.424667
     15          6           0        3.855663   -0.724416   -0.215036
     16          6           0        2.950652    0.279878    0.126144
     17         16           0        3.595475    1.865927    0.596498
     18          6           0        2.216505    2.892265    0.140070
     19          6           0        0.899350    2.395213    0.216330
     20          6           0       -0.146481    3.309828   -0.000186
     21          6           0        0.110056    4.652025   -0.284422
     22          6           0        1.417424    5.118398   -0.390293
     23          6           0        2.468538    4.224483   -0.184568
     24         16           0        1.487868   -3.993883   -0.600827
     25          6           0        1.313269   -4.499636    1.145259
     26          8           0        2.674240   -4.771382   -1.165117
     27          1           0       -3.553122    2.204431   -1.416773
     28          1           0       -5.041038    2.033452   -0.467597
     29          1           0       -5.027606    1.626158   -2.202069
     30          1           0       -5.962756   -0.336416   -1.621223
     31          1           0       -4.914212   -1.698611   -1.255846
     32          1           0       -6.688599   -1.405913    0.505598
     33          1           0       -6.073858    0.204879    0.836836
     34          1           0       -4.774399   -0.896485    2.433932
     35          1           0       -4.900483   -2.451458    1.629093
     36          1           0       -3.077069   -2.011865    0.158248
     37          1           0       -2.548195   -1.298067    1.672919
     38          1           0       -3.408663    0.928523    0.882491
     39          1           0       -1.355291   -0.454718   -0.902565
     40          1           0       -1.685558    1.260531   -0.969761
     41          1           0       -0.658961   -0.234385    1.507377
     42          1           0       -1.134623    1.448252    1.506210
     43          1           0        0.089534   -1.549556    0.011322
     44          1           0        4.112630   -2.832852   -0.680448
     45          1           0        4.909498   -0.477742   -0.289494
     46          1           0       -1.173969    2.980492    0.052786
     47          1           0       -0.727209    5.325019   -0.435138
     48          1           0        1.622560    6.156925   -0.624342
     49          1           0        3.497188    4.560763   -0.248740
     50          1           0        0.984903   -5.540056    1.145678
     51          1           0        0.562032   -3.871071    1.624666
     52          1           0        2.279212   -4.401746    1.643761
 ---------------------------------------------------------------------

 SCF Done:  E(RB3LYP) =  -1796.94538976     A.U. after   11 cycles

 The electronic state is 1-A.
 Alpha  occ. eigenvalues --  -88.99513 -88.90022 -19.11740 -14.38193 -14.31992
 Alpha  occ. eigenvalues --  -10.25512 -10.24764 -10.23461 -10.22856 -10.22726
 Alpha  occ. eigenvalues --  -10.22318 -10.21293 -10.21092 -10.20955 -10.20718
 Alpha  occ. eigenvalues --  -10.20057 -10.19996 -10.19993 -10.19704 -10.19645
 Alpha  occ. eigenvalues --  -10.19530 -10.19136 -10.18427 -10.17989 -10.17743
 Alpha  occ. eigenvalues --  -10.17461  -8.04209  -7.96102  -6.00632  -6.00507
 Alpha  occ. eigenvalues --   -5.99942  -5.92602  -5.92239  -5.91607  -1.00892
 Alpha  occ. eigenvalues --   -0.97754  -0.91873  -0.87636  -0.86564  -0.82051
 Alpha  occ. eigenvalues --   -0.79465  -0.78395  -0.78191  -0.77270  -0.75085
 Alpha  occ. eigenvalues --   -0.74384  -0.72486  -0.69537  -0.68626  -0.65885
 Alpha  occ. eigenvalues --   -0.64999  -0.62791  -0.62053  -0.61063  -0.60212
 Alpha  occ. eigenvalues --   -0.59507  -0.56312  -0.54384  -0.52939  -0.51673
 Alpha  occ. eigenvalues --   -0.49479  -0.49059  -0.48527  -0.47829  -0.47663
 Alpha  occ. eigenvalues --   -0.46311  -0.45846  -0.45107  -0.44438  -0.44316
 Alpha  occ. eigenvalues --   -0.44248  -0.43522  -0.43108  -0.42422  -0.42224
 Alpha  occ. eigenvalues --   -0.41602  -0.41069  -0.39941  -0.39535  -0.38578
 Alpha  occ. eigenvalues --   -0.38141  -0.38112  -0.37349  -0.37080  -0.37002
 Alpha  occ. eigenvalues --   -0.36542  -0.36169  -0.35731  -0.35180  -0.34077
 Alpha  occ. eigenvalues --   -0.33727  -0.32659  -0.32258  -0.31024  -0.30724
 Alpha  occ. eigenvalues --   -0.30261  -0.27834  -0.26929  -0.26545  -0.24165
 Alpha  occ. eigenvalues --   -0.23060  -0.20744  -0.19001
 Alpha virt. eigenvalues --   -0.03482  -0.02193  -0.01092   0.00958   0.02520
 Alpha virt. eigenvalues --    0.03454   0.04831   0.06141   0.08080   0.08763
 Alpha virt. eigenvalues --    0.09521   0.10103   0.10726   0.12134   0.12424

 Mulliken charges:
               1
     1  C   -0.318160
     2  N   -0.428112
     3  C   -0.144433
     4  C   -0.276013
     5  C   -0.268819
     6  C   -0.301245
     7  C    0.058191
     8  C   -0.286963
     9  C   -0.185404
    10  N   -0.604316
    11  C    0.347483
    12  C   -0.201991
    13  C   -0.166943
    14  C   -0.144079
    15  C   -0.184016
    16  C   -0.126916
    17  S    0.150517
    18  C   -0.136806
    19  C    0.332626
    20  C   -0.186698
    21  C   -0.165651
    22  C   -0.139652
    23  C   -0.192249
    24  S    0.762154
    25  C   -0.625961
    26  O   -0.705045
    27  H    0.154917
    28  H    0.130702
    29  H    0.156875
    30  H    0.145485
    31  H    0.142621
    32  H    0.140718
    33  H    0.143968
    34  H    0.141926
    35  H    0.141729
    36  H    0.148278
    37  H    0.149912
    38  H    0.118117
    39  H    0.153096
    40  H    0.154776
    41  H    0.175671
    42  H    0.180045
    43  H    0.162242
    44  H    0.170356
    45  H    0.170427
    46  H    0.159304
    47  H    0.155974
    48  H    0.153517
    49  H    0.162807
    50  H    0.212789
    51  H    0.202106
    52  H    0.210143
 Sum of Mulliken charges =  -0.00000

 Dipole moment (field-independent basis, Debye):
    X=             -6.3612    Y=              3.2102    Z=              4.0270  Tot=              8.1845
 Quadrupole moment (field-independent basis, Debye-Ang):
   XX=           -165.8083   YY=           -174.9755   ZZ=           -175.7578
   XY=             13.4266   XZ=              2.5040   YZ=            -19.4911

 Normal termination of Gaussian 16 at Tue Mar  1 08:38:04 2022.
