 Gaussian 16, Revision A.03,

 ----------------------------------------------------------------------
 #p b3lyp/6-31G(d) opt=(MaxStep=10,MaxCycles=1000) freq scf=(MaxCycle=2
 000,NoVarAcc,NoIncFock) scrf=(iefpcm,read,solvent=water)
 ----------------------------------------------------------------------

 -------------
 261.n.pdb.xyz
 -------------
 Symbolic Z-matrix:
 Charge =  0 Multiplicity = 1

 SCF Done:  E(RB3LYP) =  -649.307774842     A.U. after   13 cycles
 SCF Done:  E(RB3LYP) =  -649.312831715     A.U. after   11 cycles
 SCF Done:  E(RB3LYP) =  -649.313262125     A.U. after   12 cycles
 SCF Done:  E(RB3LYP) =  -649.315189307     A.U. after   12 cycles
 SCF Done:  E(RB3LYP) =  -649.315646204     A.U. after   11 cycles
 SCF Done:  E(RB3LYP) =  -649.315907706     A.U. after   11 cycles
 SCF Done:  E(RB3LYP) =  -649.315898402     A.U. after   12 cycles
 SCF Done:  E(RB3LYP) =  -649.316330808     A.U. after   11 cycles
 SCF Done:  E(RB3LYP) =  -649.317027578     A.U. after   14 cycles
 SCF Done:  E(RB3LYP) =  -649.316482494     A.U. after   14 cycles
 SCF Done:  E(RB3LYP) =  -649.318224870     A.U. after   10 cycles
 SCF Done:  E(RB3LYP) =  -649.318213660     A.U. after   10 cycles
 SCF Done:  E(RB3LYP) =  -649.318255446     A.U. after   11 cycles
 SCF Done:  E(RB3LYP) =  -649.318227787     A.U. after   11 cycles
 SCF Done:  E(RB3LYP) =  -649.318253053     A.U. after   10 cycles
 SCF Done:  E(RB3LYP) =  -649.318251668     A.U. after    8 cycles
 SCF Done:  E(RB3LYP) =  -649.318250986     A.U. after    7 cycles
 Optimization completed.
    -- Stationary point found.
 Normal termination of Gaussian 16 at Tue Mar  1 06:53:21 2022.

 --------------------------------------------------------------------
 #P Geom=AllCheck Guess=TCheck SCRF=Check GenChk RB3LYP/6-31G(d) Freq
 --------------------------------------------------------------------

 Structure from the checkpoint file:  "261.n.pdb.xyz.mst.wat.chk"
 -------------
 261.n.pdb.xyz
 -------------
 Charge =  0 Multiplicity = 1

 SCF Done:  E(RB3LYP) =  -649.318250986     A.U. after    1 cycles

  Exact polarizability: 331.891 -29.867 168.328 -21.887 -13.827 108.421
 Approx polarizability: 429.568 -61.399 199.944 -38.125 -15.147 123.417

                      1                      2                      3
                      A                      A                      A
 Frequencies --     25.3650                74.6137                83.3016
 Red. masses --      3.6210                 7.0609                 2.9394
 Frc consts  --      0.0014                 0.0232                 0.0120
 IR Inten    --      2.7158                12.9306                 0.5017

                      4                      5                      6
                      A                      A                      A
 Frequencies --    114.2364               165.4903               204.7982
 Red. masses --      4.7545                 1.9229                 1.7395
 Frc consts  --      0.0366                 0.0310                 0.0430
 IR Inten    --      6.6409                 3.5972                 2.1648

                      7                      8                      9
                      A                      A                      A
 Frequencies --    233.1681               244.8160               269.0455
 Red. masses --      1.4008                 1.0737                 2.6623
 Frc consts  --      0.0449                 0.0379                 0.1135
 IR Inten    --      1.7589                 0.5698                 1.1038

                     10                     11                     12
                      A                      A                      A
 Frequencies --    285.7376               290.7460               358.0527
 Red. masses --      4.2711                 2.1186                 3.3319
 Frc consts  --      0.2055                 0.1055                 0.2517
 IR Inten    --      2.5656                 1.1230                 2.0748

                     13                     14                     15
                      A                      A                      A
 Frequencies --    379.2874               382.4139               420.5213
 Red. masses --      2.8496                 4.2555                 2.8403
 Frc consts  --      0.2415                 0.3667                 0.2959
 IR Inten    --      3.5749                 9.0142                 9.5486

                     16                     17                     18
                      A                      A                      A
 Frequencies --    437.0895               446.8993               490.2867
 Red. masses --      3.1989                 3.6050                 4.6780
 Frc consts  --      0.3601                 0.4242                 0.6625
 IR Inten    --      5.3039                 3.1300                17.8257

                     19                     20                     21
                      A                      A                      A
 Frequencies --    537.1999               548.0390               632.1435
 Red. masses --      2.8494                 3.3137                 4.6769
 Frc consts  --      0.4845                 0.5864                 1.1011
 IR Inten    --      7.7502                38.2146                42.2709

                     22                     23                     24
                      A                      A                      A
 Frequencies --    637.3236               655.0089               685.2101
 Red. masses --      4.3336                 5.0647                 5.9599
 Frc consts  --      1.0371                 1.2803                 1.6487
 IR Inten    --     87.3580                23.2076                 1.7185

                     25                     26                     27
                      A                      A                      A
 Frequencies --    730.5654               819.9868               831.0762
 Red. masses --      4.5698                 2.8186                 1.2646
 Frc consts  --      1.4370                 1.1166                 0.5146
 IR Inten    --      6.2357                 1.1132                 0.8211

                     28                     29                     30
                      A                      A                      A
 Frequencies --    847.0071               860.2665               872.0383
 Red. masses --      1.6388                 4.1433                 1.8141
 Frc consts  --      0.6927                 1.8066                 0.8128
 IR Inten    --     31.4449                35.8689                64.0931

                     31                     32                     33
                      A                      A                      A
 Frequencies --    929.6229               940.9768               946.6954
 Red. masses --      3.5183                 1.6442                 1.6003
 Frc consts  --      1.7914                 0.8578                 0.8450
 IR Inten    --     13.9683                 0.4162                 0.8336

                     34                     35                     36
                      A                      A                      A
 Frequencies --    962.2965               968.7460               982.3159
 Red. masses --      1.3559                 1.2997                 1.2031
 Frc consts  --      0.7398                 0.7186                 0.6840
 IR Inten    --      3.1551                 0.5365                 0.2908

                     37                     38                     39
                      A                      A                      A
 Frequencies --   1049.2530              1053.0114              1065.3998
 Red. masses --      2.4276                 1.4518                 1.4053
 Frc consts  --      1.5747                 0.9485                 0.9398
 IR Inten    --     42.9098                 4.4153                 8.6621

                     40                     41                     42
                      A                      A                      A
 Frequencies --   1125.7169              1205.3727              1209.1948
 Red. masses --      1.4996                 1.3635                 1.8538
 Frc consts  --      1.1197                 1.1672                 1.5970
 IR Inten    --     28.3960               275.1627               117.1456

                     43                     44                     45
                      A                      A                      A
 Frequencies --   1216.7391              1261.0077              1268.0332
 Red. masses --      2.2689                 2.9462                 3.2177
 Frc consts  --      1.9790                 2.7602                 3.0483
 IR Inten    --     93.8042               194.0959               128.6618

                     46                     47                     48
                      A                      A                      A
 Frequencies --   1290.6199              1305.9029              1331.2774
 Red. masses --      5.6612                 5.0938                 5.2232
 Frc consts  --      5.5559                 5.1181                 5.4541
 IR Inten    --     46.9673               597.8040               329.9158

                     49                     50                     51
                      A                      A                      A
 Frequencies --   1342.4479              1406.3560              1414.4548
 Red. masses --      1.3427                 1.4274                 1.2412
 Frc consts  --      1.4257                 1.6633                 1.4630
 IR Inten    --      1.5950                16.6491                 6.8363

                     52                     53                     54
                      A                      A                      A
 Frequencies --   1424.5425              1451.0093              1490.8549
 Red. masses --      1.2498                 1.2278                 3.0258
 Frc consts  --      1.4944                 1.5231                 3.9625
 IR Inten    --      9.8120                 8.8919                10.9874

                     55                     56                     57
                      A                      A                      A
 Frequencies --   1494.8374              1504.4509              1506.6958
 Red. masses --      1.0687                 1.0619                 1.0561
 Frc consts  --      1.4070                 1.4162                 1.4126
 IR Inten    --      1.7047                 1.9350                 3.9778

                     58                     59                     60
                      A                      A                      A
 Frequencies --   1516.3083              1522.1555              1526.8304
 Red. masses --      1.1145                 2.1304                 1.0908
 Frc consts  --      1.5098                 2.9083                 1.4983
 IR Inten    --      0.6799               143.5672                17.6310

                     61                     62                     63
                      A                      A                      A
 Frequencies --   1535.5930              1574.0718              1605.2866
 Red. masses --      1.0602                 6.2412                 6.9622
 Frc consts  --      1.4730                 9.1111                10.5707
 IR Inten    --     20.3048                11.5966               253.0127

                     64                     65                     66
                      A                      A                      A
 Frequencies --   1680.3235              3081.8558              3083.8301
 Red. masses --      5.6559                 1.0374                 1.0370
 Frc consts  --      9.4089                 5.8052                 5.8103
 IR Inten    --     39.4186                29.2479                22.4977

                     67                     68                     69
                      A                      A                      A
 Frequencies --   3091.3685              3144.7558              3151.4144
 Red. masses --      1.0408                 1.1032                 1.1024
 Frc consts  --      5.8604                 6.4278                 6.4507
 IR Inten    --     25.6787                 1.5172                47.1770

                     70                     71                     72
                      A                      A                      A
 Frequencies --   3155.4684              3165.2804              3199.8053
 Red. masses --      1.1019                 1.1033                 1.0999
 Frc consts  --      6.4641                 6.5126                 6.6351
 IR Inten    --     65.4901                28.2457                16.5743

                     73                     74                     75
                      A                      A                      A
 Frequencies --   3210.9060              3216.9714              3239.8279
 Red. masses --      1.0955                 1.0867                 1.0912
 Frc consts  --      6.6546                 6.6260                 6.7481
 IR Inten    --     22.7133                16.7934                 5.4452

                     76                     77                     78
                      A                      A                      A
 Frequencies --   3262.8196              3285.7592              3291.7867
 Red. masses --      1.0894                 1.0953                 1.0947
 Frc consts  --      6.8331                 6.9673                 6.9892
 IR Inten    --      2.7517                 1.5227                 2.6380

 - Thermochemistry -
 -------------------
 Temperature   298.150 Kelvin.  Pressure   1.00000 Atm.
 Atom     1 has atomic number  6 and mass  12.00000

 Molecular mass:   194.10553 amu.
 Principal axes and moments of inertia in atomic units:
                           1         2         3
     Eigenvalues --  1104.657925041.118775506.90432
           X            0.99976   0.02119   0.00479
           Y           -0.02101   0.99922  -0.03332
           Z           -0.00549   0.03321   0.99943
 This molecule is an asymmetric top.
 Rotational symmetry number  1.
 Warning -- assumption of classical behavior for rotation
           may cause significant error
 Rotational temperatures (Kelvin)      0.07841     0.01718     0.01573
 Rotational constants (GHZ):           1.63376     0.35800     0.32772
 Zero-point vibrational energy     611602.7 (Joules/Mol)
                                  146.17655 (Kcal/Mol)
 Warning -- explicit consideration of  20 degrees of freedom as
           vibrations may cause significant error
 Vibrational temperatures:     36.49   107.35   119.85   164.36   238.10
          (Kelvin)            294.66   335.48   352.24   387.10   411.11
                              418.32   515.16   545.71   550.21   605.04
                              628.87   642.99   705.41   772.91   788.51
                              909.51   916.97   942.41   985.86  1051.12
                             1179.78  1195.73  1218.65  1237.73  1254.67
                             1337.52  1353.86  1362.08  1384.53  1393.81
                             1413.33  1509.64  1515.05  1532.87  1619.66
                             1734.26  1739.76  1750.62  1814.31  1824.42
                             1856.91  1878.90  1915.41  1931.48  2023.43
                             2035.08  2049.60  2087.68  2145.01  2150.74
                             2164.57  2167.80  2181.63  2190.04  2196.77
                             2209.38  2264.74  2309.65  2417.61  4434.10
                             4436.94  4447.79  4524.60  4534.18  4540.02
                             4554.13  4603.81  4619.78  4628.50  4661.39
                             4694.47  4727.47  4736.15

 Zero-point correction=                           0.232947 (Hartree/Particle)
 Thermal correction to Energy=                    0.246423
 Thermal correction to Enthalpy=                  0.247368
 Thermal correction to Gibbs Free Energy=         0.192718
 Sum of electronic and zero-point Energies=           -649.085304
 Sum of electronic and thermal Energies=              -649.071828
 Sum of electronic and thermal Enthalpies=            -649.070883
 Sum of electronic and thermal Free Energies=         -649.125533

                     E (Thermal)             CV                S
                      KCal/Mol        Cal/Mol-Kelvin    Cal/Mol-Kelvin
 Total                  154.633             52.313            115.020
 Electronic               0.000              0.000              0.000
 Translational            0.889              2.981             41.695
 Rotational               0.889              2.981             31.795
 Vibrational            152.856             46.351             41.530
 Vibration     1          0.593              1.985              6.162
 Vibration     2          0.599              1.966              4.028
 Vibration     3          0.600              1.961              3.812
 Vibration     4          0.607              1.938              3.196
 Vibration     5          0.624              1.885              2.486
 Vibration     6          0.640              1.833              2.090
 Vibration     7          0.654              1.790              1.854
 Vibration     8          0.660              1.771              1.768
 Vibration     9          0.673              1.730              1.602
 Vibration    10          0.684              1.700              1.499
 Vibration    11          0.687              1.691              1.470
 Vibration    12          0.733              1.559              1.131
 Vibration    13          0.749              1.514              1.042
 Vibration    14          0.752              1.508              1.030
 Vibration    15          0.783              1.426              0.890
 Vibration    16          0.797              1.389              0.836
 Vibration    17          0.806              1.368              0.805
 Vibration    18          0.846              1.272              0.683
 Vibration    19          0.892              1.168              0.571
 Vibration    20          0.903              1.144              0.548

                           ! Non-Optimized Parameters !
 Normal termination of Gaussian 16 at Tue Mar  1 07:12:55 2022.

 ------------------------------------------
 #p b3lyp/6-31G(d) geom=allcheck guess=read
 ------------------------------------------

 Structure from the checkpoint file:  "261.n.pdb.xyz.mst.wat.chk"
 -------------
 261.n.pdb.xyz
 -------------
 Charge =  0 Multiplicity = 1

 SCF Done:  E(RB3LYP) =  -649.301140388     A.U. after   13 cycles
 Normal termination of Gaussian 16 at Tue Mar  1 07:14:48 2022.
 Gaussian 16:  ES64L-G16RevA.03 25-Dec-2016

 ----------------------------------------------------------------------
 #p b3lyp/6-31G(d) scrf=(iefpcm,read,solvent=water) geom=allcheck guess
 =read
 ----------------------------------------------------------------------

 Structure from the checkpoint file:  "261.n.pdb.xyz.mst.wat.chk"
 -------------
 261.n.pdb.xyz
 -------------
 Charge =  0 Multiplicity = 1

                         Standard orientation:
 ---------------------------------------------------------------------
 Center     Atomic      Atomic             Coordinates (Angstroms)
 Number     Number       Type             X           Y           Z
 ---------------------------------------------------------------------
      1          6           0       -2.535748   -1.435574    0.996683
      2          6           0       -2.314164   -0.538616   -0.228823
      3          6           0       -1.358134   -1.162264   -1.250597
      4          6           0       -3.654266   -0.277156   -0.936321
      5          7           0       -1.836555    0.827234    0.292257
      6          8           0       -2.795393    1.587257    0.696900
      7          6           0       -0.605991    1.299968    0.315796
      8          6           0        0.699802    0.671622    0.170114
      9          6           0        1.076728   -0.584506    0.680629
     10          6           0        2.374404   -1.038428    0.573568
     11          7           0        3.349277   -0.286682   -0.021902
     12          8           0        4.555593   -0.730541   -0.119561
     13          6           0        3.020415    0.953195   -0.496237
     14          6           0        1.734636    1.438707   -0.400006
     15          1           0       -3.013216   -2.367161    0.682335
     16          1           0       -1.597952   -1.688682    1.498595
     17          1           0       -3.189491   -0.934338    1.712580
     18          1           0       -0.441950   -1.550919   -0.814834
     19          1           0       -1.880204   -2.000137   -1.719566
     20          1           0       -1.097143   -0.449249   -2.036993
     21          1           0       -4.393335    0.134740   -0.253205
     22          1           0       -3.525747    0.413178   -1.774201
     23          1           0       -4.017011   -1.229398   -1.330484
     24          1           0       -0.600181    2.357733    0.556097
     25          1           0        0.366960   -1.217683    1.194451
     26          1           0        2.715717   -1.990658    0.951863
     27          1           0        3.844100    1.493325   -0.938517
     28          1           0        1.532708    2.429980   -0.788168
 ---------------------------------------------------------------------

 SCF Done:  E(RB3LYP) =  -649.317323838     A.U. after   12 cycles

 The electronic state is 1-A.
 Alpha  occ. eigenvalues --  -19.12530 -19.12504 -14.48511 -14.47306 -10.24985
 Alpha  occ. eigenvalues --  -10.24163 -10.24094 -10.23674 -10.23127 -10.22048
 Alpha  occ. eigenvalues --  -10.21883 -10.18451 -10.18164 -10.17669  -1.10647
 Alpha  occ. eigenvalues --   -1.09744  -0.90842  -0.86345  -0.82643  -0.79429
 Alpha  occ. eigenvalues --   -0.79095  -0.70110  -0.69177  -0.67932  -0.66869
 Alpha  occ. eigenvalues --   -0.63474  -0.56824  -0.53225  -0.51345  -0.49847
 Alpha  occ. eigenvalues --   -0.48312  -0.48131  -0.47335  -0.47116  -0.45420
 Alpha  occ. eigenvalues --   -0.44443  -0.43900  -0.43123  -0.40843  -0.39438
 Alpha  occ. eigenvalues --   -0.39064  -0.38065  -0.37636  -0.37228  -0.35067
 Alpha  occ. eigenvalues --   -0.34207  -0.33680  -0.28493  -0.25870  -0.25290
 Alpha  occ. eigenvalues --   -0.24555  -0.20485
 Alpha virt. eigenvalues --   -0.07073  -0.02832  -0.00022   0.07712   0.09591
 Alpha virt. eigenvalues --    0.10141   0.11285   0.12216   0.14403   0.15206
 Alpha virt. eigenvalues --    0.15512   0.15947   0.16966   0.17638   0.18188

 Mulliken charges:
               1
     1  C   -0.457012
     2  C    0.163602
     3  C   -0.482088
     4  C   -0.438506
     5  N    0.043127
     6  O   -0.546473
     7  C   -0.031855
     8  C    0.166139
     9  C   -0.234373
    10  C    0.085008
    11  N   -0.006475
    12  O   -0.598228
    13  C    0.081140
    14  C   -0.222606
    15  H    0.171330
    16  H    0.169872
    17  H    0.170222
    18  H    0.170217
    19  H    0.171796
    20  H    0.168415
    21  H    0.170720
    22  H    0.157355
    23  H    0.157985
    24  H    0.187259
    25  H    0.193304
    26  H    0.200972
    27  H    0.199993
    28  H    0.189160
 Sum of Mulliken charges =  -0.00000

 Dipole moment (field-independent basis, Debye):
    X=             -2.2839    Y=             -1.4783    Z=             -1.1333  Tot=              2.9472
 Quadrupole moment (field-independent basis, Debye-Ang):
   XX=           -118.5767   YY=            -78.4221   ZZ=            -81.7366
   XY=             20.2066   XZ=              4.8073   YZ=             -5.9527

 Normal termination of Gaussian 16 at Tue Mar  1 07:16:51 2022.
