 Gaussian 16, Revision A.03,

 ----------------------------------------------------------------------
 #p b3lyp/6-31G(d) opt=(MaxStep=10,MaxCycles=1000) freq scf=(MaxCycle=2
 000,NoVarAcc,NoIncFock) scrf=(iefpcm,read,solvent=water)
 ----------------------------------------------------------------------

 -------------
 262.n.pdb.xyz
 -------------
 Symbolic Z-matrix:
 Charge =  0 Multiplicity = 1

 SCF Done:  E(RB3LYP) =  -170.838916612     A.U. after   11 cycles
 SCF Done:  E(RB3LYP) =  -170.839070036     A.U. after   10 cycles
 SCF Done:  E(RB3LYP) =  -170.839084077     A.U. after    9 cycles
 SCF Done:  E(RB3LYP) =  -170.839088352     A.U. after    8 cycles
 Optimization completed.
    -- Stationary point found.
 Normal termination of Gaussian 16 at Tue Mar  1 15:28:29 2022.

 --------------------------------------------------------------------
 #P Geom=AllCheck Guess=TCheck SCRF=Check GenChk RB3LYP/6-31G(d) Freq
 --------------------------------------------------------------------

 Structure from the checkpoint file:  "262.n.pdb.xyz.mst.wat.chk"
 -------------
 262.n.pdb.xyz
 -------------
 Charge =  0 Multiplicity = 1

 SCF Done:  E(RB3LYP) =  -170.839088352     A.U. after    1 cycles

  Exact polarizability:  75.553  -3.457  36.606  -0.000   0.000  17.247
 Approx polarizability:  97.747  -3.622  42.154  -0.001   0.000  19.896

                      1                      2                      3
                      A                      A                      A
 Frequencies --    242.6500               368.4006               584.2961
 Red. masses --      4.0525                 2.4494                 4.1755
 Frc consts  --      0.1406                 0.1959                 0.8399
 IR Inten    --      6.4506                 1.5889                 0.6030

                      4                      5                      6
                      A                      A                      A
 Frequencies --    714.3654               892.7041              1006.1149
 Red. masses --      2.4138                 2.7176                 1.1849
 Frc consts  --      0.7258                 1.2760                 0.7067
 IR Inten    --     22.8416                 0.4806                 2.1290

                      7                      8                      9
                      A                      A                      A
 Frequencies --   1011.2993              1114.7363              1320.4862
 Red. masses --      1.2049                 1.6499                 1.2913
 Frc consts  --      0.7261                 1.2080                 1.3266
 IR Inten    --     63.4324                 4.7232                 0.8861

                     10                     11                     12
                      A                      A                      A
 Frequencies --   1458.8968              1691.7373              2341.5415
 Red. masses --      1.2199                 4.1059                12.6154
 Frc consts  --      1.5297                 6.9235                40.7524
 IR Inten    --     14.2788                 2.9403                81.6641

                     13                     14                     15
                      A                      A                      A
 Frequencies --   3202.8331              3218.1352              3295.4892
 Red. masses --      1.0582                 1.0929                 1.1188
 Frc consts  --      6.3956                 6.6686                 7.1589
 IR Inten    --      2.6402                 0.7530                 2.3925

 - Thermochemistry -
 -------------------
 Temperature   298.150 Kelvin.  Pressure   1.00000 Atm.
 Atom     1 has atomic number  6 and mass  12.00000

 Molecular mass:    53.02655 amu.
 Principal axes and moments of inertia in atomic units:
                           1         2         3
     Eigenvalues --    36.05036 364.04675 400.09712
           X            0.99995  -0.00957   0.00000
           Y            0.00957   0.99995   0.00000
           Z           -0.00000  -0.00000   1.00000
 This molecule is an asymmetric top.
 Rotational symmetry number  1.
 Rotational temperatures (Kelvin)      2.40258     0.23792     0.21648
 Rotational constants (GHZ):          50.06166     4.95744     4.51076
 Zero-point vibrational energy     134362.7 (Joules/Mol)
                                   32.11345 (Kcal/Mol)
 Warning -- explicit consideration of   3 degrees of freedom as
           vibrations may cause significant error
 Vibrational temperatures:    349.12   530.05   840.67  1027.81  1284.40
          (Kelvin)           1447.57  1455.03  1603.86  1899.89  2099.03
                             2434.03  3368.96  4608.16  4630.18  4741.47

 Zero-point correction=                           0.051176 (Hartree/Particle)
 Thermal correction to Energy=                    0.055291
 Thermal correction to Enthalpy=                  0.056236
 Thermal correction to Gibbs Free Energy=         0.025319
 Sum of electronic and zero-point Energies=           -170.787912
 Sum of electronic and thermal Energies=              -170.783797
 Sum of electronic and thermal Enthalpies=            -170.782853
 Sum of electronic and thermal Free Energies=         -170.813769

                     E (Thermal)             CV                S
                      KCal/Mol        Cal/Mol-Kelvin    Cal/Mol-Kelvin
 Total                   34.696             12.920             65.069
 Electronic               0.000              0.000              0.000
 Translational            0.889              2.981             37.827
 Rotational               0.889              2.981             23.178
 Vibrational             32.918              6.959              4.064
 Vibration     1          0.659              1.775              1.783
 Vibration     2          0.741              1.537              1.086
 Vibration     3          0.941              1.065              0.477

 Optimization completed.
    -- Stationary point found.
 Normal termination of Gaussian 16 at Tue Mar  1 15:28:57 2022.

 ------------------------------------------
 #p b3lyp/6-31G(d) geom=allcheck guess=read
 ------------------------------------------

 Structure from the checkpoint file:  "262.n.pdb.xyz.mst.wat.chk"
 -------------
 262.n.pdb.xyz
 -------------
 Charge =  0 Multiplicity = 1

 SCF Done:  E(RB3LYP) =  -170.831515705     A.U. after   10 cycles
 Normal termination of Gaussian 16 at Tue Mar  1 15:29:01 2022.
 Gaussian 16:  ES64L-G16RevA.03 25-Dec-2016

 ----------------------------------------------------------------------
 #p b3lyp/6-31G(d) scrf=(iefpcm,read,solvent=water) geom=allcheck guess
 =read
 ----------------------------------------------------------------------

 Structure from the checkpoint file:  "262.n.pdb.xyz.mst.wat.chk"
 -------------
 262.n.pdb.xyz
 -------------
 Charge =  0 Multiplicity = 1

                         Standard orientation:
 ---------------------------------------------------------------------
 Center     Atomic      Atomic             Coordinates (Angstroms)
 Number     Number       Type             X           Y           Z
 ---------------------------------------------------------------------
      1          6           0        1.603006   -0.361566   -0.000007
      2          6           0        0.587361    0.510271   -0.000005
      3          6           0       -0.778915    0.091425   -0.000009
      4          7           0       -1.898797   -0.225977    0.000008
      5          1           0        2.627221   -0.008343    0.000045
      6          1           0        1.442353   -1.433336    0.000006
      7          1           0        0.753292    1.582735    0.000017
 ---------------------------------------------------------------------

 SCF Done:  E(RB3LYP) =  -170.839009405     A.U. after   10 cycles

 The electronic state is 1-A.
 Alpha  occ. eigenvalues --  -14.34705 -10.24592 -10.23484 -10.22056  -0.91667
 Alpha  occ. eigenvalues --   -0.80862  -0.65049  -0.52840  -0.47040  -0.40840
 Alpha  occ. eigenvalues --   -0.38222  -0.37789  -0.34360  -0.28603
 Alpha virt. eigenvalues --   -0.05102   0.02194   0.10953   0.13235   0.13407
 Alpha virt. eigenvalues --    0.16099   0.25371   0.32567   0.33340   0.50680
 Alpha virt. eigenvalues --    0.52290   0.55228   0.58768   0.60106   0.64634

 Mulliken charges:
               1
     1  C   -0.286270
     2  C   -0.121010
     3  C    0.343979
     4  N   -0.548189
     5  H    0.197664
     6  H    0.196143
     7  H    0.217682
 Sum of Mulliken charges =  -0.00000

 Dipole moment (field-independent basis, Debye):
    X=              5.0519    Y=              0.8943    Z=             -0.0001  Tot=              5.1304
 Quadrupole moment (field-independent basis, Debye-Ang):
   XX=            -27.3962   YY=            -20.3734   ZZ=            -24.1549
   XY=             -1.5364   XZ=              0.0002   YZ=              0.0000

 Normal termination of Gaussian 16 at Tue Mar  1 15:29:08 2022.
