 Gaussian 16, Revision A.03,

 ----------------------------------------------------------------------
 #p b3lyp/6-31G(d) opt=(MaxStep=10,MaxCycles=1000) freq scf=(MaxCycle=2
 000,NoVarAcc,NoIncFock) scrf=(iefpcm,read,solvent=water)
 ----------------------------------------------------------------------

 -------------
 264.n.pdb.xyz
 -------------
 Symbolic Z-matrix:
 Charge =  0 Multiplicity = 1

 SCF Done:  E(RB3LYP) =  -884.134544375     A.U. after   13 cycles
 SCF Done:  E(RB3LYP) =  -884.137949233     A.U. after   10 cycles
 SCF Done:  E(RB3LYP) =  -884.138586271     A.U. after   11 cycles
 SCF Done:  E(RB3LYP) =  -884.139223415     A.U. after   10 cycles
 SCF Done:  E(RB3LYP) =  -884.139264937     A.U. after   10 cycles
 SCF Done:  E(RB3LYP) =  -884.139223317     A.U. after    8 cycles
 SCF Done:  E(RB3LYP) =  -884.139151085     A.U. after    9 cycles
 SCF Done:  E(RB3LYP) =  -884.139262164     A.U. after    9 cycles
 SCF Done:  E(RB3LYP) =  -884.139282425     A.U. after    9 cycles
 SCF Done:  E(RB3LYP) =  -884.139239499     A.U. after    9 cycles
 SCF Done:  E(RB3LYP) =  -884.139284244     A.U. after    8 cycles
 SCF Done:  E(RB3LYP) =  -884.139286080     A.U. after    7 cycles
 SCF Done:  E(RB3LYP) =  -884.139252489     A.U. after    9 cycles
 SCF Done:  E(RB3LYP) =  -884.139253899     A.U. after    6 cycles
 SCF Done:  E(RB3LYP) =  -884.139284116     A.U. after    9 cycles
 SCF Done:  E(RB3LYP) =  -884.139286033     A.U. after    7 cycles
 SCF Done:  E(RB3LYP) =  -884.139252374     A.U. after    9 cycles
 Optimization completed.
    -- Stationary point found.
 Normal termination of Gaussian 16 at Tue Mar  1 21:49:46 2022.

 --------------------------------------------------------------------
 #P Geom=AllCheck Guess=TCheck SCRF=Check GenChk RB3LYP/6-31G(d) Freq
 --------------------------------------------------------------------

 Structure from the checkpoint file:  "264.n.pdb.xyz.mst.wat.chk"
 -------------
 264.n.pdb.xyz
 -------------
 Charge =  0 Multiplicity = 1

 SCF Done:  E(RB3LYP) =  -884.139252374     A.U. after    1 cycles

  Exact polarizability: 294.365   0.096 301.793  18.912  -1.577 163.620
 Approx polarizability: 308.668  -2.091 326.446  23.505  -2.567 182.291

                      1                      2                      3
                      A                      A                      A
 Frequencies --      9.0717                19.7214                37.9394
 Red. masses --      4.4800                 4.5305                 3.7385
 Frc consts  --      0.0002                 0.0010                 0.0032
 IR Inten    --      1.2751                 0.7587                 0.3078

                      4                      5                      6
                      A                      A                      A
 Frequencies --     60.0232                68.2475                75.9769
 Red. masses --      1.7501                 2.9966                 3.3788
 Frc consts  --      0.0037                 0.0082                 0.0115
 IR Inten    --      0.1053                 0.3425                 0.3912

                      7                      8                      9
                      A                      A                      A
 Frequencies --     81.7042                90.4129               103.1223
 Red. masses --      2.3354                 2.5231                 5.5814
 Frc consts  --      0.0092                 0.0122                 0.0350
 IR Inten    --      0.1974                 0.0541                 0.0847

                     10                     11                     12
                      A                      A                      A
 Frequencies --    136.5657               173.2851               179.0052
 Red. masses --      2.3099                 4.2856                 3.1852
 Frc consts  --      0.0254                 0.0758                 0.0601
 IR Inten    --      0.0427                 0.2769                 0.8417

                     13                     14                     15
                      A                      A                      A
 Frequencies --    206.1460               218.0788               237.2732
 Red. masses --      3.4269                 2.9623                 1.1704
 Frc consts  --      0.0858                 0.0830                 0.0388
 IR Inten    --      0.0755                 0.5662                 0.1921

                     16                     17                     18
                      A                      A                      A
 Frequencies --    244.6982               249.6839               275.8671
 Red. masses --      2.0779                 1.3289                 2.8083
 Frc consts  --      0.0733                 0.0488                 0.1259
 IR Inten    --      0.7336                 0.1029                 5.6671

                     19                     20                     21
                      A                      A                      A
 Frequencies --    282.7713               312.7161               319.0775
 Red. masses --      2.8611                 1.5149                 2.2713
 Frc consts  --      0.1348                 0.0873                 0.1362
 IR Inten    --     48.6696               115.4761                42.6065

                     22                     23                     24
                      A                      A                      A
 Frequencies --    354.0196               385.5413               426.0360
 Red. masses --      2.7378                 3.7972                 2.5249
 Frc consts  --      0.2022                 0.3325                 0.2700
 IR Inten    --      0.9867                16.9313                46.7997

                     25                     26                     27
                      A                      A                      A
 Frequencies --    436.3196               440.9015               464.7990
 Red. masses --      3.1528                 1.5206                 6.4821
 Frc consts  --      0.3536                 0.1742                 0.8251
 IR Inten    --     45.0295                79.2058                10.2101

                     28                     29                     30
                      A                      A                      A
 Frequencies --    500.1612               526.7177               528.2984
 Red. masses --      2.5088                 2.9605                 3.7305
 Frc consts  --      0.3698                 0.4839                 0.6134
 IR Inten    --      2.4136                38.4169                13.9942

                     31                     32                     33
                      A                      A                      A
 Frequencies --    581.8292               591.2300               592.2366
 Red. masses --      3.5620                 3.6841                 4.5221
 Frc consts  --      0.7105                 0.7588                 0.9345
 IR Inten    --     27.8007                 0.2974                12.5831

                     34                     35                     36
                      A                      A                      A
 Frequencies --    594.4592               649.0630               731.2804
 Red. masses --      4.9558                 4.6434                 6.2076
 Frc consts  --      1.0318                 1.1525                 1.9559
 IR Inten    --      4.0438                 2.7862                 0.5654

                     37                     38                     39
                      A                      A                      A
 Frequencies --    752.4934               763.1330               765.5446
 Red. masses --      1.1273                 1.0925                 3.9130
 Frc consts  --      0.3761                 0.3749                 1.3512
 IR Inten    --      6.5926                 2.9331                32.9337

                     40                     41                     42
                      A                      A                      A
 Frequencies --    778.9731               795.4591               812.6116
 Red. masses --      1.3635                 2.4991                 1.8323
 Frc consts  --      0.4875                 0.9317                 0.7129
 IR Inten    --      2.5203                17.7936                43.0937

                     43                     44                     45
                      A                      A                      A
 Frequencies --    854.3943               876.8935               882.6333
 Red. masses --      2.7186                 3.9534                 1.2277
 Frc consts  --      1.1693                 1.7911                 0.5635
 IR Inten    --     25.9318                 6.2074                 0.7224

                     46                     47                     48
                      A                      A                      A
 Frequencies --    900.1306               910.9967               919.6910
 Red. masses --      1.2638                 1.6082                 1.2996
 Frc consts  --      0.6033                 0.7864                 0.6476
 IR Inten    --      4.1282                 1.6142                 1.1617

                     49                     50                     51
                      A                      A                      A
 Frequencies --    935.5944               964.0008               998.7669
 Red. masses --      2.2344                 2.4970                 2.4367
 Frc consts  --      1.1523                 1.3672                 1.4321
 IR Inten    --      1.5698                 8.7937                43.3835

                     52                     53                     54
                      A                      A                      A
 Frequencies --   1005.0022              1015.0011              1045.5277
 Red. masses --      4.4370                 4.0876                 2.7541
 Frc consts  --      2.6404                 2.4812                 1.7738
 IR Inten    --     27.0436                65.7525                 3.4601

                     55                     56                     57
                      A                      A                      A
 Frequencies --   1059.3860              1079.6405              1095.5661
 Red. masses --      2.6409                 2.2779                 2.3409
 Frc consts  --      1.7463                 1.5644                 1.6554
 IR Inten    --      0.1313                 3.2876               138.4300

                     58                     59                     60
                      A                      A                      A
 Frequencies --   1117.0656              1133.5456              1150.2842
 Red. masses --      2.0403                 2.0043                 2.0230
 Frc consts  --      1.5001                 1.5174                 1.5771
 IR Inten    --     49.3077                 1.1057                35.0497

                     61                     62                     63
                      A                      A                      A
 Frequencies --   1162.0766              1172.3095              1186.1917
 Red. masses --      1.4906                 1.1764                 1.4055
 Frc consts  --      1.1860                 0.9525                 1.1652
 IR Inten    --     39.0383                 2.5999                49.4861

                     64                     65                     66
                      A                      A                      A
 Frequencies --   1194.5941              1238.2598              1250.3594
 Red. masses --      1.9412                 2.0977                 1.5563
 Frc consts  --      1.6322                 1.8950                 1.4336
 IR Inten    --     48.0546                42.4729                68.0143

                     67                     68                     69
                      A                      A                      A
 Frequencies --   1258.8227              1261.5366              1283.6491
 Red. masses --      2.2579                 1.6467                 1.3804
 Frc consts  --      2.1081                 1.5441                 1.3401
 IR Inten    --    169.5903                 8.3658                11.0797

                     70                     71                     72
                      A                      A                      A
 Frequencies --   1295.3992              1306.9857              1310.7214
 Red. masses --      1.5920                 1.8411                 1.5838
 Frc consts  --      1.5740                 1.8530                 1.6031
 IR Inten    --     11.4240               156.5278                89.9757

                     73                     74                     75
                      A                      A                      A
 Frequencies --   1324.8852              1327.9949              1334.8381
 Red. masses --      2.6396                 2.4725                 1.2358
 Frc consts  --      2.7299                 2.5691                 1.2973
 IR Inten    --    214.7641                67.6292                12.1169

                     76                     77                     78
                      A                      A                      A
 Frequencies --   1339.4513              1350.1563              1371.7853
 Red. masses --      1.1624                 1.2757                 1.3223
 Frc consts  --      1.2287                 1.3701                 1.4660
 IR Inten    --      0.6122                12.8882                14.7805

                     79                     80                     81
                      A                      A                      A
 Frequencies --   1377.8951              1386.1338              1401.0585
 Red. masses --      3.1247                 1.2864                 1.3089
 Frc consts  --      3.4953                 1.4562                 1.5138
 IR Inten    --     42.7934                12.9206                52.1300

                     82                     83                     84
                      A                      A                      A
 Frequencies --   1425.1299              1430.3010              1431.1195
 Red. masses --      1.3917                 2.4499                 1.3174
 Frc consts  --      1.6654                 2.9529                 1.5897
 IR Inten    --      0.6864               157.0920                31.2459

                     85                     86                     87
                      A                      A                      A
 Frequencies --   1432.5814              1446.9569              1449.3261
 Red. masses --      1.2483                 1.3860                 1.1053
 Frc consts  --      1.5094                 1.7097                 1.3680
 IR Inten    --      4.9285                10.7697                11.6496

                     88                     89                     90
                      A                      A                      A
 Frequencies --   1494.5812              1497.2865              1503.4447
 Red. masses --      1.1409                 3.0158                 1.0642
 Frc consts  --      1.5015                 3.9834                 1.4172
 IR Inten    --      5.3137                13.7755                 1.7555

                     91                     92                     93
                      A                      A                      A
 Frequencies --   1507.0649              1514.2952              1516.7450
 Red. masses --      1.0797                 1.0888                 1.0422
 Frc consts  --      1.4449                 1.4710                 1.4126
 IR Inten    --      5.6901                 5.1511                 6.6186

                     94                     95                     96
                      A                      A                      A
 Frequencies --   1517.6288              1519.6300              1525.5007
 Red. masses --      1.0689                 1.0418                 1.0783
 Frc consts  --      1.4505                 1.4174                 1.4785
 IR Inten    --      0.9761                 6.6299                 3.5285

                     97                     98                     99
                      A                      A                      A
 Frequencies --   1535.7990              1538.9955              1554.3614
 Red. masses --      1.0895                 1.1028                 3.3766
 Frc consts  --      1.5140                 1.5390                 4.8065
 IR Inten    --      1.6842                16.6857               147.0339

                    100                    101                    102
                      A                      A                      A
 Frequencies --   1651.2757              1692.7948              1773.4446
 Red. masses --      8.0552                 6.6669                10.9737
 Frc consts  --     12.9409                11.2560                20.3347
 IR Inten    --     48.1623               111.3916              1078.9113

                    103                    104                    105
                      A                      A                      A
 Frequencies --   2949.3456              3001.9767              3047.9359
 Red. masses --      1.0713                 1.0660                 1.0598
 Frc consts  --      5.4905                 5.6602                 5.8009
 IR Inten    --    133.4868                89.6658                26.2191

                    106                    107                    108
                      A                      A                      A
 Frequencies --   3050.2545              3052.6044              3053.9558
 Red. masses --      1.0593                 1.0369                 1.0370
 Frc consts  --      5.8070                 5.6931                 5.6983
 IR Inten    --     53.5471                48.7023                40.4050

                    109                    110                    111
                      A                      A                      A
 Frequencies --   3055.0027              3062.1275              3065.4790
 Red. masses --      1.0632                 1.0652                 1.0857
 Frc consts  --      5.8465                 5.8848                 6.0111
 IR Inten    --     68.1010                81.8266                36.4668

                    112                    113                    114
                      A                      A                      A
 Frequencies --   3069.1279              3074.3514              3086.7162
 Red. masses --      1.0890                 1.0613                 1.1039
 Frc consts  --      6.0439                 5.9100                 6.1966
 IR Inten    --     24.0537                14.4724                 3.1202

                    115                    116                    117
                      A                      A                      A
 Frequencies --   3088.6208              3094.8859              3109.0034
 Red. masses --      1.1019                 1.1006                 1.1032
 Frc consts  --      6.1934                 6.2112                 6.2825
 IR Inten    --     67.5173                23.0096                19.0918

                    118                    119                    120
                      A                      A                      A
 Frequencies --   3110.2418              3116.2794              3117.8461
 Red. masses --      1.1056                 1.1034                 1.1032
 Frc consts  --      6.3014                 6.3134                 6.3187
 IR Inten    --     87.3001               111.7406               145.0980

                    121                    122                    123
                      A                      A                      A
 Frequencies --   3124.0553              3125.5827              3192.6876
 Red. masses --      1.1016                 1.1018                 1.0873
 Frc consts  --      6.3342                 6.3417                 6.5300
 IR Inten    --     63.5481                70.8398                22.1225

                    124                    125                    126
                      A                      A                      A
 Frequencies --   3208.4989              3636.1451              3711.2827
 Red. masses --      1.0942                 1.0802                 1.0665
 Frc consts  --      6.6367                 8.4146                 8.6550
 IR Inten    --     33.2113               158.7063               231.2390

 - Thermochemistry -
 -------------------
 Temperature   298.150 Kelvin.  Pressure   1.00000 Atm.
 Atom     1 has atomic number  6 and mass  12.00000

 Molecular mass:   276.18378 amu.
 Principal axes and moments of inertia in atomic units:
                           1         2         3
     Eigenvalues --  3546.64492********************
           X            0.99998   0.00667   0.00114
           Y           -0.00668   0.99997   0.00259
           Z           -0.00112  -0.00259   1.00000
 This molecule is an asymmetric top.
 Rotational symmetry number  1.
 Warning -- assumption of classical behavior for rotation
           may cause significant error
 Rotational temperatures (Kelvin)      0.02442     0.00721     0.00569
 Rotational constants (GHZ):           0.50886     0.15018     0.11865
 Zero-point vibrational energy    1005425.3 (Joules/Mol)
                                  240.30242 (Kcal/Mol)
 Warning -- explicit consideration of  34 degrees of freedom as
           vibrations may cause significant error
 Vibrational temperatures:     13.05    28.37    54.59    86.36    98.19
          (Kelvin)            109.31   117.55   130.08   148.37   196.49
                              249.32   257.55   296.60   313.77   341.38
                              352.07   359.24   396.91   406.84   449.93
                              459.08   509.36   554.71   612.97   627.77
                              634.36   668.74   719.62   757.83   760.10
                              837.12   850.65   852.10   855.29   933.86
                             1052.15  1082.67  1097.98  1101.45  1120.77
                             1144.49  1169.17  1229.28  1261.65  1269.91
                             1295.09  1310.72  1323.23  1346.11  1386.98
                             1437.00  1445.97  1460.36  1504.28  1524.22
                             1553.36  1576.28  1607.21  1630.92  1655.00
                             1671.97  1686.69  1706.67  1718.75  1781.58
                             1798.99  1811.17  1815.07  1846.88  1863.79
                             1880.46  1885.84  1906.21  1910.69  1920.53
                             1927.17  1942.57  1973.69  1982.48  1994.34
                             2015.81  2050.44  2057.88  2059.06  2061.17
                             2081.85  2085.26  2150.37  2154.26  2163.12
                             2168.33  2178.73  2182.26  2183.53  2186.41
                             2194.86  2209.67  2214.27  2236.38  2375.82
                             2435.55  2551.59  4243.45  4319.17  4385.30
                             4388.64  4392.02  4393.96  4395.47  4405.72
                             4410.54  4415.79  4423.31  4441.10  4443.84
                             4452.85  4473.16  4474.94  4483.63  4485.89
                             4494.82  4497.02  4593.57  4616.31  5231.60
                             5339.71

 Zero-point correction=                           0.382946 (Hartree/Particle)
 Thermal correction to Energy=                    0.404108
 Thermal correction to Enthalpy=                  0.405052
 Thermal correction to Gibbs Free Energy=         0.330028
 Sum of electronic and zero-point Energies=           -883.756306
 Sum of electronic and thermal Energies=              -883.735144
 Sum of electronic and thermal Enthalpies=            -883.734200
 Sum of electronic and thermal Free Energies=         -883.809224

                     E (Thermal)             CV                S
                      KCal/Mol        Cal/Mol-Kelvin    Cal/Mol-Kelvin
 Total                  253.582             79.110            157.902
 Electronic               0.000              0.000              0.000
 Translational            0.889              2.981             42.746
 Rotational               0.889              2.981             34.826
 Vibrational            251.804             73.148             80.329
 Vibration     1          0.593              1.987              8.205
 Vibration     2          0.593              1.986              6.662
 Vibration     3          0.594              1.982              5.364
 Vibration     4          0.597              1.973              4.456
 Vibration     5          0.598              1.969              4.203
 Vibration     6          0.599              1.965              3.992
 Vibration     7          0.600              1.962              3.850
 Vibration     8          0.602              1.956              3.651
 Vibration     9          0.605              1.947              3.394
 Vibration    10          0.614              1.917              2.851
 Vibration    11          0.627              1.875              2.400
 Vibration    12          0.629              1.868              2.339
 Vibration    13          0.641              1.831              2.078
 Vibration    14          0.646              1.814              1.975
 Vibration    15          0.656              1.784              1.823
 Vibration    16          0.660              1.772              1.768
 Vibration    17          0.662              1.763              1.733
 Vibration    18          0.678              1.718              1.559
 Vibration    19          0.682              1.706              1.517
 Vibration    20          0.701              1.649              1.348
 Vibration    21          0.705              1.637              1.315
 Vibration    22          0.730              1.567              1.148
 Vibration    23          0.754              1.501              1.017
 Vibration    24          0.788              1.414              0.872
 Vibration    25          0.797              1.391              0.838
 Vibration    26          0.801              1.381              0.824
 Vibration    27          0.822              1.328              0.752
 Vibration    28          0.856              1.250              0.658
 Vibration    29          0.882              1.191              0.595
 Vibration    30          0.883              1.187              0.591
 Vibration    31          0.939              1.071              0.482
 Vibration    32          0.949              1.050              0.465
 Vibration    33          0.950              1.048              0.463
 Vibration    34          0.952              1.044              0.459

                           ! Non-Optimized Parameters !
 Normal termination of Gaussian 16 at Tue Mar  1 22:40:05 2022.

 ------------------------------------------
 #p b3lyp/6-31G(d) geom=allcheck guess=read
 ------------------------------------------

 Structure from the checkpoint file:  "264.n.pdb.xyz.mst.wat.chk"
 -------------
 264.n.pdb.xyz
 -------------
 Charge =  0 Multiplicity = 1

 SCF Done:  E(RB3LYP) =  -884.117998530     A.U. after   11 cycles
 Normal termination of Gaussian 16 at Tue Mar  1 22:43:11 2022.
 Gaussian 16:  ES64L-G16RevA.03 25-Dec-2016

 ----------------------------------------------------------------------
 #p b3lyp/6-31G(d) scrf=(iefpcm,read,solvent=water) geom=allcheck guess
 =read
 ----------------------------------------------------------------------

 Structure from the checkpoint file:  "264.n.pdb.xyz.mst.wat.chk"
 -------------
 264.n.pdb.xyz
 -------------
 Charge =  0 Multiplicity = 1

                         Standard orientation:
 ---------------------------------------------------------------------
 Center     Atomic      Atomic             Coordinates (Angstroms)
 Number     Number       Type             X           Y           Z
 ---------------------------------------------------------------------
      1          6           0        4.372712    3.312628    0.265737
      2          6           0        4.195670    1.888293   -0.262978
      3          6           0        2.810811    1.320743    0.056529
      4          7           0        2.598815   -0.031989   -0.462307
      5          6           0        3.390580   -1.066067    0.224134
      6          6           0        4.578624   -1.568706   -0.603924
      7          6           0        5.370956   -2.664137    0.112441
      8          6           0        1.183672   -0.373125   -0.601238
      9          6           0        0.361614   -0.442202    0.711895
     10          6           0       -1.083521   -0.796679    0.460886
     11          6           0       -2.059767    0.176550    0.237273
     12          6           0       -1.988119    1.684560    0.234690
     13          6           0       -3.430843    2.119477   -0.062102
     14          8           0       -3.857515    3.265015   -0.160274
     15          7           0       -4.168855    0.972380   -0.201104
     16          6           0       -3.386933   -0.179955   -0.028368
     17          6           0       -3.801734   -1.509364   -0.091652
     18          8           0       -5.118877   -1.758516   -0.355421
     19          6           0       -2.827793   -2.490545    0.128428
     20          6           0       -1.503208   -2.136533    0.398339
     21          1           0        4.250127    3.350011    1.353692
     22          1           0        3.635743    3.993381   -0.174457
     23          1           0        5.367871    3.701089    0.029496
     24          1           0        4.344065    1.867798   -1.349536
     25          1           0        4.967411    1.240040    0.167845
     26          1           0        2.651617    1.369221    1.149574
     27          1           0        2.051769    1.967586   -0.399325
     28          1           0        2.740236   -1.918409    0.455114
     29          1           0        3.750872   -0.688548    1.193473
     30          1           0        5.237205   -0.724782   -0.837347
     31          1           0        4.202162   -1.943664   -1.563529
     32          1           0        4.738946   -3.531990    0.332458
     33          1           0        5.777423   -2.302223    1.063598
     34          1           0        6.211050   -3.010462   -0.497432
     35          1           0        0.724582    0.364834   -1.269324
     36          1           0        1.116567   -1.342780   -1.106993
     37          1           0        0.432260    0.520980    1.227768
     38          1           0        0.814785   -1.191832    1.369764
     39          1           0       -1.669600    2.110513    1.192388
     40          1           0       -1.321507    2.095221   -0.531482
     41          1           0       -5.160485    0.973518   -0.400812
     42          1           0       -5.270949   -2.719984   -0.381866
     43          1           0       -3.109750   -3.538438    0.094141
     44          1           0       -0.777331   -2.925440    0.571688
 ---------------------------------------------------------------------

 SCF Done:  E(RB3LYP) =  -884.137750425     A.U. after   11 cycles

 The electronic state is 1-A.
 Alpha  occ. eigenvalues --  -19.17766 -19.12428 -14.37197 -14.31764 -10.29678
 Alpha  occ. eigenvalues --  -10.25130 -10.22758 -10.20520 -10.20101 -10.19994
 Alpha  occ. eigenvalues --  -10.19923 -10.19623 -10.19339 -10.18995 -10.18622
 Alpha  occ. eigenvalues --  -10.18166 -10.17536 -10.17287 -10.17070 -10.16989
 Alpha  occ. eigenvalues --   -1.05722  -1.03991  -0.95574  -0.91392  -0.84987
 Alpha  occ. eigenvalues --   -0.78734  -0.77753  -0.77533  -0.75632  -0.72523
 Alpha  occ. eigenvalues --   -0.70071  -0.68205  -0.65479  -0.61638  -0.61161
 Alpha  occ. eigenvalues --   -0.60007  -0.59035  -0.58472  -0.55781  -0.53601
 Alpha  occ. eigenvalues --   -0.50962  -0.48667  -0.47842  -0.47049  -0.47015
 Alpha  occ. eigenvalues --   -0.45827  -0.45558  -0.44194  -0.43347  -0.42156
 Alpha  occ. eigenvalues --   -0.42086  -0.41122  -0.41034  -0.40398  -0.39823
 Alpha  occ. eigenvalues --   -0.39504  -0.38956  -0.38571  -0.37684  -0.36579
 Alpha  occ. eigenvalues --   -0.35993  -0.35480  -0.34833  -0.34469  -0.33807
 Alpha  occ. eigenvalues --   -0.33478  -0.32835  -0.32753  -0.32091  -0.31611
 Alpha  occ. eigenvalues --   -0.30470  -0.26126  -0.23353  -0.21075  -0.19754
 Alpha virt. eigenvalues --   -0.01134   0.01048   0.03585   0.07858   0.08914
 Alpha virt. eigenvalues --    0.09514   0.10028   0.11076   0.12017   0.12420
 Alpha virt. eigenvalues --    0.12771   0.13792   0.14264   0.15263   0.15400

 Mulliken charges:
               1
     1  C   -0.456245
     2  C   -0.256990
     3  C   -0.122057
     4  N   -0.404504
     5  C   -0.132885
     6  C   -0.245327
     7  C   -0.458925
     8  C   -0.152966
     9  C   -0.368566
    10  C    0.095568
    11  C    0.030823
    12  C   -0.461830
    13  C    0.619147
    14  O   -0.583915
    15  N   -0.706870
    16  C    0.322852
    17  C    0.287760
    18  O   -0.688263
    19  C   -0.212931
    20  C   -0.224900
    21  H    0.146770
    22  H    0.146397
    23  H    0.148648
    24  H    0.135020
    25  H    0.144867
    26  H    0.119890
    27  H    0.137677
    28  H    0.140847
    29  H    0.131646
    30  H    0.140274
    31  H    0.132852
    32  H    0.145486
    33  H    0.145627
    34  H    0.147653
    35  H    0.145375
    36  H    0.146538
    37  H    0.155211
    38  H    0.155033
    39  H    0.207486
    40  H    0.204876
    41  H    0.384692
    42  H    0.464483
    43  H    0.153725
    44  H    0.139951
 Sum of Mulliken charges =  -0.00000

 Dipole moment (field-independent basis, Debye):
    X=              0.5630    Y=             -5.7847    Z=              0.9676  Tot=              5.8921
 Quadrupole moment (field-independent basis, Debye-Ang):
   XX=           -116.0498   YY=           -124.1104   ZZ=           -123.2569
   XY=             27.6923   XZ=              4.3879   YZ=              1.6571

 Normal termination of Gaussian 16 at Tue Mar  1 22:47:08 2022.
