 Gaussian 16, Revision A.03,

 ----------------------------------------------------------------------
 #p b3lyp/6-31G(d) opt=(MaxStep=10,MaxCycles=1000) freq scf=(MaxCycle=2
 000,NoVarAcc,NoIncFock) scrf=(iefpcm,read,solvent=water)
 ----------------------------------------------------------------------

 -------------
 265.n.pdb.xyz
 -------------
 Symbolic Z-matrix:
 Charge =  0 Multiplicity = 1

 SCF Done:  E(RB3LYP) =  -704.076142525     A.U. after   13 cycles
 SCF Done:  E(RB3LYP) =  -704.079423069     A.U. after   10 cycles
 SCF Done:  E(RB3LYP) =  -704.077659564     A.U. after   11 cycles
 SCF Done:  E(RB3LYP) =  -704.080453844     A.U. after   11 cycles
 SCF Done:  E(RB3LYP) =  -704.080932699     A.U. after   10 cycles
 SCF Done:  E(RB3LYP) =  -704.081085743     A.U. after    9 cycles
 SCF Done:  E(RB3LYP) =  -704.081124593     A.U. after   10 cycles
 SCF Done:  E(RB3LYP) =  -704.081124796     A.U. after    9 cycles
 SCF Done:  E(RB3LYP) =  -704.081131678     A.U. after    9 cycles
 SCF Done:  E(RB3LYP) =  -704.081145246     A.U. after    9 cycles
 SCF Done:  E(RB3LYP) =  -704.081149454     A.U. after    9 cycles
 SCF Done:  E(RB3LYP) =  -704.081159935     A.U. after    9 cycles
 SCF Done:  E(RB3LYP) =  -704.081158996     A.U. after    8 cycles
 SCF Done:  E(RB3LYP) =  -704.081162121     A.U. after    7 cycles
 SCF Done:  E(RB3LYP) =  -704.081161730     A.U. after    8 cycles
 SCF Done:  E(RB3LYP) =  -704.081159666     A.U. after    7 cycles
 SCF Done:  E(RB3LYP) =  -704.081160203     A.U. after    7 cycles
 Optimization completed.
    -- Stationary point found.
 Normal termination of Gaussian 16 at Tue Mar  1 21:27:38 2022.

 --------------------------------------------------------------------
 #P Geom=AllCheck Guess=TCheck SCRF=Check GenChk RB3LYP/6-31G(d) Freq
 --------------------------------------------------------------------

 Structure from the checkpoint file:  "265.n.pdb.xyz.mst.wat.chk"
 -------------
 265.n.pdb.xyz
 -------------
 Charge =  0 Multiplicity = 1

 SCF Done:  E(RB3LYP) =  -704.081160203     A.U. after    1 cycles

  Exact polarizability: 204.792   8.586 176.957  -9.180   3.376  61.223
 Approx polarizability: 215.389   8.019 224.206 -11.766   3.910  73.101

                      1                      2                      3
                      A                      A                      A
 Frequencies --     36.8080                51.6579                61.8239
 Red. masses --      5.2703                 9.5250                 5.1462
 Frc consts  --      0.0042                 0.0150                 0.0116
 IR Inten    --      1.1667                 2.0581                 8.0913

                      4                      5                      6
                      A                      A                      A
 Frequencies --     87.1822               125.9451               171.8920
 Red. masses --      6.5931                 3.4441                 4.1454
 Frc consts  --      0.0295                 0.0322                 0.0722
 IR Inten    --      4.7425                 1.0106                 7.0305

                      7                      8                      9
                      A                      A                      A
 Frequencies --    225.7214               247.9140               261.2439
 Red. masses --      6.8869                 6.6228                 5.1011
 Frc consts  --      0.2067                 0.2398                 0.2051
 IR Inten    --     18.8560                 6.9497                16.7574

                     10                     11                     12
                      A                      A                      A
 Frequencies --    356.3693               403.9084               431.7631
 Red. masses --      5.2493                 2.1365                 5.2371
 Frc consts  --      0.3928                 0.2054                 0.5752
 IR Inten    --     33.7417                58.6293                18.9274

                     13                     14                     15
                      A                      A                      A
 Frequencies --    462.6649               474.7495               522.9683
 Red. masses --      2.2223                 4.3771                 1.5963
 Frc consts  --      0.2803                 0.5813                 0.2572
 IR Inten    --     46.7062                34.5000                21.8055

                     16                     17                     18
                      A                      A                      A
 Frequencies --    536.8785               553.3037               571.4295
 Red. masses --      3.3647                 4.3638                 6.6377
 Frc consts  --      0.5714                 0.7871                 1.2770
 IR Inten    --     13.6673                74.3017                14.6099

                     19                     20                     21
                      A                      A                      A
 Frequencies --    631.0090               650.7658               679.7568
 Red. masses --      5.3501                 1.4929                 6.1305
 Frc consts  --      1.2551                 0.3725                 1.6690
 IR Inten    --     63.6862               189.3546                13.2375

                     22                     23                     24
                      A                      A                      A
 Frequencies --    702.5676               754.9025               762.2253
 Red. masses --      4.5055                 1.3774                 1.5343
 Frc consts  --      1.3103                 0.4625                 0.5252
 IR Inten    --      9.6326                43.9234               207.0544

                     25                     26                     27
                      A                      A                      A
 Frequencies --    790.1375               825.1231               869.1267
 Red. masses --      2.0706                 5.8454                 5.2027
 Frc consts  --      0.7617                 2.3448                 2.3155
 IR Inten    --      3.1456                15.3133                15.8530

                     28                     29                     30
                      A                      A                      A
 Frequencies --    873.5089               943.0994               951.8567
 Red. masses --      1.4183                 3.3466                 1.3379
 Frc consts  --      0.6376                 1.7537                 0.7142
 IR Inten    --      2.3102                72.4847                 1.5605

                     31                     32                     33
                      A                      A                      A
 Frequencies --    997.2029              1020.7758              1065.3507
 Red. masses --      1.2680                 2.1806                 2.2245
 Frc consts  --      0.7429                 1.3387                 1.4876
 IR Inten    --      0.2446                 4.4612                15.4617

                     34                     35                     36
                      A                      A                      A
 Frequencies --   1093.6416              1147.5764              1177.8394
 Red. masses --      4.4997                 2.0632                 1.3829
 Frc consts  --      3.1709                 1.6009                 1.1303
 IR Inten    --     40.4682                46.8861                40.9986

                     37                     38                     39
                      A                      A                      A
 Frequencies --   1188.0649              1207.9966              1236.6190
 Red. masses --      2.0765                 1.8554                 1.1062
 Frc consts  --      1.7269                 1.5952                 0.9967
 IR Inten    --    386.2731                26.7066                10.5594

                     40                     41                     42
                      A                      A                      A
 Frequencies --   1250.9998              1288.9979              1307.4613
 Red. masses --      1.5645                 2.3261                 1.7797
 Frc consts  --      1.4425                 2.2771                 1.7925
 IR Inten    --     84.6643               122.8971               131.2093

                     43                     44                     45
                      A                      A                      A
 Frequencies --   1351.4288              1365.1020              1428.2821
 Red. masses --      2.1307                 3.3634                 1.7748
 Frc consts  --      2.2927                 3.6929                 2.1331
 IR Inten    --     93.0194                59.8578               301.9172

                     46                     47                     48
                      A                      A                      A
 Frequencies --   1446.2175              1492.3885              1501.0699
 Red. masses --      2.5834                 2.2451                 1.2369
 Frc consts  --      3.1836                 2.9461                 1.6420
 IR Inten    --    241.4955                 7.2892                67.4856

                     49                     50                     51
                      A                      A                      A
 Frequencies --   1534.7319              1570.3170              1637.8347
 Red. masses --      2.2599                 2.4920                 3.8649
 Frc consts  --      3.1361                 3.6206                 6.1085
 IR Inten    --    214.0699               736.8391                11.7613

                     52                     53                     54
                      A                      A                      A
 Frequencies --   1645.0564              1690.8881              1804.7277
 Red. masses --      7.6664                 4.8263                10.3411
 Frc consts  --     12.2237                 8.1301                19.8445
 IR Inten    --    350.5617               339.2547               423.4646

                     55                     56                     57
                      A                      A                      A
 Frequencies --   3073.8765              3104.8755              3196.0275
 Red. masses --      1.0598                 1.1030                 1.0682
 Frc consts  --      5.9001                 6.2648                 6.4290
 IR Inten    --     37.1486                 9.7901               863.7866

                     58                     59                     60
                      A                      A                      A
 Frequencies --   3207.2262              3216.8723              3222.1284
 Red. masses --      1.0861                 1.0881                 1.0939
 Frc consts  --      6.5824                 6.6342                 6.6911
 IR Inten    --     12.0238                 9.2278                41.8878

                     61                     62                     63
                      A                      A                      A
 Frequencies --   3235.6990              3599.3271              3634.8547
 Red. masses --      1.0968                 1.0784                 1.0651
 Frc consts  --      6.7657                 8.2315                 8.2914
 IR Inten    --     27.0714               172.6064               204.1508

 - Thermochemistry -
 -------------------
 Temperature   298.150 Kelvin.  Pressure   1.00000 Atm.
 Atom     1 has atomic number  8 and mass  15.99491

 Molecular mass:   195.05316 amu.
 Principal axes and moments of inertia in atomic units:
                           1         2         3
     Eigenvalues --  1140.963965407.304186498.18409
           X            0.99994   0.01122  -0.00105
           Y           -0.01122   0.99993   0.00372
           Z            0.00109  -0.00371   0.99999
 This molecule is an asymmetric top.
 Rotational symmetry number  1.
 Warning -- assumption of classical behavior for rotation
           may cause significant error
 Rotational temperatures (Kelvin)      0.07591     0.01602     0.01333
 Rotational constants (GHZ):           1.58177     0.33376     0.27773
 Zero-point vibrational energy     460321.6 (Joules/Mol)
                                  110.01950 (Kcal/Mol)
 Warning -- explicit consideration of  18 degrees of freedom as
           vibrations may cause significant error
 Vibrational temperatures:     52.96    74.32    88.95   125.44   181.21
          (Kelvin)            247.31   324.76   356.69   375.87   512.74
                              581.13   621.21   665.67   683.06   752.43
                              772.45   796.08   822.16   907.88   936.31
                              978.02  1010.84  1086.14  1096.67  1136.83
                             1187.17  1250.48  1256.78  1356.91  1369.51
                             1434.75  1468.67  1532.80  1573.51  1651.11
                             1694.65  1709.36  1738.04  1779.22  1799.91
                             1854.58  1881.15  1944.40  1964.08  2054.98
                             2080.78  2147.21  2159.70  2208.14  2259.34
                             2356.48  2366.87  2432.81  2596.60  4422.62
                             4467.22  4598.37  4614.48  4628.36  4635.92
                             4655.45  5178.63  5229.75

 Zero-point correction=                           0.175327 (Hartree/Particle)
 Thermal correction to Energy=                    0.187766
 Thermal correction to Enthalpy=                  0.188710
 Thermal correction to Gibbs Free Energy=         0.135005
 Sum of electronic and zero-point Energies=           -703.905833
 Sum of electronic and thermal Energies=              -703.893394
 Sum of electronic and thermal Enthalpies=            -703.892450
 Sum of electronic and thermal Free Energies=         -703.946156

                     E (Thermal)             CV                S
                      KCal/Mol        Cal/Mol-Kelvin    Cal/Mol-Kelvin
 Total                  117.825             46.608            113.034
 Electronic               0.000              0.000              0.000
 Translational            0.889              2.981             41.709
 Rotational               0.889              2.981             32.061
 Vibrational            116.048             40.647             39.263
 Vibration     1          0.594              1.982              5.424
 Vibration     2          0.596              1.977              4.753
 Vibration     3          0.597              1.973              4.398
 Vibration     4          0.601              1.958              3.722
 Vibration     5          0.611              1.927              3.007
 Vibration     6          0.626              1.877              2.415
 Vibration     7          0.650              1.802              1.913
 Vibration     8          0.662              1.766              1.745
 Vibration     9          0.669              1.744              1.653
 Vibration    10          0.732              1.562              1.138
 Vibration    11          0.769              1.462              0.948
 Vibration    12          0.793              1.401              0.853
 Vibration    13          0.820              1.333              0.758
 Vibration    14          0.831              1.306              0.724
 Vibration    15          0.878              1.199              0.603
 Vibration    16          0.892              1.168              0.572
 Vibration    17          0.909              1.132              0.537
 Vibration    18          0.928              1.093              0.501

 Optimization completed.
    -- Stationary point found.
 Normal termination of Gaussian 16 at Tue Mar  1 21:39:42 2022.

 ------------------------------------------
 #p b3lyp/6-31G(d) geom=allcheck guess=read
 ------------------------------------------

 Structure from the checkpoint file:  "265.n.pdb.xyz.mst.wat.chk"
 -------------
 265.n.pdb.xyz
 -------------
 Charge =  0 Multiplicity = 1

 SCF Done:  E(RB3LYP) =  -704.059397373     A.U. after   12 cycles
 Normal termination of Gaussian 16 at Tue Mar  1 21:40:50 2022.
 Gaussian 16:  ES64L-G16RevA.03 25-Dec-2016

 ----------------------------------------------------------------------
 #p b3lyp/6-31G(d) scrf=(iefpcm,read,solvent=water) geom=allcheck guess
 =read
 ----------------------------------------------------------------------

 Structure from the checkpoint file:  "265.n.pdb.xyz.mst.wat.chk"
 -------------
 265.n.pdb.xyz
 -------------
 Charge =  0 Multiplicity = 1

                         Standard orientation:
 ---------------------------------------------------------------------
 Center     Atomic      Atomic             Coordinates (Angstroms)
 Number     Number       Type             X           Y           Z
 ---------------------------------------------------------------------
      1          8           0       -4.785951   -0.172876   -0.062980
      2          6           0       -3.575431    0.392297   -0.091116
      3          8           0       -3.370116    1.574994   -0.284847
      4          6           0       -2.489118   -0.634413    0.150288
      5          7           0       -1.199206    0.015943    0.126480
      6          6           0       -0.058687   -0.699478    0.141683
      7          8           0       -0.110579   -1.953342    0.198081
      8          6           0        1.240451    0.016260    0.086287
      9          6           0        2.425948   -0.739874   -0.101142
     10          8           0        2.423046   -2.084629   -0.202138
     11          6           0        3.663132   -0.083197   -0.191862
     12          6           0        3.736088    1.297608   -0.077217
     13          6           0        2.576791    2.055627    0.135178
     14          6           0        1.349123    1.412645    0.214388
     15          1           0       -5.458445    0.520477   -0.227450
     16          1           0       -2.553680   -1.412110   -0.617859
     17          1           0       -2.675322   -1.128178    1.110396
     18          1           0       -1.206348    1.017427   -0.024533
     19          1           0        1.476392   -2.370310   -0.061377
     20          1           0        4.552922   -0.685146   -0.344884
     21          1           0        4.701188    1.788599   -0.144598
     22          1           0        2.634639    3.132731    0.240490
     23          1           0        0.462115    2.006890    0.400604
 ---------------------------------------------------------------------

 SCF Done:  E(RB3LYP) =  -704.079096214     A.U. after   11 cycles

 The electronic state is 1-A.
 Alpha  occ. eigenvalues --  -19.20466 -19.16670 -19.15631 -19.13578 -14.37264
 Alpha  occ. eigenvalues --  -10.33872 -10.30680 -10.26169 -10.24281 -10.20662
 Alpha  occ. eigenvalues --  -10.20485 -10.20098 -10.19051 -10.19020  -1.11723
 Alpha  occ. eigenvalues --   -1.06513  -1.03940  -1.02973  -0.93668  -0.85806
 Alpha  occ. eigenvalues --   -0.78085  -0.74818  -0.74198  -0.65296  -0.62418
 Alpha  occ. eigenvalues --   -0.60970  -0.60065  -0.55655  -0.51929  -0.50443
 Alpha  occ. eigenvalues --   -0.49863  -0.49496  -0.47708  -0.46544  -0.45895
 Alpha  occ. eigenvalues --   -0.44144  -0.43643  -0.42053  -0.41403  -0.39864
 Alpha  occ. eigenvalues --   -0.39096  -0.38140  -0.37624  -0.34977  -0.33976
 Alpha  occ. eigenvalues --   -0.33176  -0.29792  -0.27585  -0.27297  -0.25928
 Alpha  occ. eigenvalues --   -0.22689
 Alpha virt. eigenvalues --   -0.04352  -0.00092   0.00397   0.05465   0.08848
 Alpha virt. eigenvalues --    0.09469   0.11522   0.11903   0.15138   0.16024
 Alpha virt. eigenvalues --    0.16937   0.18074   0.18883   0.19060   0.21480

 Mulliken charges:
               1
     1  O   -0.578845
     2  C    0.594922
     3  O   -0.504743
     4  C   -0.174562
     5  N   -0.634346
     6  C    0.625782
     7  O   -0.637792
     8  C    0.036763
     9  C    0.295519
    10  O   -0.685242
    11  C   -0.184237
    12  C   -0.140058
    13  C   -0.161259
    14  C   -0.209835
    15  H    0.471371
    16  H    0.214082
    17  H    0.213364
    18  H    0.381479
    19  H    0.450892
    20  H    0.152911
    21  H    0.159230
    22  H    0.153680
    23  H    0.160922
 Sum of Mulliken charges =  -0.00000

 Dipole moment (field-independent basis, Debye):
    X=             -4.1770    Y=              3.4235    Z=              0.1046  Tot=              5.4017
 Quadrupole moment (field-independent basis, Debye-Ang):
   XX=            -56.8600   YY=            -85.8766   ZZ=            -80.5189
   XY=              7.2258   XZ=              0.2954   YZ=              1.3149

 Normal termination of Gaussian 16 at Tue Mar  1 21:42:07 2022.
