 Gaussian 16, Revision A.03,

 ----------------------------------------------------------------------
 #p b3lyp/6-31G(d) opt=(MaxStep=10,MaxCycles=1000) freq scf=(MaxCycle=2
 000,NoVarAcc,NoIncFock) scrf=(iefpcm,read,solvent=water)
 ----------------------------------------------------------------------

 -------------
 267.n.pdb.xyz
 -------------
 Symbolic Z-matrix:
 Charge =  0 Multiplicity = 1

 SCF Done:  E(RB3LYP) =  -923.442939646     A.U. after   12 cycles
 SCF Done:  E(RB3LYP) =  -923.445970512     A.U. after   10 cycles
 SCF Done:  E(RB3LYP) =  -923.444950350     A.U. after   10 cycles
 SCF Done:  E(RB3LYP) =  -923.447042464     A.U. after    9 cycles
 SCF Done:  E(RB3LYP) =  -923.447004362     A.U. after    9 cycles
 SCF Done:  E(RB3LYP) =  -923.447090271     A.U. after    8 cycles
 SCF Done:  E(RB3LYP) =  -923.447162434     A.U. after    9 cycles
 SCF Done:  E(RB3LYP) =  -923.447268793     A.U. after   10 cycles
 SCF Done:  E(RB3LYP) =  -923.447280424     A.U. after   10 cycles
 SCF Done:  E(RB3LYP) =  -923.447274739     A.U. after    9 cycles
 SCF Done:  E(RB3LYP) =  -923.448155601     A.U. after    7 cycles
 SCF Done:  E(RB3LYP) =  -923.448159681     A.U. after    9 cycles
 SCF Done:  E(RB3LYP) =  -923.448155800     A.U. after    9 cycles
 SCF Done:  E(RB3LYP) =  -923.448156042     A.U. after    7 cycles
 SCF Done:  E(RB3LYP) =  -923.448159432     A.U. after    8 cycles
 SCF Done:  E(RB3LYP) =  -923.448159678     A.U. after    7 cycles
 SCF Done:  E(RB3LYP) =  -923.448155837     A.U. after    9 cycles
 Optimization completed.
    -- Stationary point found.
 Normal termination of Gaussian 16 at Wed Mar  2 05:32:41 2022.

 --------------------------------------------------------------------
 #P Geom=AllCheck Guess=TCheck SCRF=Check GenChk RB3LYP/6-31G(d) Freq
 --------------------------------------------------------------------

 Structure from the checkpoint file:  "267.n.pdb.xyz.mst.wat.chk"
 -------------
 267.n.pdb.xyz
 -------------
 Charge =  0 Multiplicity = 1

 SCF Done:  E(RB3LYP) =  -923.448155837     A.U. after    1 cycles

  Exact polarizability: 319.840   8.038 251.034  -6.642  17.952 210.282
 Approx polarizability: 315.177  10.603 283.950  -7.100  19.444 231.011

                      1                      2                      3
                      A                      A                      A
 Frequencies --      9.9869                18.6501                30.6814
 Red. masses --      4.3807                 6.4085                 5.0808
 Frc consts  --      0.0003                 0.0013                 0.0028
 IR Inten    --      0.3162                 6.1253                 2.3744

                      4                      5                      6
                      A                      A                      A
 Frequencies --     39.5061                46.6482                59.0860
 Red. masses --      4.2002                 3.4779                 3.5212
 Frc consts  --      0.0039                 0.0045                 0.0072
 IR Inten    --      5.5466                 2.6686                 8.4288

                      7                      8                      9
                      A                      A                      A
 Frequencies --     68.3488                91.3903               108.5630
 Red. masses --      3.9604                 1.5787                 1.7149
 Frc consts  --      0.0109                 0.0078                 0.0119
 IR Inten    --      1.1092                 4.6063                 1.2692

                     10                     11                     12
                      A                      A                      A
 Frequencies --    116.8548               138.2291               156.1655
 Red. masses --      2.6374                 2.2542                 2.9080
 Frc consts  --      0.0212                 0.0254                 0.0418
 IR Inten    --      1.7190                 6.4129                 0.0107

                     13                     14                     15
                      A                      A                      A
 Frequencies --    185.8793               219.6890               243.1284
 Red. masses --      3.6379                 3.4918                 4.6016
 Frc consts  --      0.0741                 0.0993                 0.1603
 IR Inten    --      3.0652                 0.3460                 0.7852

                     16                     17                     18
                      A                      A                      A
 Frequencies --    243.9070               252.4578               293.7512
 Red. masses --      4.8795                 2.0974                 3.1618
 Frc consts  --      0.1710                 0.0788                 0.1607
 IR Inten    --      1.7302                 2.0026                 6.9147

                     19                     20                     21
                      A                      A                      A
 Frequencies --    304.1649               308.4950               337.0856
 Red. masses --      2.4084                 2.7536                 2.3828
 Frc consts  --      0.1313                 0.1544                 0.1595
 IR Inten    --      3.9381                 9.2898                 0.2759

                     22                     23                     24
                      A                      A                      A
 Frequencies --    401.3626               412.1446               439.0665
 Red. masses --      1.7677                 3.5192                 3.6579
 Frc consts  --      0.1678                 0.3522                 0.4155
 IR Inten    --      4.4405                11.4378                 1.3889

                     25                     26                     27
                      A                      A                      A
 Frequencies --    460.5191               462.9824               479.1249
 Red. masses --      3.0308                 3.0139                 2.6558
 Frc consts  --      0.3787                 0.3806                 0.3592
 IR Inten    --      3.1800                 4.7166                11.3254

                     28                     29                     30
                      A                      A                      A
 Frequencies --    500.7214               525.4841               556.8151
 Red. masses --      1.8080                 2.4845                 2.5842
 Frc consts  --      0.2671                 0.4042                 0.4721
 IR Inten    --     86.7966                85.8835                 0.5272

                     31                     32                     33
                      A                      A                      A
 Frequencies --    578.9715               619.3782               629.2155
 Red. masses --      2.7511                 4.9185                 3.3918
 Frc consts  --      0.5433                 1.1117                 0.7912
 IR Inten    --      1.3809                14.1796                 1.0441

                     34                     35                     36
                      A                      A                      A
 Frequencies --    649.3130               654.2711               707.5543
 Red. masses --      3.8576                 2.3914                 2.4412
 Frc consts  --      0.9582                 0.6031                 0.7201
 IR Inten    --      1.5266                 4.0321                11.6476

                     37                     38                     39
                      A                      A                      A
 Frequencies --    769.9797               775.0406               788.9055
 Red. masses --      1.1597                 3.9797                 1.9801
 Frc consts  --      0.4051                 1.4085                 0.7261
 IR Inten    --     18.3085                25.0311                36.4618

                     40                     41                     42
                      A                      A                      A
 Frequencies --    807.0314               824.1980               857.0506
 Red. masses --      2.2012                 1.5022                 1.5405
 Frc consts  --      0.8447                 0.6012                 0.6667
 IR Inten    --     34.5126                 1.0274                 4.0117

                     43                     44                     45
                      A                      A                      A
 Frequencies --    869.3164               873.6651               890.4136
 Red. masses --      2.4771                 1.3861                 1.4886
 Frc consts  --      1.1029                 0.6234                 0.6953
 IR Inten    --      7.2380                 5.3873                 7.6448

                     46                     47                     48
                      A                      A                      A
 Frequencies --    895.6769               916.4880               931.4388
 Red. masses --      1.4698                 2.4548                 2.9806
 Frc consts  --      0.6947                 1.2148                 1.5236
 IR Inten    --     29.2035                 5.6686                16.7271

                     49                     50                     51
                      A                      A                      A
 Frequencies --    950.1002               977.6014               983.7109
 Red. masses --      1.9411                 1.2695                 1.2845
 Frc consts  --      1.0324                 0.7148                 0.7323
 IR Inten    --      4.8351                 1.6858                 3.3150

                     52                     53                     54
                      A                      A                      A
 Frequencies --   1009.1839              1009.6891              1012.5279
 Red. masses --      3.6945                 2.2200                 2.7046
 Frc consts  --      2.2169                 1.3335                 1.6337
 IR Inten    --      7.3461                 2.8796                15.5129

                     55                     56                     57
                      A                      A                      A
 Frequencies --   1017.7005              1048.5990              1054.7805
 Red. masses --      1.8572                 2.6923                 2.0547
 Frc consts  --      1.1333                 1.7442                 1.3469
 IR Inten    --     13.0892                14.0755                23.1166

                     58                     59                     60
                      A                      A                      A
 Frequencies --   1069.3483              1071.0629              1082.9423
 Red. masses --      1.9516                 2.3547                 1.4937
 Frc consts  --      1.3149                 1.5915                 1.0321
 IR Inten    --    102.3033                96.4586                11.7503

                     61                     62                     63
                      A                      A                      A
 Frequencies --   1099.3335              1122.8362              1125.1897
 Red. masses --      3.8595                 1.6557                 2.8443
 Frc consts  --      2.7481                 1.2299                 2.1216
 IR Inten    --     12.8475                10.5394                 6.7785

                     64                     65                     66
                      A                      A                      A
 Frequencies --   1134.2704              1148.0284              1175.5143
 Red. masses --      2.4216                 2.8315                 1.8806
 Frc consts  --      1.8357                 2.1988                 1.5311
 IR Inten    --     33.8802                42.1739                 5.2589

                     67                     68                     69
                      A                      A                      A
 Frequencies --   1176.0111              1183.3773              1186.6110
 Red. masses --      1.8032                 1.3249                 1.8430
 Frc consts  --      1.4693                 1.0932                 1.5289
 IR Inten    --     58.4882                38.7509                31.7154

                     70                     71                     72
                      A                      A                      A
 Frequencies --   1205.8596              1230.1098              1244.7132
 Red. masses --      1.3012                 1.4120                 1.2372
 Frc consts  --      1.1147                 1.2589                 1.1293
 IR Inten    --     10.2726                 4.2292                20.9923

                     73                     74                     75
                      A                      A                      A
 Frequencies --   1280.5072              1292.6761              1298.2523
 Red. masses --      1.6362                 1.8700                 1.2995
 Frc consts  --      1.5807                 1.8410                 1.2905
 IR Inten    --     77.1251               210.0489                53.0764

                     76                     77                     78
                      A                      A                      A
 Frequencies --   1301.4950              1309.9507              1315.9724
 Red. masses --      1.8118                 1.3874                 1.3766
 Frc consts  --      1.8082                 1.4027                 1.4046
 IR Inten    --     42.4521               122.9874                52.9841

                     79                     80                     81
                      A                      A                      A
 Frequencies --   1322.1138              1330.6072              1342.8314
 Red. masses --      1.3500                 1.3655                 1.3767
 Frc consts  --      1.3904                 1.4245                 1.4626
 IR Inten    --     78.7846                27.1180                 9.9871

                     82                     83                     84
                      A                      A                      A
 Frequencies --   1343.9129              1364.0156              1367.8471
 Red. masses --      1.0919                 2.4735                 1.6885
 Frc consts  --      1.1619                 2.7114                 1.8614
 IR Inten    --     24.4097                 3.8182                14.6794

                     85                     86                     87
                      A                      A                      A
 Frequencies --   1389.0541              1395.5812              1398.8105
 Red. masses --      1.4551                 1.4614                 1.4993
 Frc consts  --      1.6541                 1.6770                 1.7285
 IR Inten    --     84.0554                 6.3815                 4.9309

                     88                     89                     90
                      A                      A                      A
 Frequencies --   1412.0389              1412.6073              1426.8108
 Red. masses --      1.3420                 1.4885                 1.2732
 Frc consts  --      1.5765                 1.7500                 1.5271
 IR Inten    --      3.4592                28.6386                57.7672

                     91                     92                     93
                      A                      A                      A
 Frequencies --   1441.6337              1443.8497              1494.8192
 Red. masses --      1.5138                 1.4831                 2.5850
 Frc consts  --      1.8536                 1.8216                 3.4032
 IR Inten    --     34.9889                24.4196                61.8917

                     94                     95                     96
                      A                      A                      A
 Frequencies --   1495.1947              1496.3303              1497.9635
 Red. masses --      1.0497                 1.0995                 1.0865
 Frc consts  --      1.3826                 1.4504                 1.4364
 IR Inten    --     16.8300                 1.6896                16.1445

                     97                     98                     99
                      A                      A                      A
 Frequencies --   1501.8193              1508.7459              1508.8443
 Red. masses --      1.0874                 1.1418                 1.0976
 Frc consts  --      1.4450                 1.5313                 1.4722
 IR Inten    --      8.7484                 1.2883                25.4121

                    100                    101                    102
                      A                      A                      A
 Frequencies --   1512.9629              1516.9533              1520.5142
 Red. masses --      1.1046                 1.1018                 1.1313
 Frc consts  --      1.4898                 1.4938                 1.5410
 IR Inten    --      2.7861                 1.3387                10.0703

                    103                    104                    105
                      A                      A                      A
 Frequencies --   1530.2057              1532.1464              1547.6694
 Red. masses --      1.1532                 1.8812                 1.1703
 Frc consts  --      1.5910                 2.6019                 1.6516
 IR Inten    --      5.0973                90.3567                 1.0022

                    106                    107                    108
                      A                      A                      A
 Frequencies --   1582.2511              1637.2900              1664.6117
 Red. masses --      1.9582                 5.7038                 6.1658
 Frc consts  --      2.8884                 9.0088                10.0663
 IR Inten    --    366.0154                99.8389               108.7778

                    109                    110                    111
                      A                      A                      A
 Frequencies --   1721.0758              2919.3186              2927.8126
 Red. masses --      7.3773                 1.0734                 1.0725
 Frc consts  --     12.8750                 5.3897                 5.4169
 IR Inten    --    468.7568                82.7153               172.1627

                    112                    113                    114
                      A                      A                      A
 Frequencies --   2946.8330              3034.0406              3038.5719
 Red. masses --      1.0721                 1.0561                 1.0664
 Frc consts  --      5.4853                 5.7281                 5.8010
 IR Inten    --    198.2891                50.8417                54.0373

                    115                    116                    117
                      A                      A                      A
 Frequencies --   3050.9193              3052.2228              3060.0589
 Red. masses --      1.0621                 1.0638                 1.0872
 Frc consts  --      5.8249                 5.8390                 5.9979
 IR Inten    --     40.3899                49.6775                40.5665

                    118                    119                    120
                      A                      A                      A
 Frequencies --   3068.5864              3073.8900              3078.6912
 Red. masses --      1.0621                 1.1018                 1.0680
 Frc consts  --      5.8923                 6.1338                 5.9645
 IR Inten    --     15.2173                54.9018                69.9201

                    121                    122                    123
                      A                      A                      A
 Frequencies --   3080.2809              3083.1832              3089.5383
 Red. masses --      1.0360                 1.0880                 1.0932
 Frc consts  --      5.7916                 6.0936                 6.1480
 IR Inten    --      6.7057               108.0096                97.0563

                    124                    125                    126
                      A                      A                      A
 Frequencies --   3096.1090              3098.9814              3103.1423
 Red. masses --      1.1026                 1.1041                 1.0869
 Frc consts  --      6.2274                 6.2473                 6.1667
 IR Inten    --     58.9110               134.2491                50.7630

                    127                    128                    129
                      A                      A                      A
 Frequencies --   3114.7072              3146.8613              3149.0076
 Red. masses --      1.1034                 1.1013                 1.1005
 Frc consts  --      6.3071                 6.4256                 6.4299
 IR Inten    --     61.8583                13.3965                30.3719

                    130                    131                    132
                      A                      A                      A
 Frequencies --   3166.4683              3202.8495              3211.1319
 Red. masses --      1.1046                 1.0874                 1.0903
 Frc consts  --      6.5256                 6.5723                 6.6236
 IR Inten    --     32.5566                19.9273                15.8724

                    133                    134                    135
                      A                      A                      A
 Frequencies --   3222.8425              3246.7226              3624.6819
 Red. masses --      1.0931                 1.0918                 1.0791
 Frc consts  --      6.6894                 6.7807                 8.3531
 IR Inten    --     26.6612                15.0801                91.8206

 - Thermochemistry -
 -------------------
 Temperature   298.150 Kelvin.  Pressure   1.00000 Atm.
 Atom     1 has atomic number  6 and mass  12.00000

 Molecular mass:   290.19943 amu.
 Principal axes and moments of inertia in atomic units:
                           1         2         3
     Eigenvalues --  1855.49693********************
           X            1.00000   0.00053  -0.00165
           Y           -0.00049   0.99962   0.02757
           Z            0.00167  -0.02757   0.99962
 This molecule is an asymmetric top.
 Rotational symmetry number  1.
 Warning -- assumption of classical behavior for rotation
           may cause significant error
 Rotational temperatures (Kelvin)      0.04668     0.00348     0.00341
 Rotational constants (GHZ):           0.97265     0.07244     0.07100
 Zero-point vibrational energy    1089889.6 (Joules/Mol)
                                  260.48987 (Kcal/Mol)
 Warning -- explicit consideration of  32 degrees of freedom as
           vibrations may cause significant error
 Vibrational temperatures:     14.37    26.83    44.14    56.84    67.12
          (Kelvin)             85.01    98.34   131.49   156.20   168.13
                              198.88   224.69   267.44   316.08   349.81
                              350.93   363.23   422.64   437.63   443.86
                              484.99   577.47   592.98   631.72   662.58
                              666.13   689.35   720.43   756.05   801.13
                              833.01   891.15   905.30   934.22   941.35
                             1018.01  1107.83  1115.11  1135.06  1161.14
                             1185.84  1233.10  1250.75  1257.01  1281.11
                             1288.68  1318.62  1340.13  1366.98  1406.55
                             1415.34  1451.99  1452.72  1456.80  1464.24
                             1508.70  1517.59  1538.55  1541.02  1558.11
                             1581.70  1615.51  1618.90  1631.96  1651.76
                             1691.30  1692.02  1702.62  1707.27  1734.96
                             1769.85  1790.86  1842.36  1859.87  1867.90
                             1872.56  1884.73  1893.39  1902.23  1914.45
                             1932.03  1933.59  1962.51  1968.03  1998.54
                             2007.93  2012.58  2031.61  2032.43  2052.86
                             2074.19  2077.38  2150.71  2151.25  2152.89
                             2155.24  2160.78  2170.75  2170.89  2176.82
                             2182.56  2187.68  2201.62  2204.42  2226.75
                             2276.51  2355.70  2395.00  2476.24  4200.25
                             4212.47  4239.84  4365.31  4371.83  4389.59
                             4391.47  4402.74  4415.01  4422.64  4429.55
                             4431.84  4436.01  4445.16  4454.61  4458.74
                             4464.73  4481.37  4527.63  4530.72  4555.84
                             4608.19  4620.10  4636.95  4671.31  5215.11

 Zero-point correction=                           0.415117 (Hartree/Particle)
 Thermal correction to Energy=                    0.436417
 Thermal correction to Enthalpy=                  0.437361
 Thermal correction to Gibbs Free Energy=         0.360574
 Sum of electronic and zero-point Energies=           -923.033039
 Sum of electronic and thermal Energies=              -923.011739
 Sum of electronic and thermal Enthalpies=            -923.010794
 Sum of electronic and thermal Free Energies=         -923.087582

                     E (Thermal)             CV                S
                      KCal/Mol        Cal/Mol-Kelvin    Cal/Mol-Kelvin
 Total                  273.856             80.043            161.613
 Electronic               0.000              0.000              0.000
 Translational            0.889              2.981             42.894
 Rotational               0.889              2.981             35.417
 Vibrational            272.078             74.081             83.302
 Vibration     1          0.593              1.987              8.014
 Vibration     2          0.593              1.986              6.773
 Vibration     3          0.594              1.984              5.785
 Vibration     4          0.594              1.981              5.284
 Vibration     5          0.595              1.979              4.955
 Vibration     6          0.596              1.974              4.487
 Vibration     7          0.598              1.969              4.200
 Vibration     8          0.602              1.955              3.630
 Vibration     9          0.606              1.942              3.294
 Vibration    10          0.608              1.935              3.152
 Vibration    11          0.614              1.915              2.828
 Vibration    12          0.620              1.896              2.596
 Vibration    13          0.632              1.859              2.269
 Vibration    14          0.647              1.811              1.962
 Vibration    15          0.659              1.774              1.780
 Vibration    16          0.659              1.773              1.774
 Vibration    17          0.664              1.759              1.713
 Vibration    18          0.689              1.685              1.452
 Vibration    19          0.695              1.666              1.394
 Vibration    20          0.698              1.658              1.370
 Vibration    21          0.718              1.601              1.226
 Vibration    22          0.767              1.467              0.958
 Vibration    23          0.776              1.444              0.919
 Vibration    24          0.799              1.385              0.830
 Vibration    25          0.818              1.338              0.765
 Vibration    26          0.821              1.332              0.757
 Vibration    27          0.836              1.296              0.712
 Vibration    28          0.856              1.248              0.656
 Vibration    29          0.880              1.194              0.597
 Vibration    30          0.912              1.125              0.530
 Vibration    31          0.936              1.077              0.487
 Vibration    32          0.979              0.991              0.418

 Optimization completed.
    -- Stationary point found.
 Normal termination of Gaussian 16 at Wed Mar  2 06:23:32 2022.

 ------------------------------------------
 #p b3lyp/6-31G(d) geom=allcheck guess=read
 ------------------------------------------

 Structure from the checkpoint file:  "267.n.pdb.xyz.mst.wat.chk"
 -------------
 267.n.pdb.xyz
 -------------
 Charge =  0 Multiplicity = 1

 SCF Done:  E(RB3LYP) =  -923.430881714     A.U. after   11 cycles
 Normal termination of Gaussian 16 at Wed Mar  2 06:26:38 2022.
 Gaussian 16:  ES64L-G16RevA.03 25-Dec-2016

 ----------------------------------------------------------------------
 #p b3lyp/6-31G(d) scrf=(iefpcm,read,solvent=water) geom=allcheck guess
 =read
 ----------------------------------------------------------------------

 Structure from the checkpoint file:  "267.n.pdb.xyz.mst.wat.chk"
 -------------
 267.n.pdb.xyz
 -------------
 Charge =  0 Multiplicity = 1

                         Standard orientation:
 ---------------------------------------------------------------------
 Center     Atomic      Atomic             Coordinates (Angstroms)
 Number     Number       Type             X           Y           Z
 ---------------------------------------------------------------------
      1          6           0       -8.254596   -1.561761   -0.369826
      2          6           0       -7.172184   -0.504406   -0.269019
      3          8           0       -7.167468    0.485005   -1.012856
      4          7           0       -6.229383   -0.713627    0.680913
      5          6           0       -5.096640    0.176238    0.874176
      6          6           0       -3.800968   -0.377791    0.269889
      7          6           0       -2.630514    0.569665    0.483233
      8          8           0       -1.470458   -0.044657   -0.087934
      9          6           0       -0.291598    0.643956   -0.053180
     10          6           0        0.814561   -0.009727   -0.619028
     11          6           0        2.068205    0.596461   -0.645992
     12          6           0        3.235591   -0.105556   -1.310566
     13          7           0        4.447134   -0.117274   -0.490654
     14          6           0        4.288001   -0.971253    0.692047
     15          6           0        5.517483   -0.893233    1.598301
     16          6           0        6.789216   -1.265937    0.827969
     17          6           0        6.898064   -0.430266   -0.452492
     18          6           0        5.614676   -0.526046   -1.279601
     19          6           0        2.219432    1.878200   -0.091504
     20          6           0        1.124377    2.522536    0.475745
     21          6           0       -0.138274    1.918818    0.501520
     22          1           0       -8.194891   -2.037012   -1.353131
     23          1           0       -9.232015   -1.076602   -0.299322
     24          1           0       -8.180999   -2.332106    0.399855
     25          1           0       -6.262596   -1.564672    1.227556
     26          1           0       -5.361662    1.125164    0.404607
     27          1           0       -4.968564    0.352045    1.947006
     28          1           0       -3.565524   -1.346924    0.723114
     29          1           0       -3.942602   -0.543517   -0.802855
     30          1           0       -2.813354    1.536509   -0.001376
     31          1           0       -2.461296    0.755529    1.551931
     32          1           0        0.674620   -1.001106   -1.037715
     33          1           0        2.924538   -1.127240   -1.598520
     34          1           0        3.484035    0.417624   -2.242223
     35          1           0        3.393917   -0.642714    1.228942
     36          1           0        4.116411   -2.024204    0.391568
     37          1           0        5.607021    0.128693    1.986584
     38          1           0        5.375786   -1.555217    2.458985
     39          1           0        7.676351   -1.127995    1.455494
     40          1           0        6.750780   -2.330790    0.561961
     41          1           0        7.746909   -0.759386   -1.061463
     42          1           0        7.073266    0.620716   -0.192659
     43          1           0        5.496708   -1.561611   -1.655193
     44          1           0        5.676088    0.126229   -2.157314
     45          1           0        3.193439    2.354249   -0.102827
     46          1           0        1.242527    3.512540    0.905220
     47          1           0       -0.978728    2.435927    0.946229
 ---------------------------------------------------------------------

 SCF Done:  E(RB3LYP) =  -923.445780859     A.U. after   11 cycles

 The electronic state is 1-A.
 Alpha  occ. eigenvalues --  -19.17859 -19.10847 -14.35578 -14.32045 -10.28638
 Alpha  occ. eigenvalues --  -10.24872 -10.24031 -10.21889 -10.20723 -10.19970
 Alpha  occ. eigenvalues --  -10.19752 -10.19552 -10.19087 -10.18766 -10.18615
 Alpha  occ. eigenvalues --  -10.18380 -10.18356 -10.17946 -10.17457 -10.17433
 Alpha  occ. eigenvalues --  -10.17394  -1.06379  -1.02521  -0.92193  -0.91735
 Alpha  occ. eigenvalues --   -0.85201  -0.79643  -0.79000  -0.75602  -0.74837
 Alpha  occ. eigenvalues --   -0.74455  -0.72559  -0.68335  -0.67611  -0.62306
 Alpha  occ. eigenvalues --   -0.61777  -0.60623  -0.60197  -0.57945  -0.56882
 Alpha  occ. eigenvalues --   -0.54542  -0.52573  -0.50313  -0.48889  -0.48809
 Alpha  occ. eigenvalues --   -0.48005  -0.47351  -0.46430  -0.45512  -0.44766
 Alpha  occ. eigenvalues --   -0.44332  -0.43944  -0.42444  -0.42371  -0.41918
 Alpha  occ. eigenvalues --   -0.40722  -0.39876  -0.39686  -0.39423  -0.39108
 Alpha  occ. eigenvalues --   -0.38494  -0.37737  -0.37291  -0.36610  -0.35569
 Alpha  occ. eigenvalues --   -0.34957  -0.34587  -0.34217  -0.34176  -0.32587
 Alpha  occ. eigenvalues --   -0.32095  -0.31468  -0.30662  -0.30497  -0.25326
 Alpha  occ. eigenvalues --   -0.24928  -0.24780  -0.22202  -0.21234
 Alpha virt. eigenvalues --   -0.00261   0.00817   0.03087   0.09199   0.09328
 Alpha virt. eigenvalues --    0.09851   0.10846   0.11309   0.11971   0.12548
 Alpha virt. eigenvalues --    0.13005   0.13507   0.14696   0.14760   0.15176

 Mulliken charges:
               1
     1  C   -0.537160
     2  C    0.590933
     3  O   -0.598362
     4  N   -0.586116
     5  C   -0.138353
     6  C   -0.283873
     7  C   -0.040285
     8  O   -0.545811
     9  C    0.381151
    10  C   -0.265791
    11  C    0.146145
    12  C   -0.195280
    13  N   -0.400982
    14  C   -0.123380
    15  C   -0.262971
    16  C   -0.266281
    17  C   -0.263019
    18  C   -0.120071
    19  C   -0.186501
    20  C   -0.162642
    21  C   -0.218412
    22  H    0.186887
    23  H    0.183897
    24  H    0.169053
    25  H    0.381038
    26  H    0.172277
    27  H    0.163774
    28  H    0.157846
    29  H    0.160112
    30  H    0.158332
    31  H    0.156673
    32  H    0.140414
    33  H    0.125113
    34  H    0.158526
    35  H    0.145237
    36  H    0.107722
    37  H    0.135955
    38  H    0.136206
    39  H    0.136487
    40  H    0.132193
    41  H    0.136619
    42  H    0.135833
    43  H    0.109882
    44  H    0.142455
    45  H    0.136992
    46  H    0.148928
    47  H    0.158608
 Sum of Mulliken charges =  -0.00000

 Dipole moment (field-independent basis, Debye):
    X=              0.2166    Y=             -3.4449    Z=              3.8268  Tot=              5.1535
 Quadrupole moment (field-independent basis, Debye-Ang):
   XX=           -124.9633   YY=           -120.1455   ZZ=           -125.6269
   XY=             20.9524   XZ=            -26.3551   YZ=              2.2192

 Normal termination of Gaussian 16 at Wed Mar  2 06:30:48 2022.
