 Gaussian 16, Revision A.03,

 ----------------------------------------------------------------------
 #p b3lyp/6-31G(d) opt=(MaxStep=10,MaxCycles=1000) freq scf=(MaxCycle=2
 000,NoVarAcc,NoIncFock) scrf=(iefpcm,read,solvent=water)
 ----------------------------------------------------------------------

 -------------
 269.n.pdb.xyz
 -------------
 Symbolic Z-matrix:
 Charge =  0 Multiplicity = 1

 SCF Done:  E(RB3LYP) =  -1242.70285751     A.U. after   13 cycles
 SCF Done:  E(RB3LYP) =  -1242.70812219     A.U. after   10 cycles
 SCF Done:  E(RB3LYP) =  -1242.70888479     A.U. after   11 cycles
 SCF Done:  E(RB3LYP) =  -1242.71110649     A.U. after   11 cycles
 SCF Done:  E(RB3LYP) =  -1242.71231887     A.U. after   11 cycles
 SCF Done:  E(RB3LYP) =  -1242.71528338     A.U. after   13 cycles
 SCF Done:  E(RB3LYP) =  -1242.71458849     A.U. after   13 cycles
 SCF Done:  E(RB3LYP) =  -1242.71733780     A.U. after   11 cycles
 SCF Done:  E(RB3LYP) =  -1242.71782080     A.U. after   11 cycles
 SCF Done:  E(RB3LYP) =  -1242.71857815     A.U. after   10 cycles
 SCF Done:  E(RB3LYP) =  -1242.71876770     A.U. after    9 cycles
 SCF Done:  E(RB3LYP) =  -1242.71879329     A.U. after    9 cycles
 SCF Done:  E(RB3LYP) =  -1242.71879836     A.U. after    8 cycles
 SCF Done:  E(RB3LYP) =  -1242.71880072     A.U. after    8 cycles
 SCF Done:  E(RB3LYP) =  -1242.71880111     A.U. after    7 cycles
 SCF Done:  E(RB3LYP) =  -1242.71880025     A.U. after    7 cycles
 SCF Done:  E(RB3LYP) =  -1242.71880212     A.U. after    6 cycles
 Optimization completed.
    -- Stationary point found.
 Normal termination of Gaussian 16 at Wed Mar  2 05:54:54 2022.

 --------------------------------------------------------------------
 #P Geom=AllCheck Guess=TCheck SCRF=Check GenChk RB3LYP/6-31G(d) Freq
 --------------------------------------------------------------------

 Structure from the checkpoint file:  "269.n.pdb.xyz.mst.wat.chk"
 -------------
 269.n.pdb.xyz
 -------------
 Charge =  0 Multiplicity = 1

 SCF Done:  E(RB3LYP) =  -1242.71880212     A.U. after    1 cycles

  Exact polarizability: 329.181   3.417 402.565 -21.547  -2.338 172.308
 Approx polarizability: 365.910   2.159 428.431 -25.127  -3.027 206.453

                      1                      2                      3
                      A                      A                      A
 Frequencies --     27.8363                34.4474                38.7471
 Red. masses --      4.1839                 5.4409                 2.6591
 Frc consts  --      0.0019                 0.0038                 0.0024
 IR Inten    --      0.6338                 3.1525                 1.6495

                      4                      5                      6
                      A                      A                      A
 Frequencies --     62.6608                97.5114               114.9081
 Red. masses --      5.3754                 3.7613                 2.5723
 Frc consts  --      0.0124                 0.0211                 0.0200
 IR Inten    --      2.2356                 4.4307                 2.8968

                      7                      8                      9
                      A                      A                      A
 Frequencies --    122.2975               142.7337               170.7387
 Red. masses --      5.7225                 3.5256                 5.1485
 Frc consts  --      0.0504                 0.0423                 0.0884
 IR Inten    --      7.9362                 0.4897                 5.9681

                     10                     11                     12
                      A                      A                      A
 Frequencies --    173.6022               212.8666               254.1553
 Red. masses --      4.5316                 2.6238                 1.2087
 Frc consts  --      0.0805                 0.0700                 0.0460
 IR Inten    --      1.9328                 0.5692                 3.4538

                     13                     14                     15
                      A                      A                      A
 Frequencies --    263.7200               273.9414               286.5195
 Red. masses --      1.3446                 2.8331                 3.8705
 Frc consts  --      0.0551                 0.1253                 0.1872
 IR Inten    --      0.2677                 0.4378                 2.9520

                     16                     17                     18
                      A                      A                      A
 Frequencies --    299.1432               342.5774               352.8575
 Red. masses --      5.4487                 4.0008                 4.1609
 Frc consts  --      0.2873                 0.2766                 0.3052
 IR Inten    --      3.5914                11.5275                 3.0181

                     19                     20                     21
                      A                      A                      A
 Frequencies --    371.7024               387.1585               400.3533
 Red. masses --      2.3354                 4.0031                 4.9151
 Frc consts  --      0.1901                 0.3535                 0.4642
 IR Inten    --      6.8036                 0.8200                 3.9668

                     22                     23                     24
                      A                      A                      A
 Frequencies --    430.1754               433.6255               449.0877
 Red. masses --      3.9177                 2.4989                 4.9810
 Frc consts  --      0.4271                 0.2768                 0.5919
 IR Inten    --     22.9379                 3.2393                14.7393

                     25                     26                     27
                      A                      A                      A
 Frequencies --    484.1267               487.0599               498.8862
 Red. masses --      3.2351                 3.6986                 5.3507
 Frc consts  --      0.4467                 0.5170                 0.7846
 IR Inten    --     10.7198                 4.1467                24.9490

                     28                     29                     30
                      A                      A                      A
 Frequencies --    538.8651               540.9916               573.4101
 Red. masses --      5.5088                 3.9229                 3.8793
 Frc consts  --      0.9425                 0.6765                 0.7515
 IR Inten    --     60.4580                 4.7876                 0.9384

                     31                     32                     33
                      A                      A                      A
 Frequencies --    619.5875               636.9510               682.9024
 Red. masses --      5.7233                 5.5139                 6.1524
 Frc consts  --      1.2945                 1.3180                 1.6905
 IR Inten    --      6.3219                25.7200                 3.1287

                     34                     35                     36
                      A                      A                      A
 Frequencies --    717.5033               744.9635               757.6326
 Red. masses --      5.4998                 4.2067                 3.9542
 Frc consts  --      1.6682                 1.3755                 1.3373
 IR Inten    --     19.1171                 3.1067                 2.4896

                     37                     38                     39
                      A                      A                      A
 Frequencies --    770.7427               773.1198               775.4123
 Red. masses --      1.2076                 1.2921                 1.2566
 Frc consts  --      0.4227                 0.4550                 0.4452
 IR Inten    --     29.0303               111.9016                17.7937

                     40                     41                     42
                      A                      A                      A
 Frequencies --    780.2895               858.9184               869.4039
 Red. masses --      4.7860                 2.5126                 2.2193
 Frc consts  --      1.7169                 1.0921                 0.9884
 IR Inten    --     44.9321                 9.4230                67.5936

                     43                     44                     45
                      A                      A                      A
 Frequencies --    873.4814               876.1134               928.4150
 Red. masses --      1.4936                 1.3733                 2.2534
 Frc consts  --      0.6714                 0.6211                 1.1444
 IR Inten    --     12.6137                 9.2593                 6.7428

                     46                     47                     48
                      A                      A                      A
 Frequencies --    961.7380               964.1713               999.3209
 Red. masses --      1.3391                 1.3373                 1.2866
 Frc consts  --      0.7298                 0.7325                 0.7570
 IR Inten    --      4.3481                 5.2712                 0.3755

                     49                     50                     51
                      A                      A                      A
 Frequencies --   1000.8196              1012.6460              1022.1645
 Red. masses --      1.2779                14.2198                 3.2465
 Frc consts  --      0.7542                 8.5913                 1.9985
 IR Inten    --      0.3069               232.9542                37.1361

                     52                     53                     54
                      A                      A                      A
 Frequencies --   1055.9762              1066.7416              1069.1903
 Red. masses --      3.2490                 3.4692                 2.0160
 Frc consts  --      2.1345                 2.3259                 1.3578
 IR Inten    --      7.2619                79.6544                19.3036

                     55                     56                     57
                      A                      A                      A
 Frequencies --   1069.6227              1075.8017              1080.1171
 Red. masses --      5.3235                 3.2262                 2.5943
 Frc consts  --      3.5885                 2.1999                 1.7832
 IR Inten    --      3.5685                11.6519                24.7074

                     58                     59                     60
                      A                      A                      A
 Frequencies --   1089.9204              1119.7617              1129.2290
 Red. masses --      2.1250                 2.9861                 1.4594
 Frc consts  --      1.4873                 2.2060                 1.0964
 IR Inten    --     35.0103                13.1670                 6.0684

                     61                     62                     63
                      A                      A                      A
 Frequencies --   1132.3876              1163.1762              1179.0040
 Red. masses --      1.3794                 1.7370                 1.3414
 Frc consts  --      1.0422                 1.3847                 1.0986
 IR Inten    --     17.0903                 5.5599                 7.8256

                     64                     65                     66
                      A                      A                      A
 Frequencies --   1192.7287              1203.4476              1211.7498
 Red. masses --      1.5425                 1.2126                 1.2281
 Frc consts  --      1.2929                 1.0347                 1.0624
 IR Inten    --     18.7141                18.5584                 8.8541

                     67                     68                     69
                      A                      A                      A
 Frequencies --   1214.6442              1260.9613              1282.9670
 Red. masses --      1.6592                 1.6863                 1.9641
 Frc consts  --      1.4423                 1.5798                 1.9048
 IR Inten    --     51.5252               100.4134                88.2060

                     70                     71                     72
                      A                      A                      A
 Frequencies --   1288.4345              1303.0196              1318.0158
 Red. masses --      2.0387                 2.3487                 1.4978
 Frc consts  --      1.9940                 2.3495                 1.5330
 IR Inten    --     87.2882                 6.4213                39.6761

                     73                     74                     75
                      A                      A                      A
 Frequencies --   1329.6358              1339.0127              1350.6222
 Red. masses --      1.6346                 1.4470                 1.1540
 Frc consts  --      1.7027                 1.5286                 1.2403
 IR Inten    --      4.5011                28.5803                18.9271

                     76                     77                     78
                      A                      A                      A
 Frequencies --   1357.4595              1370.4665              1414.2615
 Red. masses --      5.5584                 7.5958                 1.3469
 Frc consts  --      6.0347                 8.4055                 1.5873
 IR Inten    --     14.3299                 5.2900                13.2633

                     79                     80                     81
                      A                      A                      A
 Frequencies --   1419.1746              1434.1232              1464.6701
 Red. masses --      1.8291                 1.4406                 1.1612
 Frc consts  --      2.1705                 1.7457                 1.4677
 IR Inten    --    233.1669                85.8707                 1.3031

                     82                     83                     84
                      A                      A                      A
 Frequencies --   1487.1222              1490.8489              1493.1385
 Red. masses --      1.1954                 2.2556                 2.6144
 Frc consts  --      1.5576                 2.9538                 3.4341
 IR Inten    --      0.1292                 8.7662               342.1517

                     85                     86                     87
                      A                      A                      A
 Frequencies --   1507.2255              1507.8502              1509.8046
 Red. masses --      1.1858                 1.7646                 1.0764
 Frc consts  --      1.5871                 2.3638                 1.4457
 IR Inten    --     83.3703               117.8468                11.1621

                     88                     89                     90
                      A                      A                      A
 Frequencies --   1519.1906              1522.3230              1529.0875
 Red. masses --      1.0860                 1.0525                 1.4485
 Frc consts  --      1.4767                 1.4370                 1.9955
 IR Inten    --     22.5213                11.9287                52.3345

                     91                     92                     93
                      A                      A                      A
 Frequencies --   1532.7945              1542.6472              1560.1896
 Red. masses --      1.0851                 1.4264                 1.1020
 Frc consts  --      1.5021                 2.0000                 1.5805
 IR Inten    --     22.1240                38.0326                12.1845

                     94                     95                     96
                      A                      A                      A
 Frequencies --   1611.8292              1624.1188              1643.6171
 Red. masses --      5.3920                 6.0508                 5.2608
 Frc consts  --      8.2535                 9.4038                 8.3734
 IR Inten    --      9.7513                79.6114               198.6649

                     97                     98                     99
                      A                      A                      A
 Frequencies --   1660.9362              2929.5499              2956.4401
 Red. masses --      5.7046                 1.0721                 1.0601
 Frc consts  --      9.2722                 5.4210                 5.4594
 IR Inten    --     28.6869               113.1949                63.0227

                    100                    101                    102
                      A                      A                      A
 Frequencies --   2963.5316              3071.3823              3084.2997
 Red. masses --      1.0620                 1.0865                 1.0600
 Frc consts  --      5.4951                 6.0389                 5.9413
 IR Inten    --    254.4159                38.7899                11.6807

                    103                    104                    105
                      A                      A                      A
 Frequencies --   3092.7089              3102.2915              3106.1244
 Red. masses --      1.0709                 1.0717                 1.0611
 Frc consts  --      6.0350                 6.0768                 6.0319
 IR Inten    --     59.3478                52.2601                76.2602

                    106                    107                    108
                      A                      A                      A
 Frequencies --   3123.1979              3138.6398              3147.3013
 Red. masses --      1.1028                 1.1046                 1.1053
 Frc consts  --      6.3380                 6.4110                 6.4508
 IR Inten    --     27.0257                54.7249                42.2502

                    109                    110                    111
                      A                      A                      A
 Frequencies --   3150.6305              3205.7337              3205.9503
 Red. masses --      1.1031                 1.0884                 1.0876
 Frc consts  --      6.4514                 6.5900                 6.5862
 IR Inten    --     64.2933                 4.8662                 4.1218

                    112                    113                    114
                      A                      A                      A
 Frequencies --   3215.7516              3216.3009              3229.8628
 Red. masses --      1.0899                 1.0894                 1.0963
 Frc consts  --      6.6404                 6.6399                 6.7384
 IR Inten    --     15.1466                18.5029                42.5588

                    115                    116                    117
                      A                      A                      A
 Frequencies --   3234.6161              3266.2017              3267.3071
 Red. masses --      1.0960                 1.0906                 1.0906
 Frc consts  --      6.7560                 6.8551                 6.8593
 IR Inten    --     36.9907                 8.2524                18.0800

 - Thermochemistry -
 -------------------
 Temperature   298.150 Kelvin.  Pressure   1.00000 Atm.
 Atom     1 has atomic number  6 and mass  12.00000

 Molecular mass:   300.12964 amu.
 Principal axes and moments of inertia in atomic units:
                           1         2         3
     Eigenvalues --  4548.363709502.37720**********
           X            0.99998   0.00371  -0.00593
           Y           -0.00369   0.99999   0.00359
           Z            0.00594  -0.00357   0.99998
 This molecule is an asymmetric top.
 Rotational symmetry number  1.
 Warning -- assumption of classical behavior for rotation
           may cause significant error
 Rotational temperatures (Kelvin)      0.01904     0.00911     0.00660
 Rotational constants (GHZ):           0.39679     0.18993     0.13747
 Zero-point vibrational energy     902761.1 (Joules/Mol)
                                  215.76509 (Kcal/Mol)
 Warning -- explicit consideration of  31 degrees of freedom as
           vibrations may cause significant error
 Vibrational temperatures:     40.05    49.56    55.75    90.15   140.30
          (Kelvin)            165.33   175.96   205.36   245.65   249.77
                              306.27   365.67   379.43   394.14   412.24
                              430.40   492.89   507.68   534.80   557.03
                              576.02   618.93   623.89   646.14   696.55
                              700.77   717.79   775.31   778.37   825.01
                              891.45   916.43   982.54  1032.33  1071.84
                             1090.06  1108.93  1112.35  1115.65  1122.66
                             1235.79  1250.88  1256.74  1260.53  1335.78
                             1383.73  1387.23  1437.80  1439.96  1456.97
                             1470.67  1519.31  1534.80  1538.33  1538.95
                             1547.84  1554.05  1568.15  1611.09  1624.71
                             1629.25  1673.55  1696.32  1716.07  1731.49
                             1743.44  1747.60  1814.24  1845.90  1853.77
                             1874.75  1896.33  1913.05  1926.54  1943.24
                             1953.08  1971.80  2034.81  2041.88  2063.38
                             2107.33  2139.64  2145.00  2148.29  2168.56
                             2169.46  2172.27  2185.78  2190.28  2200.02
                             2205.35  2219.53  2244.76  2319.06  2336.74
                             2364.80  2389.72  4214.97  4253.66  4263.86
                             4419.03  4437.62  4449.72  4463.51  4469.02
                             4493.59  4515.80  4528.26  4533.05  4612.34
                             4612.65  4626.75  4627.54  4647.05  4653.89
                             4699.34  4700.93

 Zero-point correction=                           0.343844 (Hartree/Particle)
 Thermal correction to Energy=                    0.362811
 Thermal correction to Enthalpy=                  0.363755
 Thermal correction to Gibbs Free Energy=         0.295697
 Sum of electronic and zero-point Energies=          -1242.374959
 Sum of electronic and thermal Energies=             -1242.355991
 Sum of electronic and thermal Enthalpies=           -1242.355047
 Sum of electronic and thermal Free Energies=        -1242.423106

                     E (Thermal)             CV                S
                      KCal/Mol        Cal/Mol-Kelvin    Cal/Mol-Kelvin
 Total                  227.667             74.584            143.241
 Electronic               0.000              0.000              0.000
 Translational            0.889              2.981             42.994
 Rotational               0.889              2.981             34.694
 Vibrational            225.890             68.623             65.553
 Vibration     1          0.593              1.984              5.978
 Vibration     2          0.594              1.983              5.555
 Vibration     3          0.594              1.981              5.322
 Vibration     4          0.597              1.972              4.372
 Vibration     5          0.603              1.951              3.503
 Vibration     6          0.608              1.937              3.184
 Vibration     7          0.610              1.931              3.064
 Vibration     8          0.616              1.910              2.767
 Vibration     9          0.626              1.878              2.427
 Vibration    10          0.627              1.875              2.396
 Vibration    11          0.644              1.821              2.019
 Vibration    12          0.665              1.756              1.702
 Vibration    13          0.670              1.739              1.637
 Vibration    14          0.676              1.721              1.571
 Vibration    15          0.684              1.699              1.494
 Vibration    16          0.692              1.675              1.422
 Vibration    17          0.722              1.590              1.200
 Vibration    18          0.729              1.569              1.153
 Vibration    19          0.743              1.530              1.073
 Vibration    20          0.756              1.498              1.011
 Vibration    21          0.766              1.469              0.961
 Vibration    22          0.791              1.405              0.858
 Vibration    23          0.794              1.397              0.847
 Vibration    24          0.808              1.363              0.799
 Vibration    25          0.840              1.285              0.699
 Vibration    26          0.843              1.279              0.691
 Vibration    27          0.854              1.252              0.661
 Vibration    28          0.894              1.164              0.568
 Vibration    29          0.896              1.159              0.563
 Vibration    30          0.930              1.089              0.498
 Vibration    31          0.980              0.991              0.417

 Optimization completed.
    -- Stationary point found.
 Normal termination of Gaussian 16 at Wed Mar  2 06:51:10 2022.

 ------------------------------------------
 #p b3lyp/6-31G(d) geom=allcheck guess=read
 ------------------------------------------

 Structure from the checkpoint file:  "269.n.pdb.xyz.mst.wat.chk"
 -------------
 269.n.pdb.xyz
 -------------
 Charge =  0 Multiplicity = 1

 SCF Done:  E(RB3LYP) =  -1242.70085003     A.U. after   12 cycles
 Normal termination of Gaussian 16 at Wed Mar  2 06:54:59 2022.
 Gaussian 16:  ES64L-G16RevA.03 25-Dec-2016

 ----------------------------------------------------------------------
 #p b3lyp/6-31G(d) scrf=(iefpcm,read,solvent=water) geom=allcheck guess
 =read
 ----------------------------------------------------------------------

 Structure from the checkpoint file:  "269.n.pdb.xyz.mst.wat.chk"
 -------------
 269.n.pdb.xyz
 -------------
 Charge =  0 Multiplicity = 1

                         Standard orientation:
 ---------------------------------------------------------------------
 Center     Atomic      Atomic             Coordinates (Angstroms)
 Number     Number       Type             X           Y           Z
 ---------------------------------------------------------------------
      1          6           0        6.019697   -0.647844   -0.434228
      2          7           0        4.786322   -0.329611    0.278667
      3          6           0        4.972978    0.870370    1.089567
      4          6           0        3.672992   -0.190620   -0.663166
      5          6           0        2.304930   -0.158742    0.024139
      6          6           0        1.174085   -0.129721   -1.013502
      7          7           0       -0.185451   -0.053520   -0.453666
      8          6           0       -0.718561    1.201336   -0.146708
      9          6           0        0.101153    2.350426   -0.109290
     10          6           0       -0.413826    3.586136    0.261270
     11          6           0       -1.758317    3.736059    0.617259
     12          6           0       -2.585998    2.623365    0.559421
     13          6           0       -2.083526    1.374491    0.173525
     14         16           0       -3.295501    0.101452   -0.118203
     15          8           0       -3.619989    0.080646   -1.615120
     16          6           0       -2.207887   -1.264562    0.237530
     17          6           0       -0.833284   -1.236528   -0.087382
     18          6           0       -0.125193   -2.454827    0.007413
     19          6           0       -0.754004   -3.617385    0.435850
     20          6           0       -2.105871   -3.622177    0.795332
     21          6           0       -2.825030   -2.440583    0.682005
     22          1           0        6.329860    0.147175   -1.137053
     23          1           0        5.888423   -1.572024   -1.004230
     24          1           0        6.829995   -0.795115    0.285564
     25          1           0        5.806751    0.713873    1.779839
     26          1           0        5.195965    1.765353    0.479753
     27          1           0        4.077565    1.076663    1.679824
     28          1           0        3.793180    0.711261   -1.294734
     29          1           0        3.711618   -1.052522   -1.339140
     30          1           0        2.205779   -1.039530    0.665373
     31          1           0        2.223317    0.716478    0.674378
     32          1           0        1.214317   -1.017941   -1.646627
     33          1           0        1.294798    0.722758   -1.684370
     34          1           0        1.153960    2.275804   -0.340351
     35          1           0        0.252724    4.441494    0.287034
     36          1           0       -2.149211    4.700865    0.918417
     37          1           0       -3.642051    2.706925    0.797006
     38          1           0        0.929529   -2.489836   -0.224657
     39          1           0       -0.171256   -4.529713    0.504471
     40          1           0       -2.585786   -4.530767    1.141941
     41          1           0       -3.883676   -2.412852    0.920560
 ---------------------------------------------------------------------

 SCF Done:  E(RB3LYP) =  -1242.71777003     A.U. after   11 cycles

 The electronic state is 1-A.
 Alpha  occ. eigenvalues --  -88.99387 -19.11060 -14.39173 -14.32766 -10.25589
 Alpha  occ. eigenvalues --  -10.25583 -10.23091 -10.21983 -10.21979 -10.20919
 Alpha  occ. eigenvalues --  -10.20814 -10.20803 -10.20375 -10.20366 -10.20091
 Alpha  occ. eigenvalues --  -10.20070 -10.19792 -10.19788 -10.19490 -10.19488
 Alpha  occ. eigenvalues --  -10.18892  -8.03927  -6.00332  -6.00251  -5.99694
 Alpha  occ. eigenvalues --   -1.00561  -0.98304  -0.92016  -0.87184  -0.86149
 Alpha  occ. eigenvalues --   -0.80380  -0.78397  -0.77444  -0.75940  -0.73994
 Alpha  occ. eigenvalues --   -0.70453  -0.70163  -0.67786  -0.64393  -0.63814
 Alpha  occ. eigenvalues --   -0.61088  -0.60292  -0.57882  -0.56767  -0.56049
 Alpha  occ. eigenvalues --   -0.52084  -0.49235  -0.48837  -0.48281  -0.47654
 Alpha  occ. eigenvalues --   -0.47080  -0.46271  -0.45554  -0.45166  -0.44303
 Alpha  occ. eigenvalues --   -0.43790  -0.43530  -0.42665  -0.42309  -0.39920
 Alpha  occ. eigenvalues --   -0.39141  -0.38832  -0.38569  -0.38213  -0.37361
 Alpha  occ. eigenvalues --   -0.36924  -0.36730  -0.36174  -0.35941  -0.35700
 Alpha  occ. eigenvalues --   -0.34647  -0.33742  -0.32316  -0.27926  -0.27346
 Alpha  occ. eigenvalues --   -0.26723  -0.25603  -0.23754  -0.21942  -0.20937
 Alpha virt. eigenvalues --   -0.04118  -0.02469  -0.01089   0.00547   0.03680
 Alpha virt. eigenvalues --    0.06409   0.07790   0.08927   0.10649   0.10947
 Alpha virt. eigenvalues --    0.12001   0.12577   0.12795   0.13834   0.14209

 Mulliken charges:
               1
     1  C   -0.304108
     2  N   -0.406069
     3  C   -0.313655
     4  C   -0.116520
     5  C   -0.293609
     6  C   -0.185144
     7  N   -0.593054
     8  C    0.358082
     9  C   -0.182800
    10  C   -0.152313
    11  C   -0.139829
    12  C   -0.180163
    13  C   -0.206615
    14  S    0.721501
    15  O   -0.682336
    16  C   -0.206986
    17  C    0.357804
    18  C   -0.184147
    19  C   -0.151936
    20  C   -0.139923
    21  C   -0.180188
    22  H    0.126180
    23  H    0.157425
    24  H    0.156120
    25  H    0.158157
    26  H    0.126415
    27  H    0.162059
    28  H    0.123059
    29  H    0.151942
    30  H    0.160938
    31  H    0.163029
    32  H    0.185328
    33  H    0.185156
    34  H    0.166077
    35  H    0.164300
    36  H    0.158449
    37  H    0.173274
    38  H    0.168285
    39  H    0.164233
    40  H    0.158395
    41  H    0.173185
 Sum of Mulliken charges =  -0.00000

 Dipole moment (field-independent basis, Debye):
    X=              6.7337    Y=              0.4356    Z=              3.0020  Tot=              7.3854
 Quadrupole moment (field-independent basis, Debye-Ang):
   XX=           -136.3595   YY=           -110.2100   ZZ=           -139.5897
   XY=              3.2510   XZ=            -21.0258   YZ=              1.8281

 Normal termination of Gaussian 16 at Wed Mar  2 06:59:17 2022.
