 Gaussian 16, Revision A.03,

 ----------------------------------------------------------------------
 #p b3lyp/6-31G(d) opt=(MaxStep=10,MaxCycles=1000) freq scf=(MaxCycle=2
 000,NoVarAcc,NoIncFock) scrf=(iefpcm,read,solvent=water)
 ----------------------------------------------------------------------

 ------------
 27.n.pdb.xyz
 ------------
 Symbolic Z-matrix:
 Charge =  0 Multiplicity = 1

 SCF Done:  E(RB3LYP) =  -807.436510466     A.U. after   12 cycles
 SCF Done:  E(RB3LYP) =  -807.440812485     A.U. after   10 cycles
 SCF Done:  E(RB3LYP) =  -807.441351981     A.U. after   10 cycles
 SCF Done:  E(RB3LYP) =  -807.443295063     A.U. after   10 cycles
 SCF Done:  E(RB3LYP) =  -807.443934604     A.U. after   10 cycles
 SCF Done:  E(RB3LYP) =  -807.444269818     A.U. after   10 cycles
 SCF Done:  E(RB3LYP) =  -807.444302346     A.U. after    9 cycles
 SCF Done:  E(RB3LYP) =  -807.444309437     A.U. after    8 cycles
 SCF Done:  E(RB3LYP) =  -807.444327235     A.U. after    8 cycles
 SCF Done:  E(RB3LYP) =  -807.444339296     A.U. after    8 cycles
 SCF Done:  E(RB3LYP) =  -807.444342879     A.U. after    8 cycles
 SCF Done:  E(RB3LYP) =  -807.444345872     A.U. after    9 cycles
 SCF Done:  E(RB3LYP) =  -807.444344244     A.U. after    8 cycles
 SCF Done:  E(RB3LYP) =  -807.444343063     A.U. after    7 cycles
 SCF Done:  E(RB3LYP) =  -807.444345765     A.U. after    8 cycles
 SCF Done:  E(RB3LYP) =  -807.444343094     A.U. after    8 cycles
 Optimization completed.
    -- Stationary point found.
 Normal termination of Gaussian 16 at Wed Mar  2 04:11:05 2022.

 --------------------------------------------------------------------
 #P Geom=AllCheck Guess=TCheck SCRF=Check GenChk RB3LYP/6-31G(d) Freq
 --------------------------------------------------------------------

 Structure from the checkpoint file:  "27.n.pdb.xyz.mst.wat.chk"
 ------------
 27.n.pdb.xyz
 ------------
 Charge =  0 Multiplicity = 1

 SCF Done:  E(RB3LYP) =  -807.444343094     A.U. after    1 cycles

  Exact polarizability: 329.695  18.353 306.975  33.604  -5.304 177.900
 Approx polarizability: 357.259  16.969 324.737  41.516  -5.381 205.122

                      1                      2                      3
                      A                      A                      A
 Frequencies --     38.7507                64.0122                73.2825
 Red. masses --      4.8231                 3.2657                 3.8289
 Frc consts  --      0.0043                 0.0079                 0.0121
 IR Inten    --      0.5759                 1.1929                 1.1101

                      4                      5                      6
                      A                      A                      A
 Frequencies --    111.0105               126.3570               152.4537
 Red. masses --      3.2733                 3.3501                 3.2930
 Frc consts  --      0.0238                 0.0315                 0.0451
 IR Inten    --      0.5209                 0.8689                 0.6883

                      7                      8                      9
                      A                      A                      A
 Frequencies --    209.2745               229.1810               244.4354
 Red. masses --      3.7873                 2.4469                 3.0537
 Frc consts  --      0.0977                 0.0757                 0.1075
 IR Inten    --      3.9215                 0.1485                 1.3547

                     10                     11                     12
                      A                      A                      A
 Frequencies --    269.8816               297.6843               324.3000
 Red. masses --      1.4959                 3.4828                 4.1836
 Frc consts  --      0.0642                 0.1818                 0.2592
 IR Inten    --      0.8755                 1.5370                 0.8830

                     13                     14                     15
                      A                      A                      A
 Frequencies --    334.8277               352.3449               364.1724
 Red. masses --      3.7396                 2.4146                 3.3191
 Frc consts  --      0.2470                 0.1766                 0.2593
 IR Inten    --      7.9475                 5.9222                 0.4583

                     16                     17                     18
                      A                      A                      A
 Frequencies --    390.2483               415.5533               454.2653
 Red. masses --      2.5611                 2.7578                 3.4781
 Frc consts  --      0.2298                 0.2806                 0.4229
 IR Inten    --      6.3661                 4.3038                 0.6851

                     19                     20                     21
                      A                      A                      A
 Frequencies --    456.4463               474.8466               504.2013
 Red. masses --      2.9122                 3.6066                 4.3211
 Frc consts  --      0.3575                 0.4791                 0.6472
 IR Inten    --      6.8665                 4.9514                 0.9388

                     22                     23                     24
                      A                      A                      A
 Frequencies --    539.2563               549.4595               572.8563
 Red. masses --      3.4514                 3.4371                 4.3022
 Frc consts  --      0.5913                 0.6114                 0.8318
 IR Inten    --      0.2923                 0.5691                 7.3486

                     25                     26                     27
                      A                      A                      A
 Frequencies --    606.6113               630.0193               639.1496
 Red. masses --      4.8824                 4.3805                 3.4124
 Frc consts  --      1.0585                 1.0244                 0.8213
 IR Inten    --     11.2614                 7.1451                 3.0781

                     28                     29                     30
                      A                      A                      A
 Frequencies --    645.4079               709.8345               733.5071
 Red. masses --      4.2680                 3.1589                 3.5384
 Frc consts  --      1.0475                 0.9378                 1.1217
 IR Inten    --     29.6664                 7.4228                 2.1571

                     31                     32                     33
                      A                      A                      A
 Frequencies --    753.5426               760.3448               783.2281
 Red. masses --      2.6220                 1.4322                 1.6149
 Frc consts  --      0.8772                 0.4878                 0.5837
 IR Inten    --     46.2659                38.7200                38.2897

                     34                     35                     36
                      A                      A                      A
 Frequencies --    805.4051               824.3411               834.1514
 Red. masses --      3.5860                 2.2254                 3.1310
 Frc consts  --      1.3705                 0.8910                 1.2836
 IR Inten    --     24.4260                10.5806                11.8181

                     37                     38                     39
                      A                      A                      A
 Frequencies --    856.0642               863.8089               899.5850
 Red. masses --      1.5179                 3.1301                 1.5134
 Frc consts  --      0.6554                 1.3761                 0.7216
 IR Inten    --      6.9866                 3.1440                 1.0072

                     40                     41                     42
                      A                      A                      A
 Frequencies --    931.0259               944.8034               952.4347
 Red. masses --      1.5453                 2.2321                 1.5053
 Frc consts  --      0.7892                 1.1739                 0.8045
 IR Inten    --      1.2164                23.0356                 2.5985

                     43                     44                     45
                      A                      A                      A
 Frequencies --    958.5354               968.0817               972.4350
 Red. masses --      2.6921                 1.7120                 1.3300
 Frc consts  --      1.4573                 0.9453                 0.7410
 IR Inten    --      7.4270                 9.9066                 3.4740

                     46                     47                     48
                      A                      A                      A
 Frequencies --    975.3773               995.9865              1025.4554
 Red. masses --      2.3736                 1.2643                 2.1882
 Frc consts  --      1.3305                 0.7389                 1.3557
 IR Inten    --     14.5720                 0.0239                61.6680

                     49                     50                     51
                      A                      A                      A
 Frequencies --   1064.6840              1075.1532              1083.9945
 Red. masses --      2.5650                 2.3323                 2.2621
 Frc consts  --      1.7131                 1.5885                 1.5661
 IR Inten    --     26.7339                 4.1494                19.4506

                     52                     53                     54
                      A                      A                      A
 Frequencies --   1087.2081              1117.4899              1130.4835
 Red. masses --      2.3951                 2.1334                 1.9143
 Frc consts  --      1.6680                 1.5697                 1.4414
 IR Inten    --     40.2674                52.6959                21.9556

                     55                     56                     57
                      A                      A                      A
 Frequencies --   1140.3545              1166.7223              1174.0075
 Red. masses --      1.9774                 2.0827                 1.6610
 Frc consts  --      1.5150                 1.6703                 1.3488
 IR Inten    --      7.1197                26.3279                 9.2104

                     58                     59                     60
                      A                      A                      A
 Frequencies --   1186.6682              1190.2281              1193.6120
 Red. masses --      1.4620                 1.3311                 1.5953
 Frc consts  --      1.2130                 1.1110                 1.3391
 IR Inten    --      4.3017                 7.1624                25.4453

                     61                     62                     63
                      A                      A                      A
 Frequencies --   1205.5218              1221.8549              1223.3110
 Red. masses --      1.5226                 1.5659                 1.9644
 Frc consts  --      1.3038                 1.3774                 1.7320
 IR Inten    --     30.0766                91.7619                 7.4670

                     64                     65                     66
                      A                      A                      A
 Frequencies --   1245.0733              1255.4247              1272.1960
 Red. masses --      1.6159                 1.8688                 1.6478
 Frc consts  --      1.4759                 1.7354                 1.5713
 IR Inten    --     26.7158                 9.3476                49.5098

                     67                     68                     69
                      A                      A                      A
 Frequencies --   1291.2137              1308.9829              1313.0023
 Red. masses --      1.8902                 1.4680                 1.5889
 Frc consts  --      1.8568                 1.4820                 1.6139
 IR Inten    --    134.1298                12.5147                22.6403

                     70                     71                     72
                      A                      A                      A
 Frequencies --   1320.9996              1335.9205              1344.9910
 Red. masses --      1.7964                 3.4590                 1.9898
 Frc consts  --      1.8470                 3.6371                 2.1208
 IR Inten    --     19.2769                20.5041                16.6202

                     73                     74                     75
                      A                      A                      A
 Frequencies --   1359.3003              1374.1302              1398.1950
 Red. masses --      1.5462                 1.6574                 1.3646
 Frc consts  --      1.6833                 1.8439                 1.5717
 IR Inten    --     21.8488                30.2335                16.8494

                     76                     77                     78
                      A                      A                      A
 Frequencies --   1402.5073              1407.3798              1420.4233
 Red. masses --      1.6276                 1.4662                 1.5535
 Frc consts  --      1.8863                 1.7111                 1.8467
 IR Inten    --      7.2010               105.8331               137.3260

                     79                     80                     81
                      A                      A                      A
 Frequencies --   1436.0492              1480.2660              1494.2427
 Red. masses --      1.7304                 1.1795                 2.3838
 Frc consts  --      2.1025                 1.5228                 3.1358
 IR Inten    --     35.0520                 1.7889                98.0848

                     82                     83                     84
                      A                      A                      A
 Frequencies --   1500.3532              1510.2863              1511.4102
 Red. masses --      2.0229                 1.1931                 1.0786
 Frc consts  --      2.6829                 1.6034                 1.4516
 IR Inten    --      0.2937                20.5326                19.1018

                     85                     86                     87
                      A                      A                      A
 Frequencies --   1520.8362              1528.1779              1534.7773
 Red. masses --      1.1148                 1.0846                 1.1653
 Frc consts  --      1.5192                 1.4923                 1.6173
 IR Inten    --      1.1533                10.5490                19.0696

                     88                     89                     90
                      A                      A                      A
 Frequencies --   1536.6531              1542.4515              1545.6499
 Red. masses --      2.0289                 1.7610                 1.2862
 Frc consts  --      2.8227                 2.4685                 1.8104
 IR Inten    --     16.4150               254.8601                58.4833

                     91                     92                     93
                      A                      A                      A
 Frequencies --   1618.4964              1639.6807              1653.5984
 Red. masses --      5.6080                 5.8758                 5.4763
 Frc consts  --      8.6552                 9.3076                 8.8227
 IR Inten    --     30.2833                 0.9112               124.4722

                     94                     95                     96
                      A                      A                      A
 Frequencies --   1661.8612              2965.1873              2968.5023
 Red. masses --      5.8967                 1.0667                 1.0650
 Frc consts  --      9.5950                 5.5260                 5.5292
 IR Inten    --     12.8550                37.7085               218.9628

                     97                     98                     99
                      A                      A                      A
 Frequencies --   2980.2267              3017.0023              3037.0769
 Red. masses --      1.0716                 1.0722                 1.0751
 Frc consts  --      5.6077                 5.7502                 5.8429
 IR Inten    --    153.2725                37.2015               108.7704

                    100                    101                    102
                      A                      A                      A
 Frequencies --   3068.6682              3071.5724              3089.9667
 Red. masses --      1.0899                 1.0832                 1.0722
 Frc consts  --      6.0469                 6.0214                 6.0315
 IR Inten    --     99.3934                43.4103                65.9374

                    103                    104                    105
                      A                      A                      A
 Frequencies --   3104.9164              3116.2423              3134.7302
 Red. masses --      1.0901                 1.0900                 1.1042
 Frc consts  --      6.1916                 6.2365                 6.3930
 IR Inten    --     37.3116                50.8375                52.6908

                    106                    107                    108
                      A                      A                      A
 Frequencies --   3180.6785              3185.2272              3193.3792
 Red. masses --      1.0903                 1.0875                 1.0869
 Frc consts  --      6.4986                 6.5006                 6.5305
 IR Inten    --     21.7973                30.1207                12.8486

                    109                    110                    111
                      A                      A                      A
 Frequencies --   3198.9192              3203.4970              3216.8977
 Red. masses --      1.0877                 1.0885                 1.0930
 Frc consts  --      6.5580                 6.5817                 6.6644
 IR Inten    --     20.6324                18.5978                54.4876

                    112                    113                    114
                      A                      A                      A
 Frequencies --   3219.8531              3227.3423              3230.4973
 Red. masses --      1.0937                 1.0946                 1.0925
 Frc consts  --      6.6804                 6.7175                 6.7173
 IR Inten    --     61.7195                40.0272                32.2826

 - Thermochemistry -
 -------------------
 Temperature   298.150 Kelvin.  Pressure   1.00000 Atm.
 Atom     1 has atomic number  6 and mass  12.00000

 Molecular mass:   264.16265 amu.
 Principal axes and moments of inertia in atomic units:
                           1         2         3
     Eigenvalues --  4725.029014863.259718582.20586
           X            0.90103  -0.43374   0.00299
           Y            0.43375   0.90103  -0.00334
           Z           -0.00124   0.00431   0.99999
 This molecule is an asymmetric top.
 Rotational symmetry number  1.
 Warning -- assumption of classical behavior for rotation
           may cause significant error
 Rotational temperatures (Kelvin)      0.01833     0.01781     0.01009
 Rotational constants (GHZ):           0.38195     0.37110     0.21029
 Zero-point vibrational energy     909487.5 (Joules/Mol)
                                  217.37274 (Kcal/Mol)
 Warning -- explicit consideration of  25 degrees of freedom as
           vibrations may cause significant error
 Vibrational temperatures:     55.75    92.10   105.44   159.72   181.80
          (Kelvin)            219.35   301.10   329.74   351.69   388.30
                              428.30   466.60   481.74   506.95   523.96
                              561.48   597.89   653.59   656.72   683.20
                              725.43   775.87   790.55   824.21   872.78
                              906.46   919.59   928.60  1021.29  1055.35
                             1084.18  1093.97  1126.89  1158.80  1186.04
                             1200.16  1231.69  1242.83  1294.30  1339.54
                             1359.36  1370.34  1379.12  1392.85  1399.12
                             1403.35  1433.00  1475.40  1531.84  1546.91
                             1559.63  1564.25  1607.82  1626.51  1640.72
                             1678.65  1689.13  1707.35  1712.47  1717.34
                             1734.48  1757.98  1760.07  1791.38  1806.28
                             1830.41  1857.77  1883.33  1889.12  1900.62
                             1922.09  1935.14  1955.73  1977.07  2011.69
                             2017.90  2024.91  2043.67  2066.15  2129.77
                             2149.88  2158.67  2172.97  2174.58  2188.14
                             2198.71  2208.20  2210.90  2219.24  2223.85
                             2328.66  2359.13  2379.16  2391.05  4266.24
                             4271.01  4287.88  4340.79  4369.68  4415.13
                             4419.31  4445.77  4467.28  4483.58  4510.18
                             4576.29  4582.83  4594.56  4602.53  4609.12
                             4628.40  4632.65  4643.43  4647.97

 Zero-point correction=                           0.346406 (Hartree/Particle)
 Thermal correction to Energy=                    0.362152
 Thermal correction to Enthalpy=                  0.363096
 Thermal correction to Gibbs Free Energy=         0.303701
 Sum of electronic and zero-point Energies=           -807.097938
 Sum of electronic and thermal Energies=              -807.082191
 Sum of electronic and thermal Enthalpies=            -807.081247
 Sum of electronic and thermal Free Energies=         -807.140642

                     E (Thermal)             CV                S
                      KCal/Mol        Cal/Mol-Kelvin    Cal/Mol-Kelvin
 Total                  227.254             65.803            125.008
 Electronic               0.000              0.000              0.000
 Translational            0.889              2.981             42.614
 Rotational               0.889              2.981             33.644
 Vibrational            225.477             59.841             48.751
 Vibration     1          0.594              1.981              5.322
 Vibration     2          0.597              1.971              4.330
 Vibration     3          0.599              1.967              4.063
 Vibration     4          0.607              1.940              3.251
 Vibration     5          0.611              1.927              3.001
 Vibration     6          0.619              1.900              2.641
 Vibration     7          0.642              1.827              2.050
 Vibration     8          0.652              1.796              1.885
 Vibration     9          0.660              1.772              1.770
 Vibration    10          0.674              1.729              1.597
 Vibration    11          0.691              1.678              1.430
 Vibration    12          0.709              1.627              1.288
 Vibration    13          0.716              1.606              1.237
 Vibration    14          0.729              1.570              1.156
 Vibration    15          0.738              1.546              1.104
 Vibration    16          0.758              1.491              0.999
 Vibration    17          0.779              1.436              0.907
 Vibration    18          0.813              1.351              0.783
 Vibration    19          0.815              1.347              0.777
 Vibration    20          0.832              1.306              0.724
 Vibration    21          0.859              1.241              0.648
 Vibration    22          0.894              1.163              0.567
 Vibration    23          0.905              1.141              0.545
 Vibration    24          0.929              1.090              0.499
 Vibration    25          0.965              1.018              0.438

 Optimization completed.
    -- Stationary point found.
 Normal termination of Gaussian 16 at Wed Mar  2 05:09:22 2022.

 ------------------------------------------
 #p b3lyp/6-31G(d) geom=allcheck guess=read
 ------------------------------------------

 Structure from the checkpoint file:  "27.n.pdb.xyz.mst.wat.chk"
 ------------
 27.n.pdb.xyz
 ------------
 Charge =  0 Multiplicity = 1

 SCF Done:  E(RB3LYP) =  -807.436809944     A.U. after   11 cycles
 Normal termination of Gaussian 16 at Wed Mar  2 05:13:11 2022.
 Gaussian 16:  ES64L-G16RevA.03 25-Dec-2016

 ----------------------------------------------------------------------
 #p b3lyp/6-31G(d) scrf=(iefpcm,read,solvent=water) geom=allcheck guess
 =read
 ----------------------------------------------------------------------

 Structure from the checkpoint file:  "27.n.pdb.xyz.mst.wat.chk"
 ------------
 27.n.pdb.xyz
 ------------
 Charge =  0 Multiplicity = 1

                         Standard orientation:
 ---------------------------------------------------------------------
 Center     Atomic      Atomic             Coordinates (Angstroms)
 Number     Number       Type             X           Y           Z
 ---------------------------------------------------------------------
      1          6           0        4.160705   -1.579911   -0.964721
      2          7           0        2.779503   -1.328432   -0.583266
      3          6           0        2.447402   -1.977561    0.695836
      4          6           0        1.244220   -1.266786    1.339304
      5          7           0        0.326302   -0.771462    0.325892
      6          6           0        0.920475    0.260801   -0.545887
      7          6           0        2.454038    0.095047   -0.542560
      8          6           0        0.401406    1.639644   -0.166390
      9          6           0        1.154959    2.619433    0.484921
     10          6           0        0.575862    3.836787    0.857185
     11          6           0       -0.767761    4.080167    0.580761
     12          6           0       -1.525824    3.105890   -0.074351
     13          6           0       -0.955021    1.889904   -0.455047
     14          6           0       -1.764276    0.858416   -1.211013
     15          6           0       -1.978665   -0.491915   -0.528404
     16          6           0       -3.268116   -1.030074   -0.615317
     17          6           0       -3.624474   -2.255116   -0.054448
     18          6           0       -2.642108   -2.979921    0.618095
     19          6           0       -1.347712   -2.482132    0.718088
     20          6           0       -0.975517   -1.232315    0.166165
     21          1           0        4.362000   -1.133616   -1.943063
     22          1           0        4.328357   -2.659104   -1.037284
     23          1           0        4.890249   -1.173563   -0.241259
     24          1           0        2.229952   -3.035201    0.506634
     25          1           0        3.295925   -1.936264    1.401551
     26          1           0        0.729334   -1.922248    2.037557
     27          1           0        1.603694   -0.412374    1.926688
     28          1           0        0.594682    0.036688   -1.566221
     29          1           0        2.857475    0.576586   -1.436839
     30          1           0        2.915220    0.595906    0.324459
     31          1           0        2.201605    2.443984    0.706235
     32          1           0        1.176185    4.587139    1.361608
     33          1           0       -1.224882    5.021738    0.867583
     34          1           0       -2.571359    3.292572   -0.302027
     35          1           0       -1.302741    0.702205   -2.196552
     36          1           0       -2.751676    1.280119   -1.416561
     37          1           0       -4.021346   -0.446981   -1.138416
     38          1           0       -4.639226   -2.627859   -0.140369
     39          1           0       -2.872025   -3.944871    1.059471
     40          1           0       -0.599613   -3.087742    1.215123
 ---------------------------------------------------------------------

 SCF Done:  E(RB3LYP) =  -807.443696583     A.U. after   10 cycles

 The electronic state is 1-A.
 Alpha  occ. eigenvalues --  -14.34577 -14.32733 -10.23087 -10.22701 -10.21659
 Alpha  occ. eigenvalues --  -10.21131 -10.20664 -10.19963 -10.19643 -10.19433
 Alpha  occ. eigenvalues --  -10.19281 -10.19160 -10.18988 -10.18948 -10.18879
 Alpha  occ. eigenvalues --  -10.18807 -10.18458 -10.18321 -10.17971 -10.17541
 Alpha  occ. eigenvalues --   -0.95958  -0.91244  -0.85997  -0.84341  -0.79205
 Alpha  occ. eigenvalues --   -0.77847  -0.75493  -0.74077  -0.73280  -0.70672
 Alpha  occ. eigenvalues --   -0.67489  -0.65956  -0.64753  -0.60067  -0.59588
 Alpha  occ. eigenvalues --   -0.58724  -0.57543  -0.54308  -0.52348  -0.51117
 Alpha  occ. eigenvalues --   -0.49385  -0.48070  -0.47487  -0.46110  -0.45718
 Alpha  occ. eigenvalues --   -0.45083  -0.43757  -0.43237  -0.42494  -0.42069
 Alpha  occ. eigenvalues --   -0.41496  -0.40727  -0.40152  -0.39627  -0.38135
 Alpha  occ. eigenvalues --   -0.37571  -0.36966  -0.36739  -0.35662  -0.35463
 Alpha  occ. eigenvalues --   -0.34878  -0.34066  -0.33864  -0.33006  -0.32881
 Alpha  occ. eigenvalues --   -0.28184  -0.25133  -0.24269  -0.24158  -0.21661
 Alpha  occ. eigenvalues --   -0.18328
 Alpha virt. eigenvalues --   -0.00880  -0.00243   0.00589   0.01284   0.08344
 Alpha virt. eigenvalues --    0.09650   0.10243   0.10391   0.11333   0.12498
 Alpha virt. eigenvalues --    0.13660   0.13777   0.14599   0.15363   0.15577

 Mulliken charges:
               1
     1  C   -0.303437
     2  N   -0.419039
     3  C   -0.107594
     4  C   -0.183165
     5  N   -0.502709
     6  C   -0.064680
     7  C   -0.171223
     8  C    0.132305
     9  C   -0.217912
    10  C   -0.155439
    11  C   -0.145422
    12  C   -0.211217
    13  C    0.127092
    14  C   -0.462348
    15  C    0.127983
    16  C   -0.224213
    17  C   -0.165724
    18  C   -0.162129
    19  C   -0.223802
    20  C    0.299991
    21  H    0.158104
    22  H    0.158061
    23  H    0.128403
    24  H    0.150235
    25  H    0.126726
    26  H    0.176634
    27  H    0.161139
    28  H    0.165415
    29  H    0.168699
    30  H    0.140701
    31  H    0.149645
    32  H    0.147741
    33  H    0.147921
    34  H    0.145062
    35  H    0.178460
    36  H    0.167500
    37  H    0.138035
    38  H    0.136028
    39  H    0.141565
    40  H    0.146607
 Sum of Mulliken charges =  -0.00000

 Dipole moment (field-independent basis, Debye):
    X=              2.7640    Y=              0.9321    Z=              0.5036  Tot=              2.9601
 Quadrupole moment (field-independent basis, Debye-Ang):
   XX=           -106.9103   YY=           -112.5881   ZZ=           -117.1821
   XY=             -3.6677   XZ=              4.1573   YZ=             -3.6557

 Normal termination of Gaussian 16 at Wed Mar  2 05:17:21 2022.
