 Gaussian 16, Revision A.03,

 ----------------------------------------------------------------------
 #p b3lyp/6-31G(d) opt=(MaxStep=10,MaxCycles=1000) freq scf=(MaxCycle=2
 000,NoVarAcc,NoIncFock) scrf=(iefpcm,read,solvent=water)
 ----------------------------------------------------------------------

 -------------
 270.n.pdb.xyz
 -------------
 Symbolic Z-matrix:
 Charge =  0 Multiplicity = 1

 SCF Done:  E(RB3LYP) =  -798.699864293     A.U. after   13 cycles
 SCF Done:  E(RB3LYP) =  -798.704434670     A.U. after   10 cycles
 SCF Done:  E(RB3LYP) =  -798.707562424     A.U. after   11 cycles
 SCF Done:  E(RB3LYP) =  -798.707904379     A.U. after   10 cycles
 SCF Done:  E(RB3LYP) =  -798.708102467     A.U. after   10 cycles
 SCF Done:  E(RB3LYP) =  -798.708242754     A.U. after   10 cycles
 SCF Done:  E(RB3LYP) =  -798.708423219     A.U. after   11 cycles
 SCF Done:  E(RB3LYP) =  -798.708448749     A.U. after   11 cycles
 SCF Done:  E(RB3LYP) =  -798.708487676     A.U. after   10 cycles
 SCF Done:  E(RB3LYP) =  -798.708401827     A.U. after   10 cycles
 SCF Done:  E(RB3LYP) =  -798.708923360     A.U. after   10 cycles
 SCF Done:  E(RB3LYP) =  -798.708927520     A.U. after   10 cycles
 SCF Done:  E(RB3LYP) =  -798.708942636     A.U. after    8 cycles
 SCF Done:  E(RB3LYP) =  -798.708945014     A.U. after    8 cycles
 SCF Done:  E(RB3LYP) =  -798.708942637     A.U. after    7 cycles
 SCF Done:  E(RB3LYP) =  -798.708941770     A.U. after    7 cycles
 SCF Done:  E(RB3LYP) =  -798.708941111     A.U. after    7 cycles
 Optimization completed.
    -- Stationary point found.
 Normal termination of Gaussian 16 at Tue Mar  1 05:19:35 2022.

 --------------------------------------------------------------------
 #P Geom=AllCheck Guess=TCheck SCRF=Check GenChk RB3LYP/6-31G(d) Freq
 --------------------------------------------------------------------

 Structure from the checkpoint file:  "270.n.pdb.xyz.mst.wat.chk"
 -------------
 270.n.pdb.xyz
 -------------
 Charge =  0 Multiplicity = 1

 SCF Done:  E(RB3LYP) =  -798.708941111     A.U. after    1 cycles

  Exact polarizability: 219.220  -0.501 173.970  -6.983  -4.326 112.723
 Approx polarizability: 240.346   2.823 196.709 -10.657  -6.661 127.191

                      1                      2                      3
                      A                      A                      A
 Frequencies --     32.6779                45.0842                68.2008
 Red. masses --      4.3841                 7.0886                 6.1927
 Frc consts  --      0.0028                 0.0085                 0.0170
 IR Inten    --      1.3919                 1.1873                 1.1745

                      4                      5                      6
                      A                      A                      A
 Frequencies --    102.0998               121.0521               155.2509
 Red. masses --      5.5383                 4.3056                 3.5316
 Frc consts  --      0.0340                 0.0372                 0.0502
 IR Inten    --      1.5619                 3.5389                 3.3112

                      7                      8                      9
                      A                      A                      A
 Frequencies --    165.9364               176.7854               215.4188
 Red. masses --      5.5110                 1.1378                 3.2447
 Frc consts  --      0.0894                 0.0210                 0.0887
 IR Inten    --      6.5880                 2.0677                18.1670

                     10                     11                     12
                      A                      A                      A
 Frequencies --    243.4242               266.6230               290.4345
 Red. masses --      5.1025                 3.5471                 4.0920
 Frc consts  --      0.1781                 0.1486                 0.2034
 IR Inten    --     10.0597                 1.1547                 7.7298

                     13                     14                     15
                      A                      A                      A
 Frequencies --    315.1205               372.8723               374.7073
 Red. masses --      3.6802                 1.2635                 3.4330
 Frc consts  --      0.2153                 0.1035                 0.2840
 IR Inten    --     24.5478               202.0474                11.5648

                     16                     17                     18
                      A                      A                      A
 Frequencies --    407.0298               422.9347               473.8692
 Red. masses --      8.2015                 3.9161                 3.9009
 Frc consts  --      0.8006                 0.4127                 0.5161
 IR Inten    --     31.8386                 5.8371                37.2115

                     19                     20                     21
                      A                      A                      A
 Frequencies --    504.7632               525.4436               596.5205
 Red. masses --      5.2116                 3.9408                 5.9404
 Frc consts  --      0.7823                 0.6410                 1.2454
 IR Inten    --      8.0477                19.6731                32.5288

                     22                     23                     24
                      A                      A                      A
 Frequencies --    647.3212               667.3933               725.4676
 Red. masses --      5.5293                 1.1415                 2.5905
 Frc consts  --      1.3651                 0.2996                 0.8033
 IR Inten    --      3.3582               123.5711                 2.9592

                     25                     26                     27
                      A                      A                      A
 Frequencies --    750.4544               764.2597               765.5031
 Red. masses --     10.8632                 3.5532                 5.5686
 Frc consts  --      3.6046                 1.2228                 1.9226
 IR Inten    --     48.7847                13.2844                49.7583

                     28                     29                     30
                      A                      A                      A
 Frequencies --    774.9865               784.7506               825.3689
 Red. masses --      5.0112                 3.3676                 4.6127
 Frc consts  --      1.7733                 1.2219                 1.8514
 IR Inten    --      9.3470               117.7910                14.3150

                     31                     32                     33
                      A                      A                      A
 Frequencies --    873.5081               911.7839               936.7963
 Red. masses --      2.4238                 3.3357                 1.3674
 Frc consts  --      1.0897                 1.6339                 0.7070
 IR Inten    --     15.9953                51.2896                23.9192

                     34                     35                     36
                      A                      A                      A
 Frequencies --    948.5067               968.2655              1008.0311
 Red. masses --      3.2797                 1.2801                 2.3501
 Frc consts  --      1.7385                 0.7071                 1.4070
 IR Inten    --     38.5666                 3.1643                 7.6908

                     37                     38                     39
                      A                      A                      A
 Frequencies --   1032.8844              1036.0650              1075.0339
 Red. masses --      1.8079                 2.1240                 1.4803
 Frc consts  --      1.1364                 1.3433                 1.0080
 IR Inten    --     10.1378               102.6730                31.0440

                     40                     41                     42
                      A                      A                      A
 Frequencies --   1077.7273              1090.2398              1101.0632
 Red. masses --      5.0902                 1.9591                 2.8657
 Frc consts  --      3.4834                 1.3720                 2.0470
 IR Inten    --    694.9227                 3.3733                11.6739

                     43                     44                     45
                      A                      A                      A
 Frequencies --   1118.2225              1145.6298              1190.7841
 Red. masses --      1.7656                 1.9431                 4.1634
 Frc consts  --      1.3007                 1.5026                 3.4783
 IR Inten    --      5.6958                59.6265                21.7772

                     46                     47                     48
                      A                      A                      A
 Frequencies --   1200.3128              1244.6262              1272.1654
 Red. masses --      1.3049                 5.0460                 1.9273
 Frc consts  --      1.1077                 4.6055                 1.8378
 IR Inten    --     16.9767               148.5184               318.0555

                     49                     50                     51
                      A                      A                      A
 Frequencies --   1307.4132              1344.3466              1376.4702
 Red. masses --      1.2453                 1.2975                 1.6454
 Frc consts  --      1.2542                 1.3816                 1.8368
 IR Inten    --     25.2520                 9.6291                13.4586

                     52                     53                     54
                      A                      A                      A
 Frequencies --   1393.0709              1399.8721              1409.5613
 Red. masses --      1.9741                 1.6759                 1.4017
 Frc consts  --      2.2572                 1.9350                 1.6409
 IR Inten    --    110.7541                12.9658                 1.9616

                     55                     56                     57
                      A                      A                      A
 Frequencies --   1414.4157              1426.6870              1431.2076
 Red. masses --      1.2852                 1.4702                 1.5445
 Frc consts  --      1.5149                 1.7631                 1.8640
 IR Inten    --    100.8063                53.3563                 3.4587

                     58                     59                     60
                      A                      A                      A
 Frequencies --   1436.9232              1487.7080              1491.2910
 Red. masses --      1.8140                 2.2822                 1.0576
 Frc consts  --      2.2067                 2.9761                 1.3858
 IR Inten    --     56.3830               233.6488                14.0891

                     61                     62                     63
                      A                      A                      A
 Frequencies --   1509.0742              1522.2750              1700.0446
 Red. masses --      1.1978                 1.0911                 6.6781
 Frc consts  --      1.6072                 1.4897                11.3717
 IR Inten    --     70.4040                 0.3380                34.2281

                     64                     65                     66
                      A                      A                      A
 Frequencies --   1706.0279              1729.0177              1762.4348
 Red. masses --      6.4401                 7.2442                11.9919
 Frc consts  --     11.0437                12.7597                21.9464
 IR Inten    --     58.5299              1715.7062               633.3258

                     67                     68                     69
                      A                      A                      A
 Frequencies --   3034.9171              3044.0518              3059.3915
 Red. masses --      1.0821                 1.0653                 1.0366
 Frc consts  --      5.8721                 5.8158                 5.7165
 IR Inten    --     81.5643                80.2331                45.0741

                     70                     71                     72
                      A                      A                      A
 Frequencies --   3112.6759              3120.6896              3139.7536
 Red. masses --      1.1015                 1.1012                 1.0852
 Frc consts  --      6.2881                 6.3187                 6.3033
 IR Inten    --     27.9426                65.4757                13.6239

                     73                     74                     75
                      A                      A                      A
 Frequencies --   3145.2331              3252.0062              3256.1385
 Red. masses --      1.1024                 1.0922                 1.0873
 Frc consts  --      6.4252                 6.8052                 6.7921
 IR Inten    --     26.0322                 6.6901                 1.3932

                     76                     77                     78
                      A                      A                      A
 Frequencies --   3276.2433              3577.8453              3698.4076
 Red. masses --      1.1061                 1.0784                 1.0666
 Frc consts  --      6.9949                 8.1334                 8.5954
 IR Inten    --      5.1019               166.1047                86.7871

 - Thermochemistry -
 -------------------
 Temperature   298.150 Kelvin.  Pressure   1.00000 Atm.
 Atom     1 has atomic number  6 and mass  12.00000

 Molecular mass:   224.07971 amu.
 Principal axes and moments of inertia in atomic units:
                           1         2         3
     Eigenvalues --  1601.603826434.476187363.98672
           X            0.99996   0.00853   0.00330
           Y           -0.00853   0.99996  -0.00025
           Z           -0.00330   0.00022   0.99999
 This molecule is an asymmetric top.
 Rotational symmetry number  1.
 Warning -- assumption of classical behavior for rotation
           may cause significant error
 Rotational temperatures (Kelvin)      0.05408     0.01346     0.01176
 Rotational constants (GHZ):           1.12683     0.28048     0.24508
 Zero-point vibrational energy     582453.3 (Joules/Mol)
                                  139.20969 (Kcal/Mol)
 Warning -- explicit consideration of  21 degrees of freedom as
           vibrations may cause significant error
 Vibrational temperatures:     47.02    64.87    98.13   146.90   174.17
          (Kelvin)            223.37   238.75   254.35   309.94   350.23
                              383.61   417.87   453.39   536.48   539.12
                              585.63   608.51   681.79   726.24   756.00
                              858.26   931.35   960.23  1043.79  1079.74
                             1099.60  1101.39  1115.03  1129.08  1187.52
                             1256.78  1311.85  1347.84  1364.69  1393.12
                             1450.33  1486.09  1490.67  1546.73  1550.61
                             1568.61  1584.18  1608.87  1648.31  1713.27
                             1726.98  1790.74  1830.36  1881.08  1934.21
                             1980.43  2004.32  2014.10  2028.04  2035.03
                             2052.68  2059.19  2067.41  2140.48  2145.64
                             2171.22  2190.21  2445.98  2454.59  2487.67
                             2535.75  4366.57  4379.71  4401.78  4478.45
                             4489.98  4517.41  4525.29  4678.91  4684.86
                             4713.78  5147.72  5321.18

 Zero-point correction=                           0.221845 (Hartree/Particle)
 Thermal correction to Energy=                    0.236427
 Thermal correction to Enthalpy=                  0.237371
 Thermal correction to Gibbs Free Energy=         0.179288
 Sum of electronic and zero-point Energies=           -798.487096
 Sum of electronic and thermal Energies=              -798.472514
 Sum of electronic and thermal Enthalpies=            -798.471570
 Sum of electronic and thermal Free Energies=         -798.529653

                     E (Thermal)             CV                S
                      KCal/Mol        Cal/Mol-Kelvin    Cal/Mol-Kelvin
 Total                  148.360             54.865            122.247
 Electronic               0.000              0.000              0.000
 Translational            0.889              2.981             42.123
 Rotational               0.889              2.981             32.695
 Vibrational            146.583             48.904             47.429
 Vibration     1          0.594              1.983              5.660
 Vibration     2          0.595              1.979              5.022
 Vibration     3          0.598              1.969              4.205
 Vibration     4          0.604              1.947              3.414
 Vibration     5          0.609              1.932              3.084
 Vibration     6          0.620              1.897              2.607
 Vibration     7          0.624              1.884              2.481
 Vibration     8          0.628              1.871              2.362
 Vibration     9          0.645              1.818              1.997
 Vibration    10          0.659              1.774              1.778
 Vibration    11          0.672              1.734              1.618
 Vibration    12          0.686              1.692              1.471
 Vibration    13          0.702              1.645              1.335
 Vibration    14          0.744              1.528              1.068
 Vibration    15          0.746              1.524              1.060
 Vibration    16          0.772              1.455              0.937
 Vibration    17          0.785              1.420              0.882
 Vibration    18          0.831              1.308              0.727
 Vibration    19          0.860              1.239              0.646
 Vibration    20          0.880              1.194              0.597
 Vibration    21          0.954              1.039              0.456

 Optimization completed.
    -- Stationary point found.
 Normal termination of Gaussian 16 at Tue Mar  1 05:41:54 2022.

 ------------------------------------------
 #p b3lyp/6-31G(d) geom=allcheck guess=read
 ------------------------------------------

 Structure from the checkpoint file:  "270.n.pdb.xyz.mst.wat.chk"
 -------------
 270.n.pdb.xyz
 -------------
 Charge =  0 Multiplicity = 1

 SCF Done:  E(RB3LYP) =  -798.681518284     A.U. after   12 cycles
 Normal termination of Gaussian 16 at Tue Mar  1 05:43:50 2022.
 Gaussian 16:  ES64L-G16RevA.03 25-Dec-2016

 ----------------------------------------------------------------------
 #p b3lyp/6-31G(d) scrf=(iefpcm,read,solvent=water) geom=allcheck guess
 =read
 ----------------------------------------------------------------------

 Structure from the checkpoint file:  "270.n.pdb.xyz.mst.wat.chk"
 -------------
 270.n.pdb.xyz
 -------------
 Charge =  0 Multiplicity = 1

                         Standard orientation:
 ---------------------------------------------------------------------
 Center     Atomic      Atomic             Coordinates (Angstroms)
 Number     Number       Type             X           Y           Z
 ---------------------------------------------------------------------
      1          6           0        2.667802    2.640485   -0.030429
      2          6           0        2.241854    1.202314   -0.006034
      3          6           0        0.974134    0.805772    0.249460
      4          7           0        0.571504   -0.513887    0.285222
      5          6           0       -0.853360   -0.848675    0.481252
      6          8           0       -1.604754   -0.509676   -0.681298
      7          6           0       -2.651539    0.427485   -0.352086
      8          6           0       -4.000605   -0.175631   -0.767483
      9          8           0       -5.072357    0.719092   -0.512615
     10          6           0       -2.506910    0.646924    1.124420
     11          6           0       -1.498297   -0.079497    1.600359
     12          6           0        1.461052   -1.550984    0.019077
     13          8           0        1.137784   -2.735124    0.007144
     14          7           0        2.753227   -1.133812   -0.224398
     15          6           0        3.240880    0.175089   -0.265744
     16          8           0        4.429229    0.387499   -0.507093
     17          1           0        3.081974    2.912002   -1.007313
     18          1           0        1.823228    3.300798    0.181347
     19          1           0        3.450098    2.832096    0.711169
     20          1           0        0.184309    1.515730    0.460433
     21          1           0       -0.857819   -1.929839    0.621296
     22          1           0       -2.495585    1.356264   -0.919327
     23          1           0       -3.950788   -0.464046   -1.825220
     24          1           0       -4.189862   -1.075959   -0.176929
     25          1           0       -4.990998    1.461512   -1.137986
     26          1           0       -3.163999    1.297805    1.685845
     27          1           0       -1.156277   -0.151018    2.624070
     28          1           0        3.423328   -1.875463   -0.409021
 ---------------------------------------------------------------------

 SCF Done:  E(RB3LYP) =  -798.707919884     A.U. after   11 cycles

 The electronic state is 1-A.
 Alpha  occ. eigenvalues --  -19.16634 -19.14906 -19.13285 -19.12815 -14.40072
 Alpha  occ. eigenvalues --  -14.38475 -10.33879 -10.30387 -10.28777 -10.25043
 Alpha  occ. eigenvalues --  -10.24650 -10.23278 -10.20520 -10.20272 -10.20074
 Alpha  occ. eigenvalues --  -10.18608  -1.07896  -1.05769  -1.04024  -1.01911
 Alpha  occ. eigenvalues --   -0.97435  -0.92609  -0.81538  -0.80396  -0.76659
 Alpha  occ. eigenvalues --   -0.71086  -0.68741  -0.67428  -0.63847  -0.59664
 Alpha  occ. eigenvalues --   -0.58551  -0.56535  -0.54062  -0.51931  -0.50851
 Alpha  occ. eigenvalues --   -0.49418  -0.48611  -0.47002  -0.46511  -0.44659
 Alpha  occ. eigenvalues --   -0.44003  -0.42739  -0.42196  -0.41786  -0.40923
 Alpha  occ. eigenvalues --   -0.39473  -0.38987  -0.38320  -0.37463  -0.35634
 Alpha  occ. eigenvalues --   -0.34407  -0.33700  -0.30176  -0.29007  -0.28676
 Alpha  occ. eigenvalues --   -0.28445  -0.26902  -0.25247  -0.23519
 Alpha virt. eigenvalues --   -0.03473  -0.00337   0.01261   0.08273   0.10198
 Alpha virt. eigenvalues --    0.10832   0.11889   0.12032   0.12489   0.14003
 Alpha virt. eigenvalues --    0.14825   0.15466   0.16855   0.17191   0.17260

 Mulliken charges:
               1
     1  C   -0.521618
     2  C    0.034450
     3  C    0.065484
     4  N   -0.498466
     5  C    0.219840
     6  O   -0.535240
     7  C    0.089102
     8  C   -0.045501
     9  O   -0.659604
    10  C   -0.122042
    11  C   -0.153300
    12  C    0.813956
    13  O   -0.573313
    14  N   -0.701975
    15  C    0.600738
    16  O   -0.574181
    17  H    0.172221
    18  H    0.168196
    19  H    0.172319
    20  H    0.198000
    21  H    0.191198
    22  H    0.160302
    23  H    0.149448
    24  H    0.154922
    25  H    0.441911
    26  H    0.177719
    27  H    0.178522
    28  H    0.396911
 Sum of Mulliken charges =  -0.00000

 Dipole moment (field-independent basis, Debye):
    X=             -4.3379    Y=              4.3252    Z=              1.3491  Tot=              6.2726
 Quadrupole moment (field-independent basis, Debye-Ang):
   XX=           -114.8724   YY=            -92.8149   ZZ=            -86.4469
   XY=             -9.4872   XZ=              6.8249   YZ=             -2.1092

 Normal termination of Gaussian 16 at Tue Mar  1 05:45:58 2022.
