 Gaussian 16, Revision A.03,

 ----------------------------------------------------------------------
 #p b3lyp/6-31G(d) opt=(MaxStep=10,MaxCycles=1000) freq scf=(MaxCycle=2
 000,NoVarAcc,NoIncFock) scrf=(iefpcm,read,solvent=water)
 ----------------------------------------------------------------------

 -------------
 271.n.pdb.xyz
 -------------
 Symbolic Z-matrix:
 Charge =  0 Multiplicity = 1

 SCF Done:  E(RB3LYP) =  -929.279631677     A.U. after   13 cycles
 SCF Done:  E(RB3LYP) =  -929.295954493     A.U. after   10 cycles
 SCF Done:  E(RB3LYP) =  -929.324641585     A.U. after   11 cycles
 SCF Done:  E(RB3LYP) =  -929.360755558     A.U. after   11 cycles
 SCF Done:  E(RB3LYP) =  -929.380682181     A.U. after   11 cycles
 SCF Done:  E(RB3LYP) =  -929.384159221     A.U. after   11 cycles
 SCF Done:  E(RB3LYP) =  -929.397803050     A.U. after   11 cycles
 SCF Done:  E(RB3LYP) =  -929.401961652     A.U. after   12 cycles
 SCF Done:  E(RB3LYP) =  -929.413164556     A.U. after   12 cycles
 SCF Done:  E(RB3LYP) =  -929.414273389     A.U. after   11 cycles
 SCF Done:  E(RB3LYP) =  -929.416089344     A.U. after    9 cycles
 SCF Done:  E(RB3LYP) =  -929.416125649     A.U. after    9 cycles
 SCF Done:  E(RB3LYP) =  -929.416109469     A.U. after    8 cycles
 SCF Done:  E(RB3LYP) =  -929.416108231     A.U. after    9 cycles
 SCF Done:  E(RB3LYP) =  -929.416109782     A.U. after    8 cycles
 SCF Done:  E(RB3LYP) =  -929.416109794     A.U. after    7 cycles
 SCF Done:  E(RB3LYP) =  -929.416109803     A.U. after    6 cycles
 Optimization completed.
    -- Stationary point found.
 Normal termination of Gaussian 16 at Tue Mar  1 08:02:23 2022.

 --------------------------------------------------------------------
 #P Geom=AllCheck Guess=TCheck SCRF=Check GenChk RB3LYP/6-31G(d) Freq
 --------------------------------------------------------------------

 Structure from the checkpoint file:  "271.n.pdb.xyz.mst.wat.chk"
 -------------
 271.n.pdb.xyz
 -------------
 Charge =  0 Multiplicity = 1

 SCF Done:  E(RB3LYP) =  -929.416109803     A.U. after    1 cycles

  Exact polarizability: 788.943  33.268 378.986   9.986  -1.542 174.255
 Approx polarizability: 772.313  44.046 427.843  12.695  -3.368 194.268

 ******    1 imaginary frequencies (negative Signs) ******

                      1                      2                      3
                      A                      A                      A
 Frequencies --     -2.0353                24.0939                27.7139
 Red. masses --      3.3248                 3.2382                 3.9980
 Frc consts  --      0.0000                 0.0011                 0.0018
 IR Inten    --      0.3598                 0.3416                 0.4335

                      4                      5                      6
                      A                      A                      A
 Frequencies --     35.6067                36.5446                56.0137
 Red. masses --      1.3914                 2.8094                 3.0710
 Frc consts  --      0.0010                 0.0022                 0.0057
 IR Inten    --      0.3218                 0.6361                 2.0164

                      7                      8                      9
                      A                      A                      A
 Frequencies --     73.1384                76.7139                79.8381
 Red. masses --      1.5840                 2.4119                 1.5422
 Frc consts  --      0.0050                 0.0084                 0.0058
 IR Inten    --      0.1418                 2.3283                 0.0447

                     10                     11                     12
                      A                      A                      A
 Frequencies --    100.6166               110.0603               127.0952
 Red. masses --      1.9373                 3.0371                 2.2618
 Frc consts  --      0.0116                 0.0217                 0.0215
 IR Inten    --      1.7108                 0.4922                 0.2727

                     13                     14                     15
                      A                      A                      A
 Frequencies --    132.1658               151.4274               182.5508
 Red. masses --      4.2494                 3.5436                 1.6736
 Frc consts  --      0.0437                 0.0479                 0.0329
 IR Inten    --      0.8132                 0.8712                 1.3230

                     16                     17                     18
                      A                      A                      A
 Frequencies --    201.0532               207.1627               221.7045
 Red. masses --      2.9986                 1.3061                 1.2891
 Frc consts  --      0.0714                 0.0330                 0.0373
 IR Inten    --      3.5476                 2.8442                 0.5160

                     19                     20                     21
                      A                      A                      A
 Frequencies --    254.7982               264.3057               266.9983
 Red. masses --      2.8617                 2.6910                 3.7894
 Frc consts  --      0.1095                 0.1108                 0.1592
 IR Inten    --     11.1029                 0.2952                11.5634

                     22                     23                     24
                      A                      A                      A
 Frequencies --    270.6897               288.8492               312.3839
 Red. masses --      2.4563                 2.4131                 2.6841
 Frc consts  --      0.1060                 0.1186                 0.1543
 IR Inten    --      5.7263                 0.2083                 0.2372

                     25                     26                     27
                      A                      A                      A
 Frequencies --    338.0570               355.4724               374.9458
 Red. masses --      2.9887                 2.9079                 2.7053
 Frc consts  --      0.2012                 0.2165                 0.2241
 IR Inten    --      0.5888                 0.7051                 2.3178

                     28                     29                     30
                      A                      A                      A
 Frequencies --    384.9715               398.5980               410.4086
 Red. masses --      2.7678                 2.9439                 2.4558
 Frc consts  --      0.2417                 0.2756                 0.2437
 IR Inten    --      5.3511                13.6925                 4.3030

                     31                     32                     33
                      A                      A                      A
 Frequencies --    417.9311               444.4864               469.0985
 Red. masses --      3.2513                 2.9983                 3.4216
 Frc consts  --      0.3346                 0.3490                 0.4436
 IR Inten    --      4.7385                25.1122                 7.7292

                     34                     35                     36
                      A                      A                      A
 Frequencies --    488.9559               513.8884               527.4925
 Red. masses --      3.2944                 3.1641                 3.0647
 Frc consts  --      0.4640                 0.4923                 0.5024
 IR Inten    --     17.3896                15.8436                 3.1857

                     37                     38                     39
                      A                      A                      A
 Frequencies --    552.5409               575.8505               579.6034
 Red. masses --      2.3870                 1.1320                 3.2252
 Frc consts  --      0.4294                 0.2212                 0.6384
 IR Inten    --      2.2244               165.6696                45.8325

                     40                     41                     42
                      A                      A                      A
 Frequencies --    581.9685               624.1658               668.2012
 Red. masses --      2.5774                 3.4895                 4.1702
 Frc consts  --      0.5143                 0.8010                 1.0970
 IR Inten    --     16.1542                17.9487                 4.7758

                     43                     44                     45
                      A                      A                      A
 Frequencies --    693.9643               706.5248               749.7958
 Red. masses --      3.6902                 3.3729                 4.2883
 Frc consts  --      1.0471                 0.9920                 1.4204
 IR Inten    --     33.0687                13.8260                36.3270

                     46                     47                     48
                      A                      A                      A
 Frequencies --    825.3912               846.9841               856.2646
 Red. masses --      2.3919                 1.9474                 2.0995
 Frc consts  --      0.9601                 0.8231                 0.9069
 IR Inten    --     12.6916                 1.9467                24.6328

                     49                     50                     51
                      A                      A                      A
 Frequencies --    859.1637               871.2164               881.9350
 Red. masses --      2.1002                 1.8411                 1.8596
 Frc consts  --      0.9134                 0.8233                 0.8522
 IR Inten    --     20.7903                18.8234                 4.8721

                     52                     53                     54
                      A                      A                      A
 Frequencies --    901.0530               909.0230               911.8282
 Red. masses --      2.3684                 1.6393                 2.5754
 Frc consts  --      1.1329                 0.7981                 1.2616
 IR Inten    --      7.7672                 5.9588                 3.9958

                     55                     56                     57
                      A                      A                      A
 Frequencies --    927.3835               945.6971               956.8920
 Red. masses --      1.7533                 1.5393                 2.0917
 Frc consts  --      0.8885                 0.8111                 1.1284
 IR Inten    --     11.9440                 0.9430                 1.1675

                     58                     59                     60
                      A                      A                      A
 Frequencies --    987.8937               998.0594              1007.2317
 Red. masses --      4.1689                 1.3988                 1.4772
 Frc consts  --      2.3971                 0.8210                 0.8830
 IR Inten    --      0.0885                10.3600                 5.2530

                     61                     62                     63
                      A                      A                      A
 Frequencies --   1010.5230              1014.4105              1023.9645
 Red. masses --      1.2232                 1.3547                 1.3370
 Frc consts  --      0.7359                 0.8213                 0.8260
 IR Inten    --     52.7131                35.3162                43.5490

                     64                     65                     66
                      A                      A                      A
 Frequencies --   1040.9220              1054.3347              1063.7040
 Red. masses --      1.2195                 1.5881                 1.4838
 Frc consts  --      0.7785                 1.0401                 0.9891
 IR Inten    --     30.1658                77.0344                17.4180

                     67                     68                     69
                      A                      A                      A
 Frequencies --   1070.8208              1072.8650              1076.3999
 Red. masses --      2.0381                 1.6429                 1.4926
 Frc consts  --      1.3769                 1.1142                 1.0189
 IR Inten    --     17.3720                16.3327                 0.0617

                     70                     71                     72
                      A                      A                      A
 Frequencies --   1081.9535              1128.5877              1148.9419
 Red. masses --      1.5099                 2.5308                 1.6535
 Frc consts  --      1.0414                 1.8992                 1.2860
 IR Inten    --     11.6064              2388.6717                 5.3799

                     73                     74                     75
                      A                      A                      A
 Frequencies --   1163.8898              1199.7974              1213.0043
 Red. masses --      2.6135                 2.1847                 2.3886
 Frc consts  --      2.0860                 1.8529                 2.0707
 IR Inten    --      3.5816                33.4695                71.8212

                     76                     77                     78
                      A                      A                      A
 Frequencies --   1222.1105              1229.8440              1237.2123
 Red. masses --      2.1339                 2.5819                 1.8662
 Frc consts  --      1.8778                 2.3009                 1.6831
 IR Inten    --    196.9749                 0.8113                 4.5838

                     79                     80                     81
                      A                      A                      A
 Frequencies --   1239.7450              1262.9640              1301.4112
 Red. masses --      2.0159                 1.5431                 1.3300
 Frc consts  --      1.8255                 1.4502                 1.3272
 IR Inten    --      4.6035                17.9308                21.0035

                     82                     83                     84
                      A                      A                      A
 Frequencies --   1311.6582              1333.7011              1338.8774
 Red. masses --      1.4591                 2.2723                 1.5800
 Frc consts  --      1.4790                 2.3814                 1.6688
 IR Inten    --     22.0417                47.3075               219.1780

                     85                     86                     87
                      A                      A                      A
 Frequencies --   1342.1389              1355.7972              1377.7128
 Red. masses --      1.4698                 2.7482                 1.4599
 Frc consts  --      1.5599                 2.9763                 1.6327
 IR Inten    --      4.1692                85.0774                 3.5723

                     88                     89                     90
                      A                      A                      A
 Frequencies --   1384.4525              1391.9161              1396.6547
 Red. masses --      1.4412                 1.7272                 1.4991
 Frc consts  --      1.6275                 1.9716                 1.7229
 IR Inten    --    327.5868               185.2105                21.5550

                     91                     92                     93
                      A                      A                      A
 Frequencies --   1402.3688              1408.7222              1416.1833
 Red. masses --      1.7419                 1.3767                 1.2225
 Frc consts  --      2.0184                 1.6097                 1.4446
 IR Inten    --     48.7285                69.2091                 6.1003

                     94                     95                     96
                      A                      A                      A
 Frequencies --   1430.0982              1432.4883              1436.4820
 Red. masses --      1.2992                 1.2689                 1.2428
 Frc consts  --      1.5655                 1.5341                 1.5110
 IR Inten    --     60.8137                46.8951                45.1812

                     97                     98                     99
                      A                      A                      A
 Frequencies --   1441.8722              1483.9507              1492.7317
 Red. masses --      1.6611                 1.1080                 1.0457
 Frc consts  --      2.0347                 1.4376                 1.3728
 IR Inten    --    215.7349                 8.5801                10.2229

                    100                    101                    102
                      A                      A                      A
 Frequencies --   1494.5348              1499.3160              1500.4049
 Red. masses --      1.1224                 1.0730                 1.0775
 Frc consts  --      1.4771                 1.4211                 1.4292
 IR Inten    --    428.4596                24.7485                 5.1431

                    103                    104                    105
                      A                      A                      A
 Frequencies --   1501.4022              1506.9614              1510.7925
 Red. masses --      1.1070                 1.0558                 1.0661
 Frc consts  --      1.4702                 1.4127                 1.4338
 IR Inten    --     64.7622                 1.9985                 2.2403

                    106                    107                    108
                      A                      A                      A
 Frequencies --   1516.4771              1516.8163              1519.6323
 Red. masses --      1.0492                 1.0629                 1.0788
 Frc consts  --      1.4216                 1.4408                 1.4678
 IR Inten    --     14.5969                 5.6276                 6.9163

                    109                    110                    111
                      A                      A                      A
 Frequencies --   1526.2955              1531.3501              1596.5240
 Red. masses --      1.0961                 1.0702                 3.1534
 Frc consts  --      1.5044                 1.4786                 4.7356
 IR Inten    --     82.2542                 3.4666              2500.5724

                    112                    113                    114
                      A                      A                      A
 Frequencies --   1637.6077              1640.0074              1646.2612
 Red. masses --      5.6285                 5.0845                 4.5922
 Frc consts  --      8.8933                 8.0573                 7.3328
 IR Inten    --     71.5235               372.9729               354.5143

                    115                    116                    117
                      A                      A                      A
 Frequencies --   1687.3391              1744.3606              3008.9350
 Red. masses --      4.7035                 8.5658                 1.0694
 Frc consts  --      7.8900                15.3564                 5.7047
 IR Inten    --     16.6015               764.0017                73.5851

                    118                    119                    120
                      A                      A                      A
 Frequencies --   3034.0772              3048.5532              3052.9243
 Red. masses --      1.0640                 1.0789                 1.0457
 Frc consts  --      5.7709                 5.9079                 5.7423
 IR Inten    --     63.4357                 9.5384                65.5667

                    121                    122                    123
                      A                      A                      A
 Frequencies --   3053.4037              3057.3386              3061.1959
 Red. masses --      1.0428                 1.0423                 1.0637
 Frc consts  --      5.7284                 5.7405                 5.8729
 IR Inten    --     42.2640                28.9890               136.4845

                    124                    125                    126
                      A                      A                      A
 Frequencies --   3063.3592              3066.9947              3083.3856
 Red. masses --      1.0487                 1.0425                 1.0958
 Frc consts  --      5.7983                 5.7777                 6.1379
 IR Inten    --     44.1855                29.6368               123.5327

                    127                    128                    129
                      A                      A                      A
 Frequencies --   3097.1022              3100.8141              3109.5595
 Red. masses --      1.1034                 1.0990                 1.0940
 Frc consts  --      6.2361                 6.2258                 6.2328
 IR Inten    --    107.5353                27.9551                39.7016

                    130                    131                    132
                      A                      A                      A
 Frequencies --   3117.3580              3118.2136              3121.1673
 Red. masses --      1.0991                 1.1020                 1.1009
 Frc consts  --      6.2930                 6.3132                 6.3188
 IR Inten    --     22.3591                59.8439                81.0105

                    133                    134                    135
                      A                      A                      A
 Frequencies --   3152.1101              3153.0084              3167.6468
 Red. masses --      1.0993                 1.0983                 1.0886
 Frc consts  --      6.4355                 6.4330                 6.4358
 IR Inten    --     25.6793                70.0813                 9.9263

                    136                    137                    138
                      A                      A                      A
 Frequencies --   3168.3614              3168.8513              3173.1638
 Red. masses --      1.0961                 1.0967                 1.0873
 Frc consts  --      6.4830                 6.4888                 6.4505
 IR Inten    --     34.2967                54.8724                17.1949

                    139                    140                    141
                      A                      A                      A
 Frequencies --   3206.6426              3210.2626              3212.7767
 Red. masses --      1.0885                 1.0968                 1.0870
 Frc consts  --      6.5945                 6.6596                 6.6104
 IR Inten    --     15.1495                 9.0149                39.8232

                    142                    143                    144
                      A                      A                      A
 Frequencies --   3214.6639              3229.3200              3668.9190
 Red. masses --      1.0846                 1.0847                 1.0647
 Frc consts  --      6.6039                 6.6649                 8.4438
 IR Inten    --      1.6621                81.0042               331.2730

 - Thermochemistry -
 -------------------
 Temperature   298.150 Kelvin.  Pressure   1.00000 Atm.
 Atom     1 has atomic number  6 and mass  12.00000

 Molecular mass:   300.20893 amu.
 Principal axes and moments of inertia in atomic units:
                           1         2         3
     Eigenvalues --  2925.23250********************
           X            0.99999  -0.00473  -0.00067
           Y            0.00473   0.99999  -0.00023
           Z            0.00067   0.00023   1.00000
 This molecule is an asymmetric top.
 Rotational symmetry number  1.
 Warning -- assumption of classical behavior for rotation
           may cause significant error
 Rotational temperatures (Kelvin)      0.02961     0.00369     0.00335
 Rotational constants (GHZ):           0.61696     0.07698     0.06981
    1 imaginary frequencies ignored.
 Zero-point vibrational energy    1145878.2 (Joules/Mol)
                                  273.87145 (Kcal/Mol)
 Warning -- explicit consideration of  39 degrees of freedom as
           vibrations may cause significant error
 Vibrational temperatures:     34.67    39.87    51.23    52.58    80.59
          (Kelvin)            105.23   110.37   114.87   144.76   158.35
                              182.86   190.16   217.87   262.65   289.27
                              298.06   318.98   366.60   380.28   384.15
                              389.46   415.59   449.45   486.39   511.45
                              539.46   553.89   573.49   590.49   601.31
                              639.52   674.93   703.50   739.37   758.94
                              794.98   828.52   833.92   837.32   898.04
                              961.39   998.46  1016.53  1078.79  1187.55
                             1218.62  1231.97  1236.14  1253.49  1268.91
                             1296.41  1307.88  1311.92  1334.30  1360.65
                             1376.75  1421.36  1435.98  1449.18  1453.92
                             1459.51  1473.26  1497.65  1516.95  1530.43
                             1540.67  1543.61  1548.70  1556.69  1623.79
                             1653.07  1674.58  1726.24  1745.24  1758.34
                             1769.47  1780.07  1783.72  1817.12  1872.44
                             1887.18  1918.90  1926.35  1931.04  1950.69
                             1982.22  1991.92  2002.66  2009.47  2017.70
                             2026.84  2037.57  2057.59  2061.03  2066.78
                             2074.53  2135.07  2147.71  2150.30  2157.18
                             2158.75  2160.18  2168.18  2173.69  2181.87
                             2182.36  2186.41  2196.00  2203.27  2297.04
                             2356.15  2359.60  2368.60  2427.70  2509.75
                             4329.19  4365.36  4386.19  4392.48  4393.17
                             4398.83  4404.38  4407.49  4412.72  4436.30
                             4456.04  4461.38  4473.96  4485.18  4486.41
                             4490.66  4535.18  4536.48  4557.54  4558.57
                             4559.27  4565.47  4613.64  4618.85  4622.47
                             4625.18  4646.27  5278.76

 Zero-point correction=                           0.436442 (Hartree/Particle)
 Thermal correction to Energy=                    0.460549
 Thermal correction to Enthalpy=                  0.461494
 Thermal correction to Gibbs Free Energy=         0.380888
 Sum of electronic and zero-point Energies=           -928.979668
 Sum of electronic and thermal Energies=              -928.955560
 Sum of electronic and thermal Enthalpies=            -928.954616
 Sum of electronic and thermal Free Energies=         -929.035222

                     E (Thermal)             CV                S
                      KCal/Mol        Cal/Mol-Kelvin    Cal/Mol-Kelvin
 Total                  288.999             90.328            169.650
 Electronic               0.000              0.000              0.000
 Translational            0.889              2.981             42.995
 Rotational               0.889              2.981             35.826
 Vibrational            287.222             84.367             90.829
 Vibration     1          0.593              1.985              6.264
 Vibration     2          0.593              1.984              5.987
 Vibration     3          0.594              1.982              5.490
 Vibration     4          0.594              1.982              5.438
 Vibration     5          0.596              1.975              4.593
 Vibration     6          0.599              1.967              4.067
 Vibration     7          0.599              1.965              3.973
 Vibration     8          0.600              1.963              3.895
 Vibration     9          0.604              1.949              3.442
 Vibration    10          0.606              1.941              3.268
 Vibration    11          0.611              1.926              2.990
 Vibration    12          0.612              1.921              2.914
 Vibration    13          0.619              1.901              2.654
 Vibration    14          0.630              1.864              2.302
 Vibration    15          0.638              1.838              2.123
 Vibration    16          0.641              1.830              2.069
 Vibration    17          0.648              1.808              1.945
 Vibration    18          0.665              1.755              1.697
 Vibration    19          0.671              1.738              1.633
 Vibration    20          0.672              1.734              1.616
 Vibration    21          0.674              1.727              1.592
 Vibration    22          0.685              1.694              1.481
 Vibration    23          0.701              1.650              1.350
 Vibration    24          0.718              1.599              1.221
 Vibration    25          0.731              1.564              1.142
 Vibration    26          0.746              1.523              1.059
 Vibration    27          0.754              1.502              1.020
 Vibration    28          0.765              1.473              0.968
 Vibration    29          0.775              1.448              0.925
 Vibration    30          0.781              1.431              0.899
 Vibration    31          0.804              1.373              0.813
 Vibration    32          0.826              1.319              0.740
 Vibration    33          0.845              1.275              0.686
 Vibration    34          0.869              1.219              0.624
 Vibration    35          0.882              1.189              0.593
 Vibration    36          0.908              1.134              0.539
 Vibration    37          0.932              1.083              0.493
 Vibration    38          0.936              1.075              0.486
 Vibration    39          0.939              1.070              0.482

                           ! Non-Optimized Parameters !
 Normal termination of Gaussian 16 at Tue Mar  1 09:06:28 2022.

 ------------------------------------------
 #p b3lyp/6-31G(d) geom=allcheck guess=read
 ------------------------------------------

 Structure from the checkpoint file:  "271.n.pdb.xyz.mst.wat.chk"
 -------------
 271.n.pdb.xyz
 -------------
 Charge =  0 Multiplicity = 1

 SCF Done:  E(RB3LYP) =  -929.403948708     A.U. after   12 cycles
 Normal termination of Gaussian 16 at Tue Mar  1 09:10:21 2022.
 Gaussian 16:  ES64L-G16RevA.03 25-Dec-2016

 ----------------------------------------------------------------------
 #p b3lyp/6-31G(d) scrf=(iefpcm,read,solvent=water) geom=allcheck guess
 =read
 ----------------------------------------------------------------------

 Structure from the checkpoint file:  "271.n.pdb.xyz.mst.wat.chk"
 -------------
 271.n.pdb.xyz
 -------------
 Charge =  0 Multiplicity = 1

                         Standard orientation:
 ---------------------------------------------------------------------
 Center     Atomic      Atomic             Coordinates (Angstroms)
 Number     Number       Type             X           Y           Z
 ---------------------------------------------------------------------
      1          6           0        0.215709   -3.122561   -0.026986
      2          6           0       -0.053417   -1.638445    0.026773
      3          6           0       -1.471603   -1.288460    0.042416
      4          6           0       -1.991603   -0.050827   -0.166711
      5          6           0       -3.376141    0.414778   -0.133536
      6          6           0       -3.593105    1.764983   -0.176812
      7          6           0       -2.515458    2.810801   -0.360839
      8          6           0       -4.955545    2.391598    0.005619
      9          6           0       -6.010601    1.431105    0.539927
     10          6           0       -5.907467    0.121093   -0.228487
     11          6           0       -4.547042   -0.588816   -0.029358
     12          6           0       -4.562700   -1.279237    1.353995
     13          6           0       -4.466811   -1.653261   -1.147482
     14          6           0        0.942641   -0.702387    0.068071
     15          6           0        2.353031   -0.948204    0.019695
     16          6           0        3.287612    0.041851    0.068064
     17          6           0        4.719736   -0.162937    0.020651
     18          6           0        5.244369   -1.572446   -0.076634
     19          6           0        5.519900    0.942791    0.073251
     20          6           0        6.979334    0.987839    0.037943
     21          8           0        7.415926    2.272802    0.105332
     22          8           0        7.772800    0.054644   -0.041476
     23          1           0       -0.135672   -3.543728   -0.976684
     24          1           0       -0.341988   -3.633889    0.765265
     25          1           0        1.269784   -3.375382    0.084766
     26          1           0       -2.129678   -2.128741    0.228011
     27          1           0       -1.265436    0.731041   -0.359484
     28          1           0       -2.113445    3.138596    0.606593
     29          1           0       -2.948445    3.697128   -0.834722
     30          1           0       -1.674673    2.487292   -0.976095
     31          1           0       -5.278744    2.805284   -0.962445
     32          1           0       -4.846305    3.263214    0.664397
     33          1           0       -5.847761    1.254995    1.609726
     34          1           0       -7.009849    1.866946    0.439075
     35          1           0       -6.048600    0.327807   -1.297818
     36          1           0       -6.699704   -0.576726    0.064784
     37          1           0       -5.372738   -2.015884    1.389938
     38          1           0       -4.734464   -0.550742    2.152540
     39          1           0       -3.627075   -1.796225    1.574755
     40          1           0       -4.417837   -1.172691   -2.130020
     41          1           0       -5.371289   -2.270813   -1.122411
     42          1           0       -3.608286   -2.318528   -1.055656
     43          1           0        0.657421    0.344134    0.150834
     44          1           0        2.694533   -1.974937   -0.064685
     45          1           0        2.950134    1.073856    0.146489
     46          1           0        4.967158   -2.141099    0.817895
     47          1           0        4.795024   -2.088821   -0.930657
     48          1           0        6.326406   -1.579827   -0.176728
     49          1           0        5.043933    1.915171    0.147072
     50          1           0        8.392751    2.247443    0.077054
 ---------------------------------------------------------------------

 SCF Done:  E(RB3LYP) =  -929.415292991     A.U. after   11 cycles

 The electronic state is 1-A.
 Alpha  occ. eigenvalues --  -19.18338 -19.13082 -10.31575 -10.21981 -10.20889
 Alpha  occ. eigenvalues --  -10.20051 -10.20034 -10.19781 -10.19332 -10.19047
 Alpha  occ. eigenvalues --  -10.19024 -10.18973 -10.18763 -10.18678 -10.18180
 Alpha  occ. eigenvalues --  -10.18175 -10.17923 -10.17704 -10.17464 -10.17232
 Alpha  occ. eigenvalues --  -10.16833 -10.16789  -1.09175  -1.00056  -0.85293
 Alpha  occ. eigenvalues --   -0.83956  -0.82254  -0.78813  -0.78144  -0.76101
 Alpha  occ. eigenvalues --   -0.72965  -0.71643  -0.68934  -0.68456  -0.68128
 Alpha  occ. eigenvalues --   -0.67232  -0.64509  -0.61551  -0.58546  -0.56980
 Alpha  occ. eigenvalues --   -0.56183  -0.53703  -0.51558  -0.50248  -0.49750
 Alpha  occ. eigenvalues --   -0.47523  -0.47449  -0.46905  -0.45599  -0.44526
 Alpha  occ. eigenvalues --   -0.43964  -0.43709  -0.42716  -0.42156  -0.41950
 Alpha  occ. eigenvalues --   -0.41862  -0.41534  -0.40964  -0.40413  -0.39998
 Alpha  occ. eigenvalues --   -0.39053  -0.38745  -0.38394  -0.38100  -0.37214
 Alpha  occ. eigenvalues --   -0.36762  -0.36183  -0.35755  -0.34958  -0.34675
 Alpha  occ. eigenvalues --   -0.34136  -0.33697  -0.33387  -0.31843  -0.31252
 Alpha  occ. eigenvalues --   -0.30683  -0.30337  -0.29065  -0.27608  -0.26915
 Alpha  occ. eigenvalues --   -0.23544  -0.18820
 Alpha virt. eigenvalues --   -0.08044  -0.02843   0.02557   0.06821   0.08696
 Alpha virt. eigenvalues --    0.09025   0.09518   0.10624   0.10966   0.11100
 Alpha virt. eigenvalues --    0.11220   0.12028   0.12515   0.12686   0.13786

 Mulliken charges:
               1
     1  C   -0.538934
     2  C    0.148130
     3  C   -0.204082
     4  C   -0.180584
     5  C    0.123573
     6  C    0.073672
     7  C   -0.531380
     8  C   -0.333437
     9  C   -0.276719
    10  C   -0.275919
    11  C    0.035573
    12  C   -0.465397
    13  C   -0.463880
    14  C   -0.209198
    15  C   -0.120702
    16  C   -0.208106
    17  C    0.221736
    18  C   -0.557813
    19  C   -0.289952
    20  C    0.569439
    21  O   -0.607242
    22  O   -0.548827
    23  H    0.175443
    24  H    0.172989
    25  H    0.170357
    26  H    0.141294
    27  H    0.138765
    28  H    0.174660
    29  H    0.165052
    30  H    0.172675
    31  H    0.159167
    32  H    0.155776
    33  H    0.143418
    34  H    0.138031
    35  H    0.134013
    36  H    0.134319
    37  H    0.144364
    38  H    0.148924
    39  H    0.151890
    40  H    0.145305
    41  H    0.143998
    42  H    0.148748
    43  H    0.141239
    44  H    0.154783
    45  H    0.143705
    46  H    0.175522
    47  H    0.173036
    48  H    0.190752
    49  H    0.150953
    50  H    0.450870
 Sum of Mulliken charges =  -0.00000

 Dipole moment (field-independent basis, Debye):
    X=             -6.3454    Y=              0.8375    Z=              0.0210  Tot=              6.4004
 Quadrupole moment (field-independent basis, Debye-Ang):
   XX=           -153.0666   YY=           -121.1672   ZZ=           -136.9861
   XY=              3.2564   XZ=              0.4436   YZ=             -0.4604

 Normal termination of Gaussian 16 at Tue Mar  1 09:15:03 2022.
