 Gaussian 16, Revision A.03,

 ----------------------------------------------------------------------
 #p b3lyp/6-31G(d) opt=(MaxStep=10,MaxCycles=1000) freq scf=(MaxCycle=2
 000,NoVarAcc,NoIncFock) scrf=(iefpcm,read,solvent=water)
 ----------------------------------------------------------------------

 -------------
 272.n.pdb.xyz
 -------------
 Symbolic Z-matrix:
 Charge =  0 Multiplicity = 1

 SCF Done:  E(RB3LYP) =  -648.705481288     A.U. after   13 cycles
 SCF Done:  E(RB3LYP) =  -648.708900227     A.U. after   11 cycles
 SCF Done:  E(RB3LYP) =  -648.707168593     A.U. after   13 cycles
 SCF Done:  E(RB3LYP) =  -648.709396575     A.U. after   11 cycles
 SCF Done:  E(RB3LYP) =  -648.709343290     A.U. after   11 cycles
 SCF Done:  E(RB3LYP) =  -648.709790885     A.U. after   11 cycles
 SCF Done:  E(RB3LYP) =  -648.709916752     A.U. after   10 cycles
 SCF Done:  E(RB3LYP) =  -648.709875978     A.U. after   10 cycles
 SCF Done:  E(RB3LYP) =  -648.709804070     A.U. after   10 cycles
 SCF Done:  E(RB3LYP) =  -648.709929767     A.U. after   10 cycles
 SCF Done:  E(RB3LYP) =  -648.710001295     A.U. after    9 cycles
 SCF Done:  E(RB3LYP) =  -648.710006964     A.U. after    9 cycles
 SCF Done:  E(RB3LYP) =  -648.710001236     A.U. after    9 cycles
 SCF Done:  E(RB3LYP) =  -648.710006959     A.U. after    9 cycles
 SCF Done:  E(RB3LYP) =  -648.710006744     A.U. after    8 cycles
 SCF Done:  E(RB3LYP) =  -648.710006948     A.U. after    7 cycles
 SCF Done:  E(RB3LYP) =  -648.710006959     A.U. after    6 cycles
 Optimization completed.
    -- Stationary point found.
 Normal termination of Gaussian 16 at Tue Mar  1 16:06:12 2022.

 --------------------------------------------------------------------
 #P Geom=AllCheck Guess=TCheck SCRF=Check GenChk RB3LYP/6-31G(d) Freq
 --------------------------------------------------------------------

 Structure from the checkpoint file:  "272.n.pdb.xyz.mst.wat.chk"
 -------------
 272.n.pdb.xyz
 -------------
 Charge =  0 Multiplicity = 1

 SCF Done:  E(RB3LYP) =  -648.710006959     A.U. after    1 cycles

  Exact polarizability: 172.036  11.550 157.439 -12.367   6.323  73.175
 Approx polarizability: 195.715  10.762 178.717 -17.965   8.141  94.223

                      1                      2                      3
                      A                      A                      A
 Frequencies --     42.0630                73.6470                80.9573
 Red. masses --      9.4980                 2.9768                 3.0642
 Frc consts  --      0.0099                 0.0095                 0.0118
 IR Inten    --      1.9615                 7.0849                 4.0471

                      4                      5                      6
                      A                      A                      A
 Frequencies --     97.1195               109.4122               143.4612
 Red. masses --      3.9260                 1.5885                 5.7686
 Frc consts  --      0.0218                 0.0112                 0.0700
 IR Inten    --      2.4002                 1.3327                 2.4607

                      7                      8                      9
                      A                      A                      A
 Frequencies --    231.1307               273.4782               313.6709
 Red. masses --      6.8213                 5.8545                 3.9947
 Frc consts  --      0.2147                 0.2580                 0.2316
 IR Inten    --      0.8286                 1.2629                 2.0196

                     10                     11                     12
                      A                      A                      A
 Frequencies --    359.2506               423.7030               439.9420
 Red. masses --      7.0602                 5.8034                 3.7282
 Frc consts  --      0.5369                 0.6138                 0.4252
 IR Inten    --      1.6515                 7.8466                 7.3827

                     13                     14                     15
                      A                      A                      A
 Frequencies --    520.2563               528.7769               557.4206
 Red. masses --      4.0394                 4.4294                 5.4753
 Frc consts  --      0.6442                 0.7297                 1.0024
 IR Inten    --      6.4689                20.9506                 6.8804

                     16                     17                     18
                      A                      A                      A
 Frequencies --    584.9127               627.3849               644.9828
 Red. masses --      3.2733                 1.2600                 5.7245
 Frc consts  --      0.6598                 0.2922                 1.4031
 IR Inten    --     44.1022               121.9980                55.1879

                     19                     20                     21
                      A                      A                      A
 Frequencies --    669.5106               712.5049               752.5440
 Red. masses --      4.1219                 3.6625                 2.6101
 Frc consts  --      1.0886                 1.0955                 0.8709
 IR Inten    --     23.0450                81.1981                64.0694

                     22                     23                     24
                      A                      A                      A
 Frequencies --    780.4407               806.4466               842.7802
 Red. masses --      3.1348                 2.4069                 3.7235
 Frc consts  --      1.1250                 0.9223                 1.5582
 IR Inten    --     26.9179                 1.9942                28.6989

                     25                     26                     27
                      A                      A                      A
 Frequencies --    898.5141               937.3005               979.2700
 Red. masses --      1.7103                 4.6092                 1.3857
 Frc consts  --      0.8135                 2.3858                 0.7829
 IR Inten    --      8.7387                57.6314                 6.4497

                     28                     29                     30
                      A                      A                      A
 Frequencies --   1011.0064              1030.0108              1068.8892
 Red. masses --      1.2944                 1.8451                 1.7750
 Frc consts  --      0.7795                 1.1533                 1.1948
 IR Inten    --      0.2383                92.9968                29.1955

                     31                     32                     33
                      A                      A                      A
 Frequencies --   1070.2347              1094.7678              1160.0918
 Red. masses --      2.2340                 4.4980                 1.7068
 Frc consts  --      1.5076                 3.1763                 1.3534
 IR Inten    --      3.1759               260.3284                70.3304

                     34                     35                     36
                      A                      A                      A
 Frequencies --   1190.1891              1217.8637              1223.0672
 Red. masses --      1.1430                 2.2324                 3.3028
 Frc consts  --      0.9540                 1.9508                 2.9109
 IR Inten    --     82.6956               518.6138               585.3266

                     37                     38                     39
                      A                      A                      A
 Frequencies --   1246.7506              1303.2526              1359.1923
 Red. masses --      3.0941                 1.5577                 7.6173
 Frc consts  --      2.8337                 1.5588                 8.2911
 IR Inten    --     66.2134                 8.5417                 0.6640

                     40                     41                     42
                      A                      A                      A
 Frequencies --   1397.3599              1417.1555              1487.5697
 Red. masses --      2.3962                 1.3219                 1.0573
 Frc consts  --      2.7567                 1.5641                 1.3785
 IR Inten    --    190.1735                87.5446                24.8836

                     43                     44                     45
                      A                      A                      A
 Frequencies --   1490.9420              1494.4071              1529.3876
 Red. masses --      1.1662                 1.8578                 2.6988
 Frc consts  --      1.5274                 2.4445                 3.7192
 IR Inten    --     19.6079                10.2185                60.3413

                     46                     47                     48
                      A                      A                      A
 Frequencies --   1634.0872              1660.9151              1771.9079
 Red. masses --      6.1336                 6.3836                10.4364
 Frc consts  --      9.6497                10.3755                19.3056
 IR Inten    --     23.4403                86.4344               708.7877

                     49                     50                     51
                      A                      A                      A
 Frequencies --   1822.7536              3091.7558              3159.9429
 Red. masses --     11.5316                 1.0369                 1.1005
 Frc consts  --     22.5733                 5.8395                 6.4743
 IR Inten    --    403.9244                 1.0628                 4.7911

                     52                     53                     54
                      A                      A                      A
 Frequencies --   3199.9238              3220.6619              3231.7274
 Red. masses --      1.1047                 1.0871                 1.0914
 Frc consts  --      6.6644                 6.6434                 6.7158
 IR Inten    --     11.9481                 2.9536                20.4773

                     55                     56                     57
                      A                      A                      A
 Frequencies --   3240.4321              3254.7784              3666.7570
 Red. masses --      1.0961                 1.0932                 1.0649
 Frc consts  --      6.7810                 6.8231                 8.4354
 IR Inten    --     16.9350                 6.4487               250.9811

 - Thermochemistry -
 -------------------
 Temperature   298.150 Kelvin.  Pressure   1.00000 Atm.
 Atom     1 has atomic number  6 and mass  12.00000

 Molecular mass:   180.04226 amu.
 Principal axes and moments of inertia in atomic units:
                           1         2         3
     Eigenvalues --  1597.183272400.565593632.68517
           X            0.99991   0.00444  -0.01271
           Y           -0.00435   0.99996   0.00748
           Z            0.01274  -0.00742   0.99989
 This molecule is an asymmetric top.
 Rotational symmetry number  1.
 Warning -- assumption of classical behavior for rotation
           may cause significant error
 Rotational temperatures (Kelvin)      0.05423     0.03608     0.02384
 Rotational constants (GHZ):           1.12995     0.75180     0.49681
 Zero-point vibrational energy     413780.3 (Joules/Mol)
                                   98.89586 (Kcal/Mol)
 Warning -- explicit consideration of  16 degrees of freedom as
           vibrations may cause significant error
 Vibrational temperatures:     60.52   105.96   116.48   139.73   157.42
          (Kelvin)            206.41   332.55   393.47   451.30   516.88
                              609.61   632.98   748.53   760.79   802.00
                              841.56   902.67   927.99   963.28  1025.14
                             1082.74  1122.88  1160.30  1212.57  1292.76
                             1348.57  1408.95  1454.61  1481.96  1537.89
                             1539.83  1575.13  1669.11  1712.42  1752.23
                             1759.72  1793.80  1875.09  1955.57  2010.49
                             2038.97  2140.28  2145.13  2150.12  2200.45
                             2351.09  2389.69  2549.38  2622.54  4448.35
                             4546.45  4603.98  4633.81  4649.73  4662.26
                             4682.90  5275.65

 Zero-point correction=                           0.157601 (Hartree/Particle)
 Thermal correction to Energy=                    0.169274
 Thermal correction to Enthalpy=                  0.170219
 Thermal correction to Gibbs Free Energy=         0.118765
 Sum of electronic and zero-point Energies=           -648.552406
 Sum of electronic and thermal Energies=              -648.540733
 Sum of electronic and thermal Enthalpies=            -648.539788
 Sum of electronic and thermal Free Energies=         -648.591242

                     E (Thermal)             CV                S
                      KCal/Mol        Cal/Mol-Kelvin    Cal/Mol-Kelvin
 Total                  106.221             42.900            108.294
 Electronic               0.000              0.000              0.000
 Translational            0.889              2.981             41.471
 Rotational               0.889              2.981             31.011
 Vibrational            104.444             36.939             35.813
 Vibration     1          0.595              1.980              5.159
 Vibration     2          0.599              1.966              4.053
 Vibration     3          0.600              1.962              3.868
 Vibration     4          0.603              1.951              3.511
 Vibration     5          0.606              1.942              3.279
 Vibration     6          0.616              1.910              2.757
 Vibration     7          0.653              1.793              1.870
 Vibration     8          0.676              1.722              1.574
 Vibration     9          0.702              1.648              1.343
 Vibration    10          0.734              1.556              1.125
 Vibration    11          0.786              1.419              0.879
 Vibration    12          0.800              1.383              0.827
 Vibration    13          0.875              1.205              0.609
 Vibration    14          0.884              1.186              0.590
 Vibration    15          0.913              1.123              0.529
 Vibration    16          0.942              1.064              0.476

                           ! Non-Optimized Parameters !
 Normal termination of Gaussian 16 at Tue Mar  1 16:17:18 2022.

 ------------------------------------------
 #p b3lyp/6-31G(d) geom=allcheck guess=read
 ------------------------------------------

 Structure from the checkpoint file:  "272.n.pdb.xyz.mst.wat.chk"
 -------------
 272.n.pdb.xyz
 -------------
 Charge =  0 Multiplicity = 1

 SCF Done:  E(RB3LYP) =  -648.693994835     A.U. after   12 cycles
 Normal termination of Gaussian 16 at Tue Mar  1 16:18:28 2022.
 Gaussian 16:  ES64L-G16RevA.03 25-Dec-2016

 ----------------------------------------------------------------------
 #p b3lyp/6-31G(d) scrf=(iefpcm,read,solvent=water) geom=allcheck guess
 =read
 ----------------------------------------------------------------------

 Structure from the checkpoint file:  "272.n.pdb.xyz.mst.wat.chk"
 -------------
 272.n.pdb.xyz
 -------------
 Charge =  0 Multiplicity = 1

                         Standard orientation:
 ---------------------------------------------------------------------
 Center     Atomic      Atomic             Coordinates (Angstroms)
 Number     Number       Type             X           Y           Z
 ---------------------------------------------------------------------
      1          6           0        3.440065   -0.544381   -0.321701
      2          6           0        2.070672   -0.660388    0.279135
      3          8           0        1.796160   -0.682043    1.456452
      4          8           0        1.126353   -0.754066   -0.708329
      5          6           0       -0.215414   -0.730085   -0.340703
      6          6           0       -0.879911    0.481772   -0.079118
      7          6           0       -2.256287    0.433159    0.195506
      8          6           0       -2.944303   -0.775886    0.213392
      9          6           0       -2.264043   -1.964424   -0.054566
     10          6           0       -0.899008   -1.940991   -0.333702
     11          6           0       -0.161410    1.784102   -0.096074
     12          8           0       -1.004532    2.832462   -0.028328
     13          8           0        1.049154    1.923633   -0.162827
     14          1           0        4.194353   -0.647397    0.456780
     15          1           0        3.534030    0.436835   -0.795872
     16          1           0        3.586303   -1.303357   -1.093143
     17          1           0       -2.777876    1.359622    0.397110
     18          1           0       -4.005810   -0.790136    0.431825
     19          1           0       -2.792797   -2.910898   -0.047541
     20          1           0       -0.352926   -2.851020   -0.551944
     21          1           0       -0.464526    3.649186   -0.025955
 ---------------------------------------------------------------------

 SCF Done:  E(RB3LYP) =  -648.709243696     A.U. after   11 cycles

 The electronic state is 1-A.
 Alpha  occ. eigenvalues --  -19.20521 -19.19650 -19.14792 -19.14496 -10.33223
 Alpha  occ. eigenvalues --  -10.33121 -10.26973 -10.21904 -10.20874 -10.20869
 Alpha  occ. eigenvalues --  -10.20408 -10.20133 -10.19307  -1.11809  -1.10665
 Alpha  occ. eigenvalues --   -1.03141  -1.01673  -0.87320  -0.78263  -0.77816
 Alpha  occ. eigenvalues --   -0.73980  -0.67217  -0.63733  -0.61935  -0.56816
 Alpha  occ. eigenvalues --   -0.52886  -0.49968  -0.49301  -0.48945  -0.48807
 Alpha  occ. eigenvalues --   -0.47001  -0.45449  -0.45017  -0.44338  -0.41314
 Alpha  occ. eigenvalues --   -0.40846  -0.40082  -0.38928  -0.37665  -0.37105
 Alpha  occ. eigenvalues --   -0.36330  -0.32760  -0.31739  -0.28703  -0.28190
 Alpha  occ. eigenvalues --   -0.27024  -0.25977
 Alpha virt. eigenvalues --   -0.05514  -0.01476   0.00483   0.04979   0.08765
 Alpha virt. eigenvalues --    0.10823   0.12023   0.14290   0.15199   0.15880
 Alpha virt. eigenvalues --    0.17084   0.17987   0.18415   0.19745   0.23417

 Mulliken charges:
               1
     1  C   -0.532448
     2  C    0.632039
     3  O   -0.505929
     4  O   -0.522019
     5  C    0.301699
     6  C    0.069038
     7  C   -0.191332
     8  C   -0.135234
     9  C   -0.139967
    10  C   -0.166929
    11  C    0.570230
    12  O   -0.593054
    13  O   -0.521662
    14  H    0.186680
    15  H    0.204893
    16  H    0.196105
    17  H    0.177866
    18  H    0.164737
    19  H    0.170605
    20  H    0.169599
    21  H    0.465082
 Sum of Mulliken charges =  -0.00000

 Dipole moment (field-independent basis, Debye):
    X=             -2.3486    Y=             -0.0905    Z=             -1.9904  Tot=              3.0799
 Quadrupole moment (field-independent basis, Debye-Ang):
   XX=            -61.2911   YY=            -57.4054   ZZ=            -79.4177
   XY=             -0.3166   XZ=             -5.5038   YZ=              2.7178

 Normal termination of Gaussian 16 at Tue Mar  1 16:19:45 2022.
