 Gaussian 16, Revision A.03,

 ----------------------------------------------------------------------
 #p b3lyp/6-31G(d) opt=(MaxStep=10,MaxCycles=1000) freq scf=(MaxCycle=2
 000,NoVarAcc,NoIncFock) scrf=(iefpcm,read,solvent=water)
 ----------------------------------------------------------------------

 -------------
 273.n.pdb.xyz
 -------------
 Symbolic Z-matrix:
 Charge =  0 Multiplicity = 1

 SCF Done:  E(RB3LYP) =  -996.013966872     A.U. after   13 cycles
 SCF Done:  E(RB3LYP) =  -996.019619213     A.U. after   10 cycles
 SCF Done:  E(RB3LYP) =  -996.022781925     A.U. after   11 cycles
 SCF Done:  E(RB3LYP) =  -996.025841744     A.U. after   12 cycles
 SCF Done:  E(RB3LYP) =  -996.027335086     A.U. after   11 cycles
 SCF Done:  E(RB3LYP) =  -996.027719230     A.U. after   10 cycles
 SCF Done:  E(RB3LYP) =  -996.027840448     A.U. after   10 cycles
 SCF Done:  E(RB3LYP) =  -996.027931908     A.U. after    9 cycles
 SCF Done:  E(RB3LYP) =  -996.028012383     A.U. after    9 cycles
 SCF Done:  E(RB3LYP) =  -996.028122992     A.U. after   10 cycles
 SCF Done:  E(RB3LYP) =  -996.028141149     A.U. after   10 cycles
 SCF Done:  E(RB3LYP) =  -996.028132837     A.U. after    9 cycles
 SCF Done:  E(RB3LYP) =  -996.028188201     A.U. after    9 cycles
 SCF Done:  E(RB3LYP) =  -996.028161117     A.U. after    9 cycles
 SCF Done:  E(RB3LYP) =  -996.028182154     A.U. after    9 cycles
 SCF Done:  E(RB3LYP) =  -996.028187874     A.U. after    8 cycles
 SCF Done:  E(RB3LYP) =  -996.028187759     A.U. after    6 cycles
 Optimization completed.
    -- Stationary point found.
 Normal termination of Gaussian 16 at Tue Mar  1 19:29:01 2022.

 --------------------------------------------------------------------
 #P Geom=AllCheck Guess=TCheck SCRF=Check GenChk RB3LYP/6-31G(d) Freq
 --------------------------------------------------------------------

 Structure from the checkpoint file:  "273.n.pdb.xyz.mst.wat.chk"
 -------------
 273.n.pdb.xyz
 -------------
 Charge =  0 Multiplicity = 1

 SCF Done:  E(RB3LYP) =  -996.028187759     A.U. after    1 cycles

  Exact polarizability: 314.303   8.295 288.183  13.623 -39.900 251.243
 Approx polarizability: 324.837   7.547 326.745  16.298 -53.106 298.091

                      1                      2                      3
                      A                      A                      A
 Frequencies --     22.6841                28.6585                37.3986
 Red. masses --      4.8576                 4.2543                 4.6359
 Frc consts  --      0.0015                 0.0021                 0.0038
 IR Inten    --      1.3666                 2.8215                 0.3409

                      4                      5                      6
                      A                      A                      A
 Frequencies --     44.1798                49.7910                59.9405
 Red. masses --      3.6848                 3.6965                 3.1806
 Frc consts  --      0.0042                 0.0054                 0.0067
 IR Inten    --      0.5062                 1.4068                 0.1558

                      7                      8                      9
                      A                      A                      A
 Frequencies --     77.0473                80.9069               104.5056
 Red. masses --      3.4489                 4.1760                 3.1425
 Frc consts  --      0.0121                 0.0161                 0.0202
 IR Inten    --      1.3586                 1.1926                 2.1569

                     10                     11                     12
                      A                      A                      A
 Frequencies --    123.4228               142.1713               199.7636
 Red. masses --      4.0632                 2.4352                 4.9380
 Frc consts  --      0.0365                 0.0290                 0.1161
 IR Inten    --      3.1334                 1.4719                 1.8896

                     13                     14                     15
                      A                      A                      A
 Frequencies --    207.8082               216.2800               248.4466
 Red. masses --      4.0699                 3.2780                 3.1013
 Frc consts  --      0.1036                 0.0903                 0.1128
 IR Inten    --      2.1271                 5.9198                 7.8516

                     16                     17                     18
                      A                      A                      A
 Frequencies --    254.6236               261.7767               298.9873
 Red. masses --      1.4227                 4.3503                 7.3227
 Frc consts  --      0.0543                 0.1756                 0.3857
 IR Inten    --      2.6176                 5.3558                24.8655

                     19                     20                     21
                      A                      A                      A
 Frequencies --    324.0894               347.5409               400.7998
 Red. masses --      4.4474                 6.5252                 5.2339
 Frc consts  --      0.2752                 0.4644                 0.4954
 IR Inten    --      9.6069                 8.1925                 7.7401

                     22                     23                     24
                      A                      A                      A
 Frequencies --    414.1915               418.3593               420.8232
 Red. masses --      3.2152                 3.0416                 3.2215
 Frc consts  --      0.3250                 0.3137                 0.3361
 IR Inten    --      9.3037                 1.3835                 0.1641

                     25                     26                     27
                      A                      A                      A
 Frequencies --    432.8914               500.0422               515.9470
 Red. masses --      8.6421                 4.5746                 3.4588
 Frc consts  --      0.9542                 0.6739                 0.5425
 IR Inten    --      5.2621                44.5831                 6.6439

                     28                     29                     30
                      A                      A                      A
 Frequencies --    532.0879               604.9294               617.6688
 Red. masses --      4.7754                 6.9889                 5.1231
 Frc consts  --      0.7966                 1.5068                 1.1516
 IR Inten    --     45.7949                26.1700                 3.9082

                     31                     32                     33
                      A                      A                      A
 Frequencies --    628.3385               632.7514               656.2295
 Red. masses --      6.4490                 5.8528                 7.2428
 Frc consts  --      1.5001                 1.3806                 1.8377
 IR Inten    --      2.3260                 1.7380                22.3457

                     34                     35                     36
                      A                      A                      A
 Frequencies --    682.3059               702.6218               707.5924
 Red. masses --      5.6723                 2.4126                 2.2853
 Frc consts  --      1.5558                 0.7018                 0.6742
 IR Inten    --      0.5875                24.2093                19.2026

                     37                     38                     39
                      A                      A                      A
 Frequencies --    726.1881               748.9971               758.2773
 Red. masses --      2.0581                 1.1874                 1.8367
 Frc consts  --      0.6395                 0.3925                 0.6222
 IR Inten    --     51.5036                 5.3522                37.4610

                     40                     41                     42
                      A                      A                      A
 Frequencies --    774.1765               798.0623               815.4876
 Red. masses --      1.6386                 3.6784                 1.5380
 Frc consts  --      0.5786                 1.3803                 0.6026
 IR Inten    --     69.3097                28.7290                 1.3542

                     43                     44                     45
                      A                      A                      A
 Frequencies --    846.4864               851.9611               888.1487
 Red. masses --      1.2574                 1.2514                 5.3318
 Frc consts  --      0.5309                 0.5351                 2.4780
 IR Inten    --      1.2120                 0.9071                 4.1481

                     46                     47                     48
                      A                      A                      A
 Frequencies --    897.5372               914.5597               923.9838
 Red. masses --      2.3291                 1.6344                 1.4583
 Frc consts  --      1.1054                 0.8054                 0.7335
 IR Inten    --      2.6938                 3.1574                 8.9371

                     49                     50                     51
                      A                      A                      A
 Frequencies --    931.1696               960.2948               975.5048
 Red. masses --      1.5342                 2.1345                 1.3415
 Frc consts  --      0.7838                 1.1597                 0.7521
 IR Inten    --      4.4990                13.1046                 0.3847

                     52                     53                     54
                      A                      A                      A
 Frequencies --    978.5722              1002.5740              1003.9615
 Red. masses --      1.3388                 2.4021                 1.3326
 Frc consts  --      0.7554                 1.4226                 0.7914
 IR Inten    --      0.2587                 0.8710                 0.5588

                     55                     56                     57
                      A                      A                      A
 Frequencies --   1007.3566              1017.5009              1018.1122
 Red. masses --      1.2612                 6.0317                 6.1380
 Frc consts  --      0.7540                 3.6792                 3.7486
 IR Inten    --      0.3358                 0.5955                 1.2973

                     58                     59                     60
                      A                      A                      A
 Frequencies --   1029.6991              1050.0158              1052.2970
 Red. masses --      3.4755                 2.4482                 2.1359
 Frc consts  --      2.1711                 1.5904                 1.3935
 IR Inten    --      2.5548                 1.9694                12.2110

                     61                     62                     63
                      A                      A                      A
 Frequencies --   1064.5991              1073.2350              1103.3876
 Red. masses --      1.9599                 2.1188                 1.6197
 Frc consts  --      1.3088                 1.4379                 1.1618
 IR Inten    --     23.9514                 1.9029                 3.4960

                     64                     65                     66
                      A                      A                      A
 Frequencies --   1107.4257              1129.1843              1142.0456
 Red. masses --      1.5705                 2.0830                 1.8716
 Frc consts  --      1.1348                 1.5648                 1.4383
 IR Inten    --     15.7436                 8.1612                 5.2811

                     67                     68                     69
                      A                      A                      A
 Frequencies --   1163.5489              1183.9912              1187.9520
 Red. masses --      3.5875                 2.2011                 1.1256
 Frc consts  --      2.8616                 1.8180                 0.9359
 IR Inten    --      1.1580                22.6932                 1.3792

                     70                     71                     72
                      A                      A                      A
 Frequencies --   1189.2638              1198.9750              1202.9723
 Red. masses --      1.1761                 1.1883                 1.2729
 Frc consts  --      0.9801                 1.0064                 1.0853
 IR Inten    --      3.4772                 1.5150                 6.9552

                     73                     74                     75
                      A                      A                      A
 Frequencies --   1230.2564              1237.0410              1273.6256
 Red. masses --      1.6457                 1.4951                 2.5394
 Frc consts  --      1.4676                 1.3480                 2.4269
 IR Inten    --     51.8289                 4.4865                57.5174

                     76                     77                     78
                      A                      A                      A
 Frequencies --   1296.9526              1300.2591              1315.6993
 Red. masses --      1.7540                 1.4684                 3.2068
 Frc consts  --      1.7383                 1.4627                 3.2706
 IR Inten    --      3.7084                 5.9206               376.8882

                     79                     80                     81
                      A                      A                      A
 Frequencies --   1326.4829              1333.5838              1347.8744
 Red. masses --      4.3438                 1.1388                 1.4282
 Frc consts  --      4.5033                 1.1933                 1.5288
 IR Inten    --    711.7880                49.5238                63.8549

                     82                     83                     84
                      A                      A                      A
 Frequencies --   1350.9710              1361.4634              1363.8853
 Red. masses --      1.9985                 2.6104                 2.5292
 Frc consts  --      2.1491                 2.8508                 2.7720
 IR Inten    --     53.1803                 4.4288                15.2111

                     85                     86                     87
                      A                      A                      A
 Frequencies --   1373.0427              1377.2560              1417.7502
 Red. masses --      2.9199                 1.4672                 1.6312
 Frc consts  --      3.2433                 1.6397                 1.9318
 IR Inten    --     19.6040                 4.7582                 0.8246

                     88                     89                     90
                      A                      A                      A
 Frequencies --   1433.9764              1500.3513              1502.7217
 Red. masses --      1.2521                 2.2846                 1.0614
 Frc consts  --      1.5170                 3.0300                 1.4121
 IR Inten    --      1.1481                 2.5342                 0.4167

                     91                     92                     93
                      A                      A                      A
 Frequencies --   1504.6370              1510.3970              1519.0182
 Red. masses --      2.3418                 1.0805                 1.0415
 Frc consts  --      3.1237                 1.4523                 1.4159
 IR Inten    --      8.5779                 1.5770                 6.7865

                     94                     95                     96
                      A                      A                      A
 Frequencies --   1525.3956              1537.1958              1537.3192
 Red. masses --      1.0762                 1.0996                 2.2649
 Frc consts  --      1.4753                 1.5309                 3.1538
 IR Inten    --      0.4360                 7.9988                68.1075

                     97                     98                     99
                      A                      A                      A
 Frequencies --   1539.1688              1645.9831              1648.3827
 Red. masses --      2.2411                 6.0664                 6.1798
 Frc consts  --      3.1281                 9.6835                 9.8933
 IR Inten    --    112.4823                 3.1838                12.6454

                    100                    101                    102
                      A                      A                      A
 Frequencies --   1653.7429              1656.0759              1770.1124
 Red. masses --      5.7547                 5.6966                12.7154
 Frc consts  --      9.2728                 9.2051                23.4737
 IR Inten    --     15.1324                60.7156               842.6503

                    103                    104                    105
                      A                      A                      A
 Frequencies --   1806.0024              3036.1573              3041.6448
 Red. masses --     12.6843                 1.0603                 1.0658
 Frc consts  --     24.3754                 5.7587                 5.8097
 IR Inten    --    412.1407                21.2883                41.0929

                    106                    107                    108
                      A                      A                      A
 Frequencies --   3051.4114              3053.0380              3063.0188
 Red. masses --      1.0368                 1.0657                 1.0789
 Frc consts  --      5.6877                 5.8525                 5.9639
 IR Inten    --     54.5746                62.9244                12.5026

                    109                    110                    111
                      A                      A                      A
 Frequencies --   3066.4354              3091.8027              3110.2446
 Red. masses --      1.0983                 1.0991                 1.1019
 Frc consts  --      6.0845                 6.1902                 6.2803
 IR Inten    --     41.6599                 3.1404                19.7383

                    112                    113                    114
                      A                      A                      A
 Frequencies --   3116.0901              3119.6904              3208.0717
 Red. masses --      1.1026                 1.1024                 1.0861
 Frc consts  --      6.3080                 6.3212                 6.5859
 IR Inten    --    152.4692                79.3757                 0.7733

                    115                    116                    117
                      A                      A                      A
 Frequencies --   3208.6450              3215.7744              3217.1481
 Red. masses --      1.0861                 1.0902                 1.0899
 Frc consts  --      6.5879                 6.6425                 6.6460
 IR Inten    --      0.5297                23.8377                22.0272

                    118                    119                    120
                      A                      A                      A
 Frequencies --   3228.3634              3228.4621              3239.7744
 Red. masses --      1.0944                 1.0949                 1.0938
 Frc consts  --      6.7205                 6.7241                 6.7640
 IR Inten    --     43.7007                45.2051                 9.9726

                    121                    122                    123
                      A                      A                      A
 Frequencies --   3242.2802              3244.8662              3253.6775
 Red. masses --      1.0935                 1.0945                 1.0935
 Frc consts  --      6.7731                 6.7901                 6.8208
 IR Inten    --      8.5562                 6.7758                 5.9165

 - Thermochemistry -
 -------------------
 Temperature   298.150 Kelvin.  Pressure   1.00000 Atm.
 Atom     1 has atomic number  6 and mass  12.00000

 Molecular mass:   308.15248 amu.
 Principal axes and moments of inertia in atomic units:
                           1         2         3
     Eigenvalues --  4978.86280********************
           X            0.99999   0.00510  -0.00162
           Y           -0.00511   0.99999  -0.00178
           Z            0.00162   0.00178   1.00000
 This molecule is an asymmetric top.
 Rotational symmetry number  1.
 Warning -- assumption of classical behavior for rotation
           may cause significant error
 Rotational temperatures (Kelvin)      0.01740     0.00831     0.00623
 Rotational constants (GHZ):           0.36248     0.17312     0.12981
 Zero-point vibrational energy     932778.1 (Joules/Mol)
                                  222.93933 (Kcal/Mol)
 Warning -- explicit consideration of  30 degrees of freedom as
           vibrations may cause significant error
 Vibrational temperatures:     32.64    41.23    53.81    63.56    71.64
          (Kelvin)             86.24   110.85   116.41   150.36   177.58
                              204.55   287.42   298.99   311.18   357.46
                              366.35   376.64   430.18   466.29   500.03
                              576.66   595.93   601.93   605.47   622.83
                              719.45   742.33   765.56   870.36   888.69
                              904.04   910.39   944.17   981.69  1010.92
                             1018.07  1044.82  1077.64  1090.99  1113.87
                             1148.23  1173.30  1217.91  1225.78  1277.85
                             1291.36  1315.85  1329.41  1339.75  1381.65
                             1403.53  1407.95  1442.48  1444.48  1449.36
                             1463.96  1464.84  1481.51  1510.74  1514.02
                             1531.72  1544.15  1587.53  1593.34  1624.64
                             1643.15  1674.09  1703.50  1709.20  1711.09
                             1725.06  1730.81  1770.06  1779.83  1832.46
                             1866.03  1870.78  1893.00  1908.51  1918.73
                             1939.29  1943.75  1958.84  1962.33  1975.50
                             1981.56  2039.83  2063.17  2158.67  2162.08
                             2164.84  2173.12  2185.53  2194.70  2211.68
                             2211.86  2214.52  2368.20  2371.66  2379.37
                             2382.72  2546.80  2598.43  4368.35  4376.25
                             4390.30  4392.64  4407.00  4411.92  4448.41
                             4474.95  4483.36  4488.54  4615.70  4616.52
                             4626.78  4628.76  4644.89  4645.04  4661.31
                             4664.92  4668.64  4681.32

 Zero-point correction=                           0.355276 (Hartree/Particle)
 Thermal correction to Energy=                    0.376078
 Thermal correction to Enthalpy=                  0.377022
 Thermal correction to Gibbs Free Energy=         0.302841
 Sum of electronic and zero-point Energies=           -995.672911
 Sum of electronic and thermal Energies=              -995.652110
 Sum of electronic and thermal Enthalpies=            -995.651166
 Sum of electronic and thermal Free Energies=         -995.725347

                     E (Thermal)             CV                S
                      KCal/Mol        Cal/Mol-Kelvin    Cal/Mol-Kelvin
 Total                  235.992             79.164            156.128
 Electronic               0.000              0.000              0.000
 Translational            0.889              2.981             43.073
 Rotational               0.889              2.981             34.933
 Vibrational            234.215             73.202             78.122
 Vibration     1          0.593              1.985              6.384
 Vibration     2          0.593              1.984              5.920
 Vibration     3          0.594              1.982              5.392
 Vibration     4          0.595              1.980              5.062
 Vibration     5          0.595              1.978              4.826
 Vibration     6          0.597              1.973              4.459
 Vibration     7          0.599              1.964              3.965
 Vibration     8          0.600              1.962              3.869
 Vibration     9          0.605              1.946              3.368
 Vibration    10          0.610              1.929              3.046
 Vibration    11          0.616              1.911              2.774
 Vibration    12          0.638              1.840              2.135
 Vibration    13          0.641              1.829              2.063
 Vibration    14          0.645              1.816              1.990
 Vibration    15          0.662              1.765              1.742
 Vibration    16          0.665              1.755              1.698
 Vibration    17          0.669              1.743              1.650
 Vibration    18          0.692              1.676              1.423
 Vibration    19          0.709              1.627              1.289
 Vibration    20          0.725              1.580              1.177
 Vibration    21          0.767              1.468              0.960
 Vibration    22          0.778              1.439              0.912
 Vibration    23          0.781              1.430              0.898
 Vibration    24          0.783              1.425              0.889
 Vibration    25          0.794              1.399              0.849
 Vibration    26          0.855              1.250              0.658
 Vibration    27          0.871              1.215              0.619
 Vibration    28          0.887              1.179              0.583
 Vibration    29          0.963              1.021              0.441
 Vibration    30          0.977              0.995              0.420

                           ! Non-Optimized Parameters !
 Normal termination of Gaussian 16 at Tue Mar  1 20:37:34 2022.

 ------------------------------------------
 #p b3lyp/6-31G(d) geom=allcheck guess=read
 ------------------------------------------

 Structure from the checkpoint file:  "273.n.pdb.xyz.mst.wat.chk"
 -------------
 273.n.pdb.xyz
 -------------
 Charge =  0 Multiplicity = 1

 SCF Done:  E(RB3LYP) =  -996.015534940     A.U. after   11 cycles
 Normal termination of Gaussian 16 at Tue Mar  1 20:41:48 2022.
 Gaussian 16:  ES64L-G16RevA.03 25-Dec-2016

 ----------------------------------------------------------------------
 #p b3lyp/6-31G(d) scrf=(iefpcm,read,solvent=water) geom=allcheck guess
 =read
 ----------------------------------------------------------------------

 Structure from the checkpoint file:  "273.n.pdb.xyz.mst.wat.chk"
 -------------
 273.n.pdb.xyz
 -------------
 Charge =  0 Multiplicity = 1

                         Standard orientation:
 ---------------------------------------------------------------------
 Center     Atomic      Atomic             Coordinates (Angstroms)
 Number     Number       Type             X           Y           Z
 ---------------------------------------------------------------------
      1          6           0       -6.756608    0.098126   -0.028884
      2          6           0       -5.485203   -0.392695    0.666790
      3          6           0       -4.258494   -0.372535   -0.249626
      4          6           0       -2.992740   -0.875289    0.449293
      5          6           0       -1.749012   -0.876337   -0.461128
      6          6           0       -1.167857    0.498109   -0.732556
      7          8           0       -1.758063    1.511318   -1.070919
      8          7           0        0.197078    0.442597   -0.466854
      9          7           0        0.533094   -0.823615    0.097377
     10          6           0       -0.575704   -1.658971    0.097789
     11          8           0       -0.565464   -2.828644    0.444992
     12          6           0        1.870098   -1.303135   -0.054246
     13          6           0        2.382765   -2.184694    0.901859
     14          6           0        3.675275   -2.685717    0.747663
     15          6           0        4.461673   -2.294185   -0.337010
     16          6           0        3.945345   -1.400739   -1.278021
     17          6           0        2.648667   -0.906376   -1.146526
     18          6           0        0.933289    1.589614   -0.028294
     19          6           0        1.090101    2.662971   -0.908650
     20          6           0        1.777359    3.799947   -0.485300
     21          6           0        2.325294    3.859699    0.796643
     22          6           0        2.175320    2.774942    1.664622
     23          6           0        1.473954    1.639847    1.260315
     24          1           0       -6.638718    1.127459   -0.384969
     25          1           0       -6.998788   -0.526683   -0.896088
     26          1           0       -7.615922    0.075580    0.649370
     27          1           0       -5.287537    0.229396    1.549459
     28          1           0       -5.641943   -1.412721    1.040473
     29          1           0       -4.451153   -0.996556   -1.132583
     30          1           0       -4.085892    0.643919   -0.618242
     31          1           0       -3.136876   -1.906584    0.789708
     32          1           0       -2.787374   -0.272053    1.342359
     33          1           0       -2.009973   -1.349230   -1.416638
     34          1           0        1.775171   -2.471176    1.749892
     35          1           0        4.069909   -3.373816    1.487744
     36          1           0        5.470328   -2.677501   -0.445954
     37          1           0        4.548906   -1.090415   -2.124254
     38          1           0        2.240397   -0.222042   -1.879938
     39          1           0        0.678434    2.604111   -1.908313
     40          1           0        1.894362    4.634863   -1.167556
     41          1           0        2.869277    4.742062    1.115812
     42          1           0        2.597574    2.812046    2.663349
     43          1           0        1.345693    0.799585    1.931742
 ---------------------------------------------------------------------

 SCF Done:  E(RB3LYP) =  -996.026284836     A.U. after   11 cycles

 The electronic state is 1-A.
 Alpha  occ. eigenvalues --  -19.14613 -19.14507 -14.42231 -14.42145 -10.31435
 Alpha  occ. eigenvalues --  -10.31343 -10.24509 -10.24445 -10.21985 -10.20152
 Alpha  occ. eigenvalues --  -10.20095 -10.20036 -10.19974 -10.19919 -10.19867
 Alpha  occ. eigenvalues --  -10.19833 -10.19809 -10.19737 -10.19608 -10.19539
 Alpha  occ. eigenvalues --  -10.17800 -10.17759 -10.17005  -1.08994  -1.05530
 Alpha  occ. eigenvalues --   -1.02344  -0.89887  -0.86895  -0.83936  -0.82756
 Alpha  occ. eigenvalues --   -0.78871  -0.75654  -0.75615  -0.75531  -0.73782
 Alpha  occ. eigenvalues --   -0.71223  -0.65633  -0.62974  -0.62835  -0.61980
 Alpha  occ. eigenvalues --   -0.61257  -0.59151  -0.58052  -0.56325  -0.55283
 Alpha  occ. eigenvalues --   -0.52636  -0.50420  -0.49709  -0.48848  -0.47773
 Alpha  occ. eigenvalues --   -0.46488  -0.45798  -0.45588  -0.44766  -0.44349
 Alpha  occ. eigenvalues --   -0.43952  -0.43599  -0.43017  -0.42843  -0.41833
 Alpha  occ. eigenvalues --   -0.41329  -0.40806  -0.39822  -0.37967  -0.37601
 Alpha  occ. eigenvalues --   -0.36789  -0.36745  -0.36463  -0.35612  -0.35570
 Alpha  occ. eigenvalues --   -0.35215  -0.33693  -0.33260  -0.32820  -0.32358
 Alpha  occ. eigenvalues --   -0.29642  -0.28512  -0.26797  -0.26033  -0.25986
 Alpha  occ. eigenvalues --   -0.25085  -0.22299
 Alpha virt. eigenvalues --   -0.03312  -0.01777  -0.01142  -0.00963  -0.00533
 Alpha virt. eigenvalues --    0.01922   0.09302   0.09450   0.09804   0.10767
 Alpha virt. eigenvalues --    0.11762   0.12516   0.13523   0.13757   0.14462

 Mulliken charges:
               1
     1  C   -0.451288
     2  C   -0.252645
     3  C   -0.260596
     4  C   -0.261095
     5  C   -0.334450
     6  C    0.640378
     7  O   -0.539344
     8  N   -0.399849
     9  N   -0.402557
    10  C    0.640107
    11  O   -0.550366
    12  C    0.261825
    13  C   -0.154099
    14  C   -0.160191
    15  C   -0.136635
    16  C   -0.160215
    17  C   -0.151068
    18  C    0.257375
    19  C   -0.152261
    20  C   -0.159635
    21  C   -0.135791
    22  C   -0.159999
    23  C   -0.149666
    24  H    0.145808
    25  H    0.145468
    26  H    0.145933
    27  H    0.136900
    28  H    0.135954
    29  H    0.138315
    30  H    0.152951
    31  H    0.163911
    32  H    0.157736
    33  H    0.232083
    34  H    0.164225
    35  H    0.159471
    36  H    0.155771
    37  H    0.159927
    38  H    0.168662
    39  H    0.163880
    40  H    0.159836
    41  H    0.156486
    42  H    0.160506
    43  H    0.168242
 Sum of Mulliken charges =  -0.00000

 Dipole moment (field-independent basis, Debye):
    X=              2.9735    Y=              1.0945    Z=              0.2652  Tot=              3.1796
 Quadrupole moment (field-independent basis, Debye-Ang):
   XX=           -121.0721   YY=           -139.4255   ZZ=           -125.4118
   XY=              5.1941   XZ=             -1.1861   YZ=              2.7622

 Normal termination of Gaussian 16 at Tue Mar  1 20:47:07 2022.
