 Gaussian 16, Revision A.03,

 ----------------------------------------------------------------------
 #p b3lyp/6-31G(d) opt=(MaxStep=10,MaxCycles=1000) freq scf=(MaxCycle=2
 000,NoVarAcc,NoIncFock) scrf=(iefpcm,read,solvent=water)
 ----------------------------------------------------------------------

 -------------
 274.n.pdb.xyz
 -------------
 Symbolic Z-matrix:
 Charge =  0 Multiplicity = 1

 SCF Done:  E(RB3LYP) =  -1430.99970017     A.U. after   15 cycles
 SCF Done:  E(RB3LYP) =  -1431.00591142     A.U. after   12 cycles
 SCF Done:  E(RB3LYP) =  -1431.00754541     A.U. after   12 cycles
 SCF Done:  E(RB3LYP) =  -1431.01170487     A.U. after   12 cycles
 SCF Done:  E(RB3LYP) =  -1431.00857964     A.U. after   14 cycles
 SCF Done:  E(RB3LYP) =  -1431.01272114     A.U. after   12 cycles
 SCF Done:  E(RB3LYP) =  -1431.01360211     A.U. after   12 cycles
 SCF Done:  E(RB3LYP) =  -1431.01366222     A.U. after   11 cycles
 SCF Done:  E(RB3LYP) =  -1431.01368906     A.U. after   11 cycles
 SCF Done:  E(RB3LYP) =  -1431.01370329     A.U. after   10 cycles
 SCF Done:  E(RB3LYP) =  -1431.01372008     A.U. after    7 cycles
 SCF Done:  E(RB3LYP) =  -1431.01372553     A.U. after   10 cycles
 SCF Done:  E(RB3LYP) =  -1431.01372590     A.U. after    9 cycles
 SCF Done:  E(RB3LYP) =  -1431.01372016     A.U. after   10 cycles
 SCF Done:  E(RB3LYP) =  -1431.01371967     A.U. after    7 cycles
 SCF Done:  E(RB3LYP) =  -1431.01372550     A.U. after   10 cycles
 SCF Done:  E(RB3LYP) =  -1431.01371964     A.U. after   10 cycles
 Optimization completed on the basis of negligible forces.
    -- Stationary point found.
 Normal termination of Gaussian 16 at Tue Mar  1 20:45:32 2022.

 --------------------------------------------------------------------
 #P Geom=AllCheck Guess=TCheck SCRF=Check GenChk RB3LYP/6-31G(d) Freq
 --------------------------------------------------------------------

 Structure from the checkpoint file:  "274.n.pdb.xyz.mst.wat.chk"
 -------------
 274.n.pdb.xyz
 -------------
 Charge =  0 Multiplicity = 1

 SCF Done:  E(RB3LYP) =  -1431.01371964     A.U. after    1 cycles

  Exact polarizability: 165.107  -5.584 134.292  12.971   3.568  84.586
 Approx polarizability: 170.731 -12.506 169.212  16.157   5.652  95.302

                      1                      2                      3
                      A                      A                      A
 Frequencies --     23.9200                36.9335                49.7347
 Red. masses --      7.9365                 7.5278                 7.8929
 Frc consts  --      0.0027                 0.0061                 0.0115
 IR Inten    --      1.7079                 1.3626                12.6994

                      4                      5                      6
                      A                      A                      A
 Frequencies --     56.1696                72.6501                91.0460
 Red. masses --      5.8848                 3.0050                 2.5724
 Frc consts  --      0.0109                 0.0093                 0.0126
 IR Inten    --      1.8708                 2.5565                 4.3950

                      7                      8                      9
                      A                      A                      A
 Frequencies --    131.9781               182.9481               211.4105
 Red. masses --      6.4151                 7.4382                 9.1075
 Frc consts  --      0.0658                 0.1467                 0.2398
 IR Inten    --     16.0992                12.5449                 0.3244

                     10                     11                     12
                      A                      A                      A
 Frequencies --    237.8834               274.5386               302.2531
 Red. masses --      5.2730                 6.6705                 4.0399
 Frc consts  --      0.1758                 0.2962                 0.2175
 IR Inten    --     11.2467                 7.3360                14.5809

                     13                     14                     15
                      A                      A                      A
 Frequencies --    379.3270               388.9796               435.0971
 Red. masses --      3.2053                 6.1452                 5.7465
 Frc consts  --      0.2717                 0.5478                 0.6410
 IR Inten    --      6.6721                57.9005                27.9790

                     16                     17                     18
                      A                      A                      A
 Frequencies --    489.9237               504.3576               557.5705
 Red. masses --      1.6624                 3.2318                 6.6518
 Frc consts  --      0.2351                 0.4844                 1.2184
 IR Inten    --    127.4950                60.7823                39.7095

                     19                     20                     21
                      A                      A                      A
 Frequencies --    726.7702               730.3816               749.9697
 Red. masses --      4.3101                 3.1359                 5.1827
 Frc consts  --      1.3413                 0.9856                 1.7175
 IR Inten    --    105.6501                11.1940                57.3755

                     22                     23                     24
                      A                      A                      A
 Frequencies --    751.9448               769.5775               828.0569
 Red. masses --      2.3908                 1.2715                 2.2611
 Frc consts  --      0.7965                 0.4437                 0.9135
 IR Inten    --     11.8292                27.5260                79.5219

                     25                     26                     27
                      A                      A                      A
 Frequencies --    892.0956               987.1734              1041.2510
 Red. masses --      4.2289                 2.1654                 3.6653
 Frc consts  --      1.9829                 1.2433                 2.3414
 IR Inten    --     36.6827               151.5336               122.6828

                     28                     29                     30
                      A                      A                      A
 Frequencies --   1058.2392              1063.7321              1087.0683
 Red. masses --      3.8544                 3.3161                 1.7345
 Frc consts  --      2.5432                 2.2107                 1.2076
 IR Inten    --     18.3253                12.3161                19.5705

                     31                     32                     33
                      A                      A                      A
 Frequencies --   1118.8424              1196.8963              1231.2877
 Red. masses --      1.5276                 2.0567                 1.5274
 Frc consts  --      1.1267                 1.7359                 1.3643
 IR Inten    --    225.2830               127.4185                88.8734

                     34                     35                     36
                      A                      A                      A
 Frequencies --   1275.0696              1300.8105              1303.9038
 Red. masses --      1.6572                 1.2026                 1.1914
 Frc consts  --      1.5875                 1.1990                 1.1934
 IR Inten    --     31.0386                47.8813                25.4953

                     37                     38                     39
                      A                      A                      A
 Frequencies --   1333.9585              1340.7944              1378.8845
 Red. masses --      1.8963                 1.2456                 1.4696
 Frc consts  --      1.9881                 1.3193                 1.6463
 IR Inten    --     24.1013                54.3521                78.3545

                     40                     41                     42
                      A                      A                      A
 Frequencies --   1405.5267              1410.2441              1479.5216
 Red. masses --      1.3115                 1.3629                 1.1051
 Frc consts  --      1.5265                 1.5970                 1.4252
 IR Inten    --     16.8390                 8.9613                22.3038

                     43                     44                     45
                      A                      A                      A
 Frequencies --   1495.2938              1501.3052              1509.7682
 Red. masses --      1.0874                 1.0943                 1.1042
 Frc consts  --      1.4325                 1.4532                 1.4830
 IR Inten    --      7.5530                11.3765                21.2832

                     46                     47                     48
                      A                      A                      A
 Frequencies --   1544.9899              1588.6366              1774.2482
 Red. masses --      2.6773                 5.1153                10.6832
 Frc consts  --      3.7653                 7.6062                19.8143
 IR Inten    --    733.6072               308.5383               519.6907

                     49                     50                     51
                      A                      A                      A
 Frequencies --   3117.9974              3138.2552              3138.4193
 Red. masses --      1.0597                 1.0568                 1.0605
 Frc consts  --      6.0699                 6.1322                 6.1546
 IR Inten    --     19.6403                23.9742                 0.8138

                     52                     53                     54
                      A                      A                      A
 Frequencies --   3148.6046              3173.4310              3205.4874
 Red. masses --      1.0577                 1.1078                 1.1078
 Frc consts  --      6.1782                 6.5732                 6.7067
 IR Inten    --     20.5163                 4.6954                 1.6081

                     55                     56                     57
                      A                      A                      A
 Frequencies --   3208.6471              3222.9333              3583.6676
 Red. masses --      1.1129                 1.1096                 1.0790
 Frc consts  --      6.7510                 6.7905                 8.1644
 IR Inten    --     12.1992                 1.7916               163.3793

 - Thermochemistry -
 -------------------
 Temperature   298.150 Kelvin.  Pressure   1.00000 Atm.
 Atom     1 has atomic number 17 and mass  34.96885

 Molecular mass:   213.00718 amu.
 Principal axes and moments of inertia in atomic units:
                           1         2         3
     Eigenvalues --  1121.302518006.446028877.55963
           X            1.00000   0.00163  -0.00004
           Y           -0.00163   1.00000  -0.00026
           Z            0.00004   0.00026   1.00000
 This molecule is an asymmetric top.
 Rotational symmetry number  1.
 Warning -- assumption of classical behavior for rotation
           may cause significant error
 Rotational temperatures (Kelvin)      0.07724     0.01082     0.00976
 Rotational constants (GHZ):           1.60950     0.22541     0.20329
 Zero-point vibrational energy     414149.6 (Joules/Mol)
                                   98.98413 (Kcal/Mol)
 Warning -- explicit consideration of  18 degrees of freedom as
           vibrations may cause significant error
 Vibrational temperatures:     34.42    53.14    71.56    80.82   104.53
          (Kelvin)            130.99   189.89   263.22   304.17   342.26
                              395.00   434.87   545.77   559.65   626.01
                              704.89   725.66   802.22  1045.66  1050.86
                             1079.04  1081.88  1107.25  1191.39  1283.53
                             1420.32  1498.13  1522.57  1530.47  1564.05
                             1609.76  1722.07  1771.55  1834.54  1871.58
                             1876.03  1919.27  1929.10  1983.91  2022.24
                             2029.03  2128.70  2151.39  2160.04  2172.22
                             2222.90  2285.69  2552.75  4486.10  4515.25
                             4515.49  4530.14  4565.86  4611.98  4616.53
                             4637.08  5156.10

 Zero-point correction=                           0.157741 (Hartree/Particle)
 Thermal correction to Energy=                    0.171189
 Thermal correction to Enthalpy=                  0.172133
 Thermal correction to Gibbs Free Energy=         0.113823
 Sum of electronic and zero-point Energies=          -1430.855978
 Sum of electronic and thermal Energies=             -1430.842531
 Sum of electronic and thermal Enthalpies=           -1430.841586
 Sum of electronic and thermal Free Energies=        -1430.899896

                     E (Thermal)             CV                S
                      KCal/Mol        Cal/Mol-Kelvin    Cal/Mol-Kelvin
 Total                  107.423             45.251            122.724
 Electronic               0.000              0.000              0.000
 Translational            0.889              2.981             41.972
 Rotational               0.889              2.981             32.744
 Vibrational            105.645             39.290             48.008
 Vibration     1          0.593              1.985              6.279
 Vibration     2          0.594              1.982              5.417
 Vibration     3          0.595              1.978              4.828
 Vibration     4          0.596              1.975              4.587
 Vibration     5          0.599              1.967              4.080
 Vibration     6          0.602              1.956              3.637
 Vibration     7          0.612              1.921              2.917
 Vibration     8          0.630              1.863              2.298
 Vibration     9          0.643              1.823              2.031
 Vibration    10          0.656              1.783              1.819
 Vibration    11          0.677              1.720              1.567
 Vibration    12          0.694              1.669              1.404
 Vibration    13          0.749              1.514              1.042
 Vibration    14          0.757              1.494              1.004
 Vibration    15          0.796              1.394              0.842
 Vibration    16          0.846              1.272              0.684
 Vibration    17          0.860              1.240              0.647
 Vibration    18          0.913              1.123              0.529

 Optimization completed.
    -- Stationary point found.
 Normal termination of Gaussian 16 at Tue Mar  1 20:55:31 2022.

 ------------------------------------------
 #p b3lyp/6-31G(d) geom=allcheck guess=read
 ------------------------------------------

 Structure from the checkpoint file:  "274.n.pdb.xyz.mst.wat.chk"
 -------------
 274.n.pdb.xyz
 -------------
 Charge =  0 Multiplicity = 1

 SCF Done:  E(RB3LYP) =  -1430.99914281     A.U. after   12 cycles
 Normal termination of Gaussian 16 at Tue Mar  1 20:56:32 2022.
 Gaussian 16:  ES64L-G16RevA.03 25-Dec-2016

 ----------------------------------------------------------------------
 #p b3lyp/6-31G(d) scrf=(iefpcm,read,solvent=water) geom=allcheck guess
 =read
 ----------------------------------------------------------------------

 Structure from the checkpoint file:  "274.n.pdb.xyz.mst.wat.chk"
 -------------
 274.n.pdb.xyz
 -------------
 Charge =  0 Multiplicity = 1

                         Standard orientation:
 ---------------------------------------------------------------------
 Center     Atomic      Atomic             Coordinates (Angstroms)
 Number     Number       Type             X           Y           Z
 ---------------------------------------------------------------------
      1         17           0        5.083672   -0.665804   -0.122300
      2          6           0        3.466515    0.079239   -0.506458
      3          6           0        2.593627    0.089262    0.747501
      4          7           0        1.301122    0.692348    0.472506
      5          6           0        0.253499   -0.058895    0.087319
      6          8           0        0.258487   -1.276901   -0.049404
      7          7           0       -0.965031    0.661013   -0.160474
      8          6           0       -2.158955   -0.053333   -0.614623
      9          6           0       -3.068075   -0.395624    0.562059
     10         17           0       -4.547839   -1.251750   -0.051429
     11          7           0       -0.959426    1.991654    0.017147
     12          8           0       -2.031586    2.546975   -0.187823
     13          1           0        3.667184    1.085259   -0.871859
     14          1           0        3.025256   -0.524822   -1.297579
     15          1           0        2.430004   -0.929964    1.097653
     16          1           0        3.079384    0.658673    1.541017
     17          1           0        1.203561    1.701199    0.515762
     18          1           0       -2.674529    0.598262   -1.319597
     19          1           0       -1.817204   -0.955616   -1.114938
     20          1           0       -3.412995    0.497082    1.078919
     21          1           0       -2.581353   -1.071239    1.262772
 ---------------------------------------------------------------------

 SCF Done:  E(RB3LYP) =  -1431.01270366     A.U. after   11 cycles

 The electronic state is 1-A.
 Alpha  occ. eigenvalues -- -101.54423-101.54078 -19.19678 -19.14194 -14.48720
 Alpha  occ. eigenvalues --  -14.43194 -14.37690 -10.34357 -10.25422 -10.24871
 Alpha  occ. eigenvalues --  -10.24358 -10.23755  -9.46078  -9.45733  -7.22458
 Alpha  occ. eigenvalues --   -7.22101  -7.21504  -7.21486  -7.21165  -7.21149
 Alpha  occ. eigenvalues --   -1.17729  -1.07555  -0.98042  -0.94344  -0.86524
 Alpha  occ. eigenvalues --   -0.85607  -0.78236  -0.75088  -0.69844  -0.65647
 Alpha  occ. eigenvalues --   -0.62603  -0.59663  -0.56443  -0.53396  -0.50739
 Alpha  occ. eigenvalues --   -0.49149  -0.48342  -0.47585  -0.45258  -0.44705
 Alpha  occ. eigenvalues --   -0.43230  -0.42870  -0.40875  -0.40781  -0.40167
 Alpha  occ. eigenvalues --   -0.38977  -0.38224  -0.31663  -0.31077  -0.30619
 Alpha  occ. eigenvalues --   -0.30362  -0.29858  -0.29446  -0.27178  -0.25841
 Alpha virt. eigenvalues --   -0.07706   0.01230   0.01935   0.05079   0.09951
 Alpha virt. eigenvalues --    0.11386   0.12078   0.12550   0.14074   0.15049
 Alpha virt. eigenvalues --    0.15336   0.15930   0.16635   0.18275   0.20141

 Mulliken charges:
               1
     1  Cl  -0.126743
     2  C   -0.358682
     3  C   -0.127583
     4  N   -0.618776
     5  C    0.841770
     6  O   -0.565882
     7  N   -0.319217
     8  C   -0.145355
     9  C   -0.365919
    10  Cl  -0.110148
    11  N    0.179544
    12  O   -0.384574
    13  H    0.219806
    14  H    0.219931
    15  H    0.193875
    16  H    0.191792
    17  H    0.406945
    18  H    0.205129
    19  H    0.211638
    20  H    0.226631
    21  H    0.225819
 Sum of Mulliken charges =  -0.00000

 Dipole moment (field-independent basis, Debye):
    X=              1.8316    Y=              2.8695    Z=              0.7926  Tot=              3.4953
 Quadrupole moment (field-independent basis, Debye-Ang):
   XX=           -109.2806   YY=            -93.7295   ZZ=            -79.2172
   XY=              8.3358   XZ=             -0.9559   YZ=              0.4840

 Normal termination of Gaussian 16 at Tue Mar  1 20:57:43 2022.
