 Gaussian 16, Revision A.03,

 ----------------------------------------------------------------------
 #p b3lyp/6-31G(d) opt=(MaxStep=10,MaxCycles=1000) freq scf=(MaxCycle=2
 000,NoVarAcc,NoIncFock) scrf=(iefpcm,read,solvent=water)
 ----------------------------------------------------------------------

 -------------
 277.n.pdb.xyz
 -------------
 Symbolic Z-matrix:
 Charge =  0 Multiplicity = 1

 SCF Done:  E(RB3LYP) =  -899.157703954     A.U. after   13 cycles
 SCF Done:  E(RB3LYP) =  -899.163039200     A.U. after   10 cycles
 SCF Done:  E(RB3LYP) =  -899.166706112     A.U. after   11 cycles
 SCF Done:  E(RB3LYP) =  -899.167086025     A.U. after   10 cycles
 SCF Done:  E(RB3LYP) =  -899.167254215     A.U. after   10 cycles
 SCF Done:  E(RB3LYP) =  -899.167323361     A.U. after   10 cycles
 SCF Done:  E(RB3LYP) =  -899.167352405     A.U. after   10 cycles
 SCF Done:  E(RB3LYP) =  -899.167386779     A.U. after   10 cycles
 SCF Done:  E(RB3LYP) =  -899.167426779     A.U. after   11 cycles
 SCF Done:  E(RB3LYP) =  -899.167514404     A.U. after   10 cycles
 SCF Done:  E(RB3LYP) =  -899.167561027     A.U. after    8 cycles
 SCF Done:  E(RB3LYP) =  -899.167560742     A.U. after    8 cycles
 SCF Done:  E(RB3LYP) =  -899.167561168     A.U. after    8 cycles
 SCF Done:  E(RB3LYP) =  -899.166460446     A.U. after   11 cycles
 SCF Done:  E(RB3LYP) =  -899.167508335     A.U. after   11 cycles
 SCF Done:  E(RB3LYP) =  -899.165823398     A.U. after   11 cycles
 SCF Done:  E(RB3LYP) =  -899.167580906     A.U. after    4 cycles
 Optimization completed.
    -- Stationary point found.
 Normal termination of Gaussian 16 at Wed Mar  2 04:38:10 2022.

 --------------------------------------------------------------------
 #P Geom=AllCheck Guess=TCheck SCRF=Check GenChk RB3LYP/6-31G(d) Freq
 --------------------------------------------------------------------

 Structure from the checkpoint file:  "277.n.pdb.xyz.mst.wat.chk"
 -------------
 277.n.pdb.xyz
 -------------
 Charge =  0 Multiplicity = 1

 SCF Done:  E(RB3LYP) =  -899.167580906     A.U. after    1 cycles

  Exact polarizability: 215.089 -15.015 178.646   1.595   6.277 110.440
 Approx polarizability: 234.629 -20.866 199.482   3.273   8.779 123.594

                      1                      2                      3
                      A                      A                      A
 Frequencies --      3.6453                40.4395                48.8377
 Red. masses --      5.2255                 6.4351                 8.1448
 Frc consts  --      0.0000                 0.0062                 0.0114
 IR Inten    --      5.5019                 3.0070                 0.3637

                      4                      5                      6
                      A                      A                      A
 Frequencies --     91.2415               109.4544               114.6412
 Red. masses --      5.0107                 4.4155                 3.5807
 Frc consts  --      0.0246                 0.0312                 0.0277
 IR Inten    --      4.3991                 2.6272                 8.8454

                      7                      8                      9
                      A                      A                      A
 Frequencies --    156.9532               166.7307               179.2358
 Red. masses --      1.6881                 1.8686                 4.5918
 Frc consts  --      0.0245                 0.0306                 0.0869
 IR Inten    --      1.7329                 4.7254                 4.0544

                     10                     11                     12
                      A                      A                      A
 Frequencies --    204.9522               243.8352               259.4887
 Red. masses --      3.8332                 8.6137                 4.2348
 Frc consts  --      0.0949                 0.3017                 0.1680
 IR Inten    --      4.1139                 9.4723                 2.5203

                     13                     14                     15
                      A                      A                      A
 Frequencies --    275.3662               322.4778               332.9387
 Red. masses --      3.3895                 2.7590                 5.2605
 Frc consts  --      0.1514                 0.1690                 0.3436
 IR Inten    --      3.2777                61.9103                 4.3351

                     16                     17                     18
                      A                      A                      A
 Frequencies --    365.9393               401.9720               404.9781
 Red. masses --      3.3908                 1.6619                 5.7740
 Frc consts  --      0.2675                 0.1582                 0.5579
 IR Inten    --    118.7836                83.9879                23.0430

                     19                     20                     21
                      A                      A                      A
 Frequencies --    421.6099               477.1138               491.2907
 Red. masses --      2.8722                 4.7914                 5.4437
 Frc consts  --      0.3008                 0.6426                 0.7741
 IR Inten    --     28.3770                18.5353                13.3754

                     22                     23                     24
                      A                      A                      A
 Frequencies --    521.3037               568.8323               590.4609
 Red. masses --      3.4575                 5.2899                 4.4573
 Frc consts  --      0.5536                 1.0085                 0.9156
 IR Inten    --     14.1037                19.4825                11.0888

                     25                     26                     27
                      A                      A                      A
 Frequencies --    646.6630               677.4861               679.6510
 Red. masses --      6.4360                 1.4346                 2.2323
 Frc consts  --      1.5857                 0.3880                 0.6075
 IR Inten    --      7.6694               103.6531                19.2622

                     28                     29                     30
                      A                      A                      A
 Frequencies --    742.3108               747.3260               764.8487
 Red. masses --      5.7051                11.4702                 7.5176
 Frc consts  --      1.8522                 3.7743                 2.5911
 IR Inten    --     13.9626                64.5906                35.4472

                     31                     32                     33
                      A                      A                      A
 Frequencies --    786.9539               849.2950               880.0114
 Red. masses --      7.4729                 2.1123                 2.9436
 Frc consts  --      2.7267                 0.8977                 1.3431
 IR Inten    --     29.7861                11.4772                 4.6059

                     34                     35                     36
                      A                      A                      A
 Frequencies --    925.0361               945.0189               977.4048
 Red. masses --      1.3817                 2.5118                 1.6441
 Frc consts  --      0.6966                 1.3216                 0.9254
 IR Inten    --     14.9629                35.8891                20.9100

                     37                     38                     39
                      A                      A                      A
 Frequencies --   1008.9379              1046.7504              1056.1985
 Red. masses --      2.2850                 2.1785                 5.2066
 Frc consts  --      1.3705                 1.4063                 3.4221
 IR Inten    --     12.9990                79.7396               349.9018

                     40                     41                     42
                      A                      A                      A
 Frequencies --   1077.3780              1082.6444              1097.0027
 Red. masses --      1.4641                 5.2445                 3.7758
 Frc consts  --      1.0013                 3.6218                 2.6772
 IR Inten    --      8.1183               239.2939                89.2503

                     43                     44                     45
                      A                      A                      A
 Frequencies --   1106.9013              1123.0027              1141.8286
 Red. masses --      4.1466                 2.5184                 2.7500
 Frc consts  --      2.9933                 1.8712                 2.1125
 IR Inten    --    103.8880                37.0549                 0.9174

                     46                     47                     48
                      A                      A                      A
 Frequencies --   1157.5704              1179.2786              1200.0270
 Red. masses --      2.1320                 1.8621                 2.6827
 Frc consts  --      1.6832                 1.5257                 2.2762
 IR Inten    --      8.3757                70.8712               115.7612

                     49                     50                     51
                      A                      A                      A
 Frequencies --   1243.6606              1256.5735              1285.9196
 Red. masses --      1.3615                 3.8140                 1.5675
 Frc consts  --      1.2407                 3.5482                 1.5271
 IR Inten    --     29.5373                 2.5349               136.3668

                     52                     53                     54
                      A                      A                      A
 Frequencies --   1300.8610              1318.2650              1341.0293
 Red. masses --      1.7034                 1.2479                 1.2245
 Frc consts  --      1.6983                 1.2777                 1.2974
 IR Inten    --    241.2700                 4.2119                 5.8508

                     55                     56                     57
                      A                      A                      A
 Frequencies --   1378.1539              1388.9036              1393.6497
 Red. masses --      1.3002                 1.3620                 2.4684
 Frc consts  --      1.4550                 1.5480                 2.8248
 IR Inten    --     57.9578                 4.2522               137.1039

                     58                     59                     60
                      A                      A                      A
 Frequencies --   1425.3114              1428.4345              1434.2943
 Red. masses --      1.3388                 1.3434                 1.4825
 Frc consts  --      1.6025                 1.6150                 1.7969
 IR Inten    --      2.0619                23.2955                 8.5189

                     61                     62                     63
                      A                      A                      A
 Frequencies --   1435.8609              1440.5399              1444.9138
 Red. masses --      1.5677                 1.5078                 1.7970
 Frc consts  --      1.9043                 1.8435                 2.2104
 IR Inten    --      9.9159               160.0556                12.7074

                     64                     65                     66
                      A                      A                      A
 Frequencies --   1490.5142              1492.3500              1507.7082
 Red. masses --      1.0446                 1.7916                 1.3242
 Frc consts  --      1.3674                 2.3509                 1.7735
 IR Inten    --      9.9330               155.2010               109.0135

                     67                     68                     69
                      A                      A                      A
 Frequencies --   1519.5634              1521.6353              1704.9128
 Red. masses --      1.0981                 1.1064                 6.5636
 Frc consts  --      1.4939                 1.5093                11.2408
 IR Inten    --      8.6774                 5.3034                72.7991

                     70                     71                     72
                      A                      A                      A
 Frequencies --   1729.0349              1761.6500              3033.8945
 Red. masses --      7.1608                11.8630                 1.0694
 Frc consts  --     12.6130                21.6913                 5.7994
 IR Inten    --   1730.1969               626.6700                39.8210

                     73                     74                     75
                      A                      A                      A
 Frequencies --   3047.1832              3061.5984              3097.4029
 Red. masses --      1.0829                 1.0370                 1.0856
 Frc consts  --      5.9242                 5.7271                 6.1367
 IR Inten    --     94.3237                45.1081                42.6560

                     76                     77                     78
                      A                      A                      A
 Frequencies --   3108.4864              3114.0925              3122.2456
 Red. masses --      1.0655                 1.1016                 1.0978
 Frc consts  --      6.0662                 6.2942                 6.3053
 IR Inten    --     22.2907                27.1569                58.6414

                     79                     80                     81
                      A                      A                      A
 Frequencies --   3150.7330              3155.9655              3175.9160
 Red. masses --      1.1019                 1.0877                 1.1022
 Frc consts  --      6.4449                 6.3828                 6.5499
 IR Inten    --     26.0359                 6.5993                26.1680

                     82                     83                     84
                      A                      A                      A
 Frequencies --   3263.9475              3569.1481              3732.4427
 Red. masses --      1.0919                 1.0784                 1.0666
 Frc consts  --      6.8538                 8.0936                 8.7544
 IR Inten    --      4.5888               166.9710                81.1319

 - Thermochemistry -
 -------------------
 Temperature   298.150 Kelvin.  Pressure   1.00000 Atm.
 Atom     1 has atomic number  6 and mass  12.00000

 Molecular mass:   244.08594 amu.
 Principal axes and moments of inertia in atomic units:
                           1         2         3
     Eigenvalues --  1943.776827675.894998399.69962
           X            0.99986  -0.01359  -0.00955
           Y            0.01355   0.99990  -0.00429
           Z            0.00961   0.00416   0.99995
 This molecule is an asymmetric top.
 Rotational symmetry number  1.
 Warning -- assumption of classical behavior for rotation
           may cause significant error
 Rotational temperatures (Kelvin)      0.04456     0.01128     0.01031
 Rotational constants (GHZ):           0.92847     0.23512     0.21486
 Zero-point vibrational energy     625467.9 (Joules/Mol)
                                  149.49041 (Kcal/Mol)
 Warning -- explicit consideration of  24 degrees of freedom as
           vibrations may cause significant error
 Vibrational temperatures:      5.24    58.18    70.27   131.28   157.48
          (Kelvin)            164.94   225.82   239.89   257.88   294.88
                              350.82   373.35   396.19   463.97   479.02
                              526.51   578.35   582.67   606.60   686.46
                              706.86   750.04   818.42   849.54   930.40
                              974.75   977.87  1068.02  1075.24  1100.45
                             1132.25  1221.95  1266.14  1330.92  1359.67
                             1406.27  1451.64  1506.04  1519.63  1550.11
                             1557.68  1578.34  1592.58  1615.75  1642.84
                             1665.49  1696.72  1726.57  1789.35  1807.93
                             1850.15  1871.65  1896.69  1929.44  1982.86
                             1998.32  2005.15  2050.71  2055.20  2063.63
                             2065.88  2072.62  2078.91  2144.52  2147.16
                             2169.26  2186.31  2189.29  2452.99  2487.70
                             2534.62  4365.10  4384.22  4404.96  4456.47
                             4472.42  4480.48  4492.22  4533.20  4540.73
                             4569.43  4696.09  5135.21  5370.15

 Zero-point correction=                           0.238228 (Hartree/Particle)
 Thermal correction to Energy=                    0.254181
 Thermal correction to Enthalpy=                  0.255125
 Thermal correction to Gibbs Free Energy=         0.191697
 Sum of electronic and zero-point Energies=           -898.929353
 Sum of electronic and thermal Energies=              -898.913400
 Sum of electronic and thermal Enthalpies=            -898.912456
 Sum of electronic and thermal Free Energies=         -898.975884

                     E (Thermal)             CV                S
                      KCal/Mol        Cal/Mol-Kelvin    Cal/Mol-Kelvin
 Total                  159.501             59.091            133.497
 Electronic               0.000              0.000              0.000
 Translational            0.889              2.981             42.378
 Rotational               0.889              2.981             33.194
 Vibrational            157.724             53.130             57.925
 Vibration     1          0.593              1.987             10.016
 Vibration     2          0.594              1.981              5.237
 Vibration     3          0.595              1.978              4.864
 Vibration     4          0.602              1.955              3.633
 Vibration     5          0.606              1.942              3.279
 Vibration     6          0.608              1.937              3.189
 Vibration     7          0.621              1.895              2.586
 Vibration     8          0.624              1.883              2.472
 Vibration     9          0.629              1.868              2.336
 Vibration    10          0.640              1.833              2.088
 Vibration    11          0.659              1.773              1.775
 Vibration    12          0.668              1.747              1.665
 Vibration    13          0.677              1.719              1.562
 Vibration    14          0.707              1.630              1.298
 Vibration    15          0.715              1.610              1.246
 Vibration    16          0.739              1.542              1.097
 Vibration    17          0.768              1.466              0.955
 Vibration    18          0.770              1.459              0.945
 Vibration    19          0.784              1.423              0.887
 Vibration    20          0.834              1.301              0.718
 Vibration    21          0.847              1.269              0.680
 Vibration    22          0.876              1.203              0.607
 Vibration    23          0.925              1.099              0.506
 Vibration    24          0.948              1.052              0.466

                           ! Non-Optimized Parameters !
 Normal termination of Gaussian 16 at Wed Mar  2 05:02:19 2022.

 ------------------------------------------
 #p b3lyp/6-31G(d) geom=allcheck guess=read
 ------------------------------------------

 Structure from the checkpoint file:  "277.n.pdb.xyz.mst.wat.chk"
 -------------
 277.n.pdb.xyz
 -------------
 Charge =  0 Multiplicity = 1

 SCF Done:  E(RB3LYP) =  -899.140688272     A.U. after   11 cycles
 Normal termination of Gaussian 16 at Wed Mar  2 05:04:08 2022.
 Gaussian 16:  ES64L-G16RevA.03 25-Dec-2016

 ----------------------------------------------------------------------
 #p b3lyp/6-31G(d) scrf=(iefpcm,read,solvent=water) geom=allcheck guess
 =read
 ----------------------------------------------------------------------

 Structure from the checkpoint file:  "277.n.pdb.xyz.mst.wat.chk"
 -------------
 277.n.pdb.xyz
 -------------
 Charge =  0 Multiplicity = 1

                         Standard orientation:
 ---------------------------------------------------------------------
 Center     Atomic      Atomic             Coordinates (Angstroms)
 Number     Number       Type             X           Y           Z
 ---------------------------------------------------------------------
      1          6           0       -2.834702    2.695759    0.287625
      2          6           0       -2.474268    1.250417    0.115274
      3          6           0       -1.198546    0.800750    0.096330
      4          7           0       -0.855821   -0.525791   -0.066023
      5          6           0        0.556522   -0.924091   -0.098283
      6          6           0        1.266595   -0.875047    1.258720
      7          6           0        2.688511   -0.496587    0.865181
      8          9           0        3.358860    0.164117    1.894148
      9          6           0        2.476776    0.434585   -0.335983
     10          6           0        3.589103    0.430210   -1.381768
     11          8           0        4.771215    1.046611   -0.893379
     12          8           0        1.266563   -0.032408   -0.959140
     13          6           0       -1.819784   -1.512137   -0.242320
     14          8           0       -1.549767   -2.699852   -0.396695
     15          7           0       -3.115096   -1.038701   -0.225144
     16          6           0       -3.546248    0.279633   -0.056031
     17          8           0       -4.748220    0.545967   -0.063095
     18          1           0       -1.937738    3.309014    0.396495
     19          1           0       -3.462489    2.842338    1.172672
     20          1           0       -3.403661    3.065331   -0.571687
     21          1           0       -0.356768    1.474399    0.185953
     22          1           0        0.555221   -1.926805   -0.521282
     23          1           0        1.189781   -1.818336    1.799102
     24          1           0        0.855442   -0.077904    1.883127
     25          1           0        3.289264   -1.369514    0.593052
     26          1           0        2.338622    1.457001    0.038911
     27          1           0        3.769473   -0.599207   -1.719863
     28          1           0        3.265698    1.014999   -2.246376
     29          1           0        5.159378    0.462322   -0.220480
     30          1           0       -3.837639   -1.742735   -0.352783
 ---------------------------------------------------------------------

 SCF Done:  E(RB3LYP) =  -899.165277946     A.U. after   11 cycles

 The electronic state is 1-A.
 Alpha  occ. eigenvalues --  -24.68914 -19.17414 -19.15120 -19.13367 -19.12858
 Alpha  occ. eigenvalues --  -14.40461 -14.38563 -10.34019 -10.30454 -10.29222
 Alpha  occ. eigenvalues --  -10.27444 -10.25270 -10.24715 -10.23561 -10.20648
 Alpha  occ. eigenvalues --  -10.20211 -10.18635  -1.19479  -1.08184  -1.06299
 Alpha  occ. eigenvalues --   -1.04092  -1.02182  -0.97705  -0.92802  -0.81847
 Alpha  occ. eigenvalues --   -0.80082  -0.77393  -0.71307  -0.69050  -0.67585
 Alpha  occ. eigenvalues --   -0.64739  -0.61799  -0.59922  -0.57009  -0.54561
 Alpha  occ. eigenvalues --   -0.53981  -0.51690  -0.50254  -0.49705  -0.48673
 Alpha  occ. eigenvalues --   -0.47238  -0.46563  -0.45305  -0.44453  -0.43695
 Alpha  occ. eigenvalues --   -0.42756  -0.42409  -0.42094  -0.41906  -0.40295
 Alpha  occ. eigenvalues --   -0.39352  -0.38575  -0.38335  -0.37386  -0.35762
 Alpha  occ. eigenvalues --   -0.34130  -0.33810  -0.31764  -0.30284  -0.28852
 Alpha  occ. eigenvalues --   -0.28519  -0.27217  -0.26463  -0.23490
 Alpha virt. eigenvalues --   -0.03555   0.00947   0.05910   0.08625   0.09325
 Alpha virt. eigenvalues --    0.09719   0.11448   0.11998   0.12358   0.12732
 Alpha virt. eigenvalues --    0.13741   0.15278   0.15602   0.16316   0.17878

 Mulliken charges:
               1
     1  C   -0.521636
     2  C    0.034588
     3  C    0.060794
     4  N   -0.503389
     5  C    0.264293
     6  C   -0.360276
     7  C    0.177858
     8  F   -0.334260
     9  C    0.106930
    10  C   -0.060633
    11  O   -0.661915
    12  O   -0.537247
    13  C    0.812546
    14  O   -0.572136
    15  N   -0.700599
    16  C    0.601891
    17  O   -0.573705
    18  H    0.168963
    19  H    0.172924
    20  H    0.172993
    21  H    0.202929
    22  H    0.193065
    23  H    0.195951
    24  H    0.184727
    25  H    0.167037
    26  H    0.155986
    27  H    0.147884
    28  H    0.165101
    29  H    0.441244
    30  H    0.398092
 Sum of Mulliken charges =  -0.00000

 Dipole moment (field-independent basis, Debye):
    X=              4.0873    Y=             -0.5233    Z=              1.6598  Tot=              4.4424
 Quadrupole moment (field-independent basis, Debye-Ang):
   XX=           -120.4629   YY=           -101.5043   ZZ=            -99.7766
   XY=             -8.3365   XZ=              1.1951   YZ=             -0.6438

 Normal termination of Gaussian 16 at Wed Mar  2 05:06:17 2022.
