 Gaussian 16, Revision A.03,

 ----------------------------------------------------------------------
 #p b3lyp/6-31G(d) opt=(MaxStep=10,MaxCycles=1000) freq scf=(MaxCycle=2
 000,NoVarAcc,NoIncFock) scrf=(iefpcm,read,solvent=water)
 ----------------------------------------------------------------------

 -------------
 278.n.pdb.xyz
 -------------
 Symbolic Z-matrix:
 Charge =  0 Multiplicity = 1

 SCF Done:  E(RB3LYP) =  -587.520197030     A.U. after   12 cycles
 SCF Done:  E(RB3LYP) =  -587.523202436     A.U. after   10 cycles
 SCF Done:  E(RB3LYP) =  -587.523974632     A.U. after   10 cycles
 SCF Done:  E(RB3LYP) =  -587.524078341     A.U. after    9 cycles
 SCF Done:  E(RB3LYP) =  -587.524110177     A.U. after    9 cycles
 SCF Done:  E(RB3LYP) =  -587.524109553     A.U. after    8 cycles
 Optimization completed.
    -- Stationary point found.
 Normal termination of Gaussian 16 at Wed Mar  2 03:36:18 2022.

 --------------------------------------------------------------------
 #P Geom=AllCheck Guess=TCheck SCRF=Check GenChk RB3LYP/6-31G(d) Freq
 --------------------------------------------------------------------

 Structure from the checkpoint file:  "278.n.pdb.xyz.mst.wat.chk"
 -------------
 278.n.pdb.xyz
 -------------
 Charge =  0 Multiplicity = 1

 SCF Done:  E(RB3LYP) =  -587.524109553     A.U. after    1 cycles

  Exact polarizability:  84.547  -0.678  80.742  -0.005  -0.012  37.598
 Approx polarizability:  87.663   1.498  94.683  -0.013  -0.021  42.661

 ******    1 imaginary frequencies (negative Signs) ******

                      1                      2                      3
                      A                      A                      A
 Frequencies --   -353.2693                54.5941               117.7721
 Red. masses --      1.2660                 4.0092                 1.0355
 Frc consts  --      0.0931                 0.0070                 0.0085
 IR Inten    --    409.8869                29.3191                 0.3664

                      4                      5                      6
                      A                      A                      A
 Frequencies --    239.8467               394.9636               423.4112
 Red. masses --      3.1793                 3.8855                 1.0723
 Frc consts  --      0.1078                 0.3571                 0.1133
 IR Inten    --     16.9583                 6.3992                 0.7833

                      7                      8                      9
                      A                      A                      A
 Frequencies --    477.2169               601.6751               657.6444
 Red. masses --      5.9944                 2.4208                 2.8709
 Frc consts  --      0.8043                 0.5163                 0.7316
 IR Inten    --     11.2019                18.0965                82.1100

                     10                     11                     12
                      A                      A                      A
 Frequencies --    728.9748               769.9174               981.3613
 Red. masses --      6.1170                 1.5169                 1.1834
 Frc consts  --      1.9152                 0.5298                 0.6715
 IR Inten    --      7.8711               103.1445                 8.2116

                     13                     14                     15
                      A                      A                      A
 Frequencies --    983.9301              1092.1490              1138.5466
 Red. masses --      1.2908                 1.5905                 1.7906
 Frc consts  --      0.7363                 1.1178                 1.3676
 IR Inten    --     23.3743                 1.6703               178.1574

                     16                     17                     18
                      A                      A                      A
 Frequencies --   1353.5903              1381.6639              1464.2050
 Red. masses --      1.2584                 1.9592                 1.0523
 Frc consts  --      1.3585                 2.2035                 1.3292
 IR Inten    --     87.3243               249.2451                11.1931

                     19                     20                     21
                      A                      A                      A
 Frequencies --   1479.0340              1628.0695              1660.2614
 Red. masses --      1.0509                 1.2790                 4.7918
 Frc consts  --      1.3545                 1.9974                 7.7822
 IR Inten    --     22.9091               109.0880               653.1705

                     22                     23                     24
                      A                      A                      A
 Frequencies --   3092.8327              3185.5342              3192.2951
 Red. masses --      1.0292                 1.1056                 1.1087
 Frc consts  --      5.8005                 6.6104                 6.6569
 IR Inten    --     23.9542                 8.3858                 9.0042

                     25                     26                     27
                      A                      A                      A
 Frequencies --   3427.2312              3576.4592              3692.9701
 Red. masses --      1.0739                 1.0456                 1.1072
 Frc consts  --      7.4319                 7.8800                 8.8965
 IR Inten    --      4.2253               140.8450               112.4136

 - Thermochemistry -
 -------------------
 Temperature   298.150 Kelvin.  Pressure   1.00000 Atm.
 Atom     1 has atomic number  6 and mass  12.00000

 Molecular mass:    90.02517 amu.
 Principal axes and moments of inertia in atomic units:
                           1         2         3
     Eigenvalues --   247.01628 578.91302 814.48253
           X            0.99901   0.04448   0.00004
           Y           -0.04448   0.99901   0.00000
           Z           -0.00004  -0.00000   1.00000
 This molecule is an asymmetric top.
 Rotational symmetry number  1.
 Rotational temperatures (Kelvin)      0.35064     0.14961     0.10634
 Rotational constants (GHZ):           7.30616     3.11747     2.21581
    1 imaginary frequencies ignored.
 Zero-point vibrational energy     226071.2 (Joules/Mol)
                                   54.03231 (Kcal/Mol)
 Warning -- explicit consideration of   7 degrees of freedom as
           vibrations may cause significant error
 Vibrational temperatures:     78.55   169.45   345.09   568.26   609.19
          (Kelvin)            686.61   865.68   946.20  1048.83  1107.74
                             1411.96  1415.66  1571.36  1638.11  1947.51
                             1987.91  2106.66  2128.00  2342.43  2388.75
                             4449.90  4583.27  4593.00  4931.02  5145.73
                             5313.36

 Zero-point correction=                           0.086106 (Hartree/Particle)
 Thermal correction to Energy=                    0.092447
 Thermal correction to Enthalpy=                  0.093391
 Thermal correction to Gibbs Free Energy=         0.055600
 Sum of electronic and zero-point Energies=           -587.438004
 Sum of electronic and thermal Energies=              -587.431662
 Sum of electronic and thermal Enthalpies=            -587.430718
 Sum of electronic and thermal Free Energies=         -587.468509

                     E (Thermal)             CV                S
                      KCal/Mol        Cal/Mol-Kelvin    Cal/Mol-Kelvin
 Total                   58.012             21.090             79.538
 Electronic               0.000              0.000              0.000
 Translational            0.889              2.981             39.405
 Rotational               0.889              2.981             26.257
 Vibrational             56.234             15.128             13.876
 Vibration     1          0.596              1.976              4.644
 Vibration     2          0.608              1.935              3.137
 Vibration     3          0.657              1.779              1.804
 Vibration     4          0.762              1.481              0.981
 Vibration     5          0.786              1.419              0.880
 Vibration     6          0.834              1.301              0.718
 Vibration     7          0.960              1.028              0.447

 Optimization completed.
    -- Stationary point found.
 Normal termination of Gaussian 16 at Wed Mar  2 03:37:38 2022.

 ------------------------------------------
 #p b3lyp/6-31G(d) geom=allcheck guess=read
 ------------------------------------------

 Structure from the checkpoint file:  "278.n.pdb.xyz.mst.wat.chk"
 -------------
 278.n.pdb.xyz
 -------------
 Charge =  0 Multiplicity = 1

 SCF Done:  E(RB3LYP) =  -587.503388608     A.U. after   11 cycles
 Normal termination of Gaussian 16 at Wed Mar  2 03:37:48 2022.
 Gaussian 16:  ES64L-G16RevA.03 25-Dec-2016

 ----------------------------------------------------------------------
 #p b3lyp/6-31G(d) scrf=(iefpcm,read,solvent=water) geom=allcheck guess
 =read
 ----------------------------------------------------------------------

 Structure from the checkpoint file:  "278.n.pdb.xyz.mst.wat.chk"
 -------------
 278.n.pdb.xyz
 -------------
 Charge =  0 Multiplicity = 1

                         Standard orientation:
 ---------------------------------------------------------------------
 Center     Atomic      Atomic             Coordinates (Angstroms)
 Number     Number       Type             X           Y           Z
 ---------------------------------------------------------------------
      1          6           0        1.985642    0.474282    0.000521
      2         16           0        0.692358   -0.805997   -0.000494
      3          6           0       -0.803584    0.203510    0.000633
      4          7           0       -1.929571   -0.559438    0.000555
      5          7           0       -0.717524    1.486323   -0.000613
      6          1           0        1.912791    1.096322   -0.890811
      7          1           0        2.935465   -0.062808    0.000625
      8          1           0        1.911665    1.095188    0.892579
      9          1           0       -2.835834   -0.109486   -0.000774
     10          1           0       -1.905022   -1.570031    0.000181
     11          1           0       -1.659469    1.891824   -0.000405
 ---------------------------------------------------------------------

 SCF Done:  E(RB3LYP) =  -587.523052912     A.U. after   11 cycles

 The electronic state is 1-A.
 Alpha  occ. eigenvalues --  -88.88384 -14.34583 -14.29294 -10.28259 -10.20805
 Alpha  occ. eigenvalues --   -7.94600  -5.91107  -5.90698  -5.90106  -0.94665
 Alpha  occ. eigenvalues --   -0.84545  -0.78078  -0.66595  -0.56756  -0.51974
 Alpha  occ. eigenvalues --   -0.50479  -0.42989  -0.42826  -0.38137  -0.38094
 Alpha  occ. eigenvalues --   -0.33255  -0.27139  -0.24378  -0.23169
 Alpha virt. eigenvalues --    0.03041   0.04403   0.07405   0.11044   0.14343
 Alpha virt. eigenvalues --    0.14665   0.16230   0.16373   0.18360   0.29135
 Alpha virt. eigenvalues --    0.31866   0.37154   0.37818   0.39594   0.42882

 Mulliken charges:
               1
     1  C   -0.567613
     2  S    0.060898
     3  C    0.309964
     4  N   -0.768768
     5  N   -0.719703
     6  H    0.196161
     7  H    0.194035
     8  H    0.196129
     9  H    0.389451
    10  H    0.391284
    11  H    0.318163
 Sum of Mulliken charges =  -0.00000

 Dipole moment (field-independent basis, Debye):
    X=             -2.8874    Y=             -1.5689    Z=              0.0001  Tot=              3.2861
 Quadrupole moment (field-independent basis, Debye-Ang):
   XX=            -22.0659   YY=            -39.6912   ZZ=            -40.5268
   XY=              1.9237   XZ=              0.0075   YZ=              0.0036

 Normal termination of Gaussian 16 at Wed Mar  2 03:38:03 2022.
