 Gaussian 16, Revision A.03,

 ----------------------------------------------------------------------
 #p b3lyp/6-31G(d) opt=(MaxStep=10,MaxCycles=1000) freq scf=(MaxCycle=2
 000,NoVarAcc,NoIncFock) scrf=(iefpcm,read,solvent=water)
 ----------------------------------------------------------------------

 -------------
 281.n.pdb.xyz
 -------------
 Symbolic Z-matrix:
 Charge =  0 Multiplicity = 1

 SCF Done:  E(RB3LYP) =  -1233.26240014     A.U. after   13 cycles
 SCF Done:  E(RB3LYP) =  -1233.26687559     A.U. after   11 cycles
 SCF Done:  E(RB3LYP) =  -1233.26787194     A.U. after   11 cycles
 SCF Done:  E(RB3LYP) =  -1233.26908120     A.U. after   11 cycles
 SCF Done:  E(RB3LYP) =  -1233.26603542     A.U. after   12 cycles
 SCF Done:  E(RB3LYP) =  -1233.26994433     A.U. after   11 cycles
 SCF Done:  E(RB3LYP) =  -1233.27006491     A.U. after   10 cycles
 SCF Done:  E(RB3LYP) =  -1233.27021103     A.U. after   11 cycles
 SCF Done:  E(RB3LYP) =  -1233.27023875     A.U. after   10 cycles
 SCF Done:  E(RB3LYP) =  -1233.27022454     A.U. after   10 cycles
 SCF Done:  E(RB3LYP) =  -1233.27038707     A.U. after    9 cycles
 SCF Done:  E(RB3LYP) =  -1233.27038279     A.U. after    9 cycles
 SCF Done:  E(RB3LYP) =  -1233.27038464     A.U. after    8 cycles
 SCF Done:  E(RB3LYP) =  -1233.27038731     A.U. after    9 cycles
 SCF Done:  E(RB3LYP) =  -1233.27038255     A.U. after    9 cycles
 SCF Done:  E(RB3LYP) =  -1233.27038248     A.U. after    8 cycles
 SCF Done:  E(RB3LYP) =  -1233.27038285     A.U. after    7 cycles
 Optimization completed.
    -- Stationary point found.
 Normal termination of Gaussian 16 at Tue Mar  1 07:53:31 2022.

 --------------------------------------------------------------------
 #P Geom=AllCheck Guess=TCheck SCRF=Check GenChk RB3LYP/6-31G(d) Freq
 --------------------------------------------------------------------

 Structure from the checkpoint file:  "281.n.pdb.xyz.mst.wat.chk"
 -------------
 281.n.pdb.xyz
 -------------
 Charge =  0 Multiplicity = 1

 SCF Done:  E(RB3LYP) =  -1233.27038285     A.U. after    1 cycles

  Exact polarizability: 338.044 -34.963 232.388  -7.030  -7.978 163.199
 Approx polarizability: 366.834 -47.918 284.196 -10.099  -9.592 196.855

                      1                      2                      3
                      A                      A                      A
 Frequencies --      6.9977                14.7932                26.9024
 Red. masses --      4.9200                 6.3713                 6.5778
 Frc consts  --      0.0001                 0.0008                 0.0028
 IR Inten    --      4.6909                 1.0938                 3.2782

                      4                      5                      6
                      A                      A                      A
 Frequencies --     37.0546                49.2637                73.0187
 Red. masses --      4.3137                 6.0393                 6.8684
 Frc consts  --      0.0035                 0.0086                 0.0216
 IR Inten    --      2.2218                 6.6636                 8.0514

                      7                      8                      9
                      A                      A                      A
 Frequencies --     76.5787               106.4045               132.2388
 Red. masses --      2.0794                 5.8029                 6.9705
 Frc consts  --      0.0072                 0.0387                 0.0718
 IR Inten    --      0.6295                 4.7788                 0.9024

                     10                     11                     12
                      A                      A                      A
 Frequencies --    148.3405               159.2302               183.1326
 Red. masses --      5.0236                 7.5256                 5.5586
 Frc consts  --      0.0651                 0.1124                 0.1098
 IR Inten    --     15.7198                 1.2662                 2.6719

                     13                     14                     15
                      A                      A                      A
 Frequencies --    242.5066               290.3204               296.8866
 Red. masses --      6.0740                 6.2025                 6.7465
 Frc consts  --      0.2105                 0.3080                 0.3504
 IR Inten    --      3.8698                 2.3654                 3.0153

                     16                     17                     18
                      A                      A                      A
 Frequencies --    325.2306               342.3178               415.6381
 Red. masses --      4.9246                 2.3362                 3.6923
 Frc consts  --      0.3069                 0.1613                 0.3758
 IR Inten    --      0.9981                 5.6195                53.2622

                     19                     20                     21
                      A                      A                      A
 Frequencies --    418.0441               467.4252               469.2409
 Red. masses --      3.6219                 5.0195                 1.3314
 Frc consts  --      0.3729                 0.6461                 0.1727
 IR Inten    --     11.5241                13.8502               250.2831

                     22                     23                     24
                      A                      A                      A
 Frequencies --    485.8950               500.0379               593.9466
 Red. masses --      1.2739                 3.5769                 5.3978
 Frc consts  --      0.1772                 0.5269                 1.1219
 IR Inten    --     35.6945                 6.5059                 7.8184

                     25                     26                     27
                      A                      A                      A
 Frequencies --    603.6350               625.7754               640.6194
 Red. masses --      3.1481                 5.4055                 6.6253
 Frc consts  --      0.6758                 1.2472                 1.6020
 IR Inten    --      0.3211                 5.1470                 2.4858

                     28                     29                     30
                      A                      A                      A
 Frequencies --    669.1401               711.7071               724.8888
 Red. masses --      2.3771                 4.8790                 6.7267
 Frc consts  --      0.6271                 1.4561                 2.0826
 IR Inten    --     42.1093                22.3613                10.3993

                     31                     32                     33
                      A                      A                      A
 Frequencies --    728.0956               757.0600               768.6134
 Red. masses --      2.0689                 9.6884                 1.6909
 Frc consts  --      0.6462                 3.2716                 0.5886
 IR Inten    --     54.9183                19.7848                21.6078

                     34                     35                     36
                      A                      A                      A
 Frequencies --    789.8384               805.5814               817.2423
 Red. masses --      5.4824                 1.1500                 2.8545
 Frc consts  --      2.0151                 0.4397                 1.1233
 IR Inten    --      7.0394                 1.5466                14.1245

                     37                     38                     39
                      A                      A                      A
 Frequencies --    844.4971               851.9210               856.0171
 Red. masses --      5.6019                 4.7631                 1.2708
 Frc consts  --      2.3539                 2.0368                 0.5487
 IR Inten    --     42.9587                15.1793                 2.8971

                     40                     41                     42
                      A                      A                      A
 Frequencies --    907.6474               908.3447               920.2232
 Red. masses --      1.5755                 4.3058                 1.3424
 Frc consts  --      0.7647                 2.0932                 0.6697
 IR Inten    --      3.0971                53.8906                 1.4462

                     43                     44                     45
                      A                      A                      A
 Frequencies --    985.9334              1013.2931              1022.2601
 Red. masses --      1.4066                 7.0158                 1.3021
 Frc consts  --      0.8056                 4.2442                 0.8017
 IR Inten    --      0.1785                15.3285                 0.0092

                     46                     47                     48
                      A                      A                      A
 Frequencies --   1038.9073              1063.5225              1074.4813
 Red. masses --      1.3602                 2.5817                 2.8008
 Frc consts  --      0.8650                 1.7204                 1.9051
 IR Inten    --      8.5447                35.7754                 3.6300

                     49                     50                     51
                      A                      A                      A
 Frequencies --   1077.9152              1082.1600              1111.8689
 Red. masses --      2.3029                 1.6994                 1.4488
 Frc consts  --      1.5765                 1.1726                 1.0553
 IR Inten    --      6.5143                10.2326                 7.5196

                     52                     53                     54
                      A                      A                      A
 Frequencies --   1127.1020              1158.7380              1182.8100
 Red. masses --      2.2890                 1.1607                 1.1480
 Frc consts  --      1.7132                 0.9182                 0.9462
 IR Inten    --     76.2408                 0.1718                14.9223

                     55                     56                     57
                      A                      A                      A
 Frequencies --   1183.1477              1214.9373              1245.4126
 Red. masses --      2.4176                 1.2117                 1.8225
 Frc consts  --      1.9940                 1.0538                 1.6655
 IR Inten    --    384.8164                55.6319                68.4395

                     58                     59                     60
                      A                      A                      A
 Frequencies --   1248.2602              1276.0534              1302.3941
 Red. masses --      2.4430                 1.6948                 1.6880
 Frc consts  --      2.2427                 1.6259                 1.6870
 IR Inten    --     40.6264                 4.0848                17.5305

                     61                     62                     63
                      A                      A                      A
 Frequencies --   1320.2567              1325.5959              1345.7345
 Red. masses --      3.0058                 1.1192                 1.5754
 Frc consts  --      3.0869                 1.1588                 1.6810
 IR Inten    --      4.3803                17.5369                 5.7736

                     64                     65                     66
                      A                      A                      A
 Frequencies --   1359.9207              1379.9021              1415.8805
 Red. masses --      2.8710                 1.9859                 3.8680
 Frc consts  --      3.1283                 2.2279                 4.5687
 IR Inten    --    241.5043                43.2074               702.9518

                     67                     68                     69
                      A                      A                      A
 Frequencies --   1434.6469              1469.9347              1478.9414
 Red. masses --      1.6718                 2.8619                 1.9207
 Frc consts  --      2.0274                 3.6434                 2.4752
 IR Inten    --    150.6560                82.2845                26.8638

                     70                     71                     72
                      A                      A                      A
 Frequencies --   1487.6584              1491.1306              1505.5562
 Red. masses --      5.4662                 1.1940                 1.0994
 Frc consts  --      7.1275                 1.5642                 1.4682
 IR Inten    --    799.2785                16.0770                 6.0367

                     73                     74                     75
                      A                      A                      A
 Frequencies --   1522.1886              1543.0367              1562.9030
 Red. masses --      2.2682                 1.1040                 2.5161
 Frc consts  --      3.0965                 1.5488                 3.6212
 IR Inten    --     46.4983                38.2435               206.2153

                     76                     77                     78
                      A                      A                      A
 Frequencies --   1606.1137              1630.4605              1648.9772
 Red. masses --      3.5887                 5.7729                 5.3690
 Frc consts  --      5.4544                 9.0420                 8.6015
 IR Inten    --     52.7973                31.0139                75.3880

                     79                     80                     81
                      A                      A                      A
 Frequencies --   1679.7946              3040.3837              3080.4461
 Red. masses --      4.8987                 1.0636                 1.0606
 Frc consts  --      8.1441                 5.7930                 5.9299
 IR Inten    --    889.7769                60.4624                36.8043

                     82                     83                     84
                      A                      A                      A
 Frequencies --   3088.5517              3099.8219              3138.5031
 Red. masses --      1.0954                 1.0581                 1.1098
 Frc consts  --      6.1563                 5.9905                 6.4408
 IR Inten    --     43.4993                22.5338                33.7998

                     85                     86                     87
                      A                      A                      A
 Frequencies --   3163.5167              3194.7677              3216.7995
 Red. masses --      1.1090                 1.0894                 1.0880
 Frc consts  --      6.5394                 6.5510                 6.6331
 IR Inten    --      7.9780                42.4970                 6.5409

                     88                     89                     90
                      A                      A                      A
 Frequencies --   3229.0474              3239.5832              3302.2957
 Red. masses --      1.0930                 1.0979                 1.0904
 Frc consts  --      6.7148                 6.7890                 7.0057
 IR Inten    --     30.4088                22.4365                 3.6455

                     91                     92                     93
                      A                      A                      A
 Frequencies --   3319.1161              3536.5300              3622.5936
 Red. masses --      1.1057                 1.0777                 1.0818
 Frc consts  --      7.1770                 7.9419                 8.3644
 IR Inten    --      0.9086               142.5459               214.8870

 - Thermochemistry -
 -------------------
 Temperature   298.150 Kelvin.  Pressure   1.00000 Atm.
 Atom     1 has atomic number  8 and mass  15.99491

 Molecular mass:   278.08375 amu.
 Principal axes and moments of inertia in atomic units:
                           1         2         3
     Eigenvalues --  1543.24770********************
           X            0.99998   0.00641  -0.00103
           Y           -0.00642   0.99993  -0.00965
           Z            0.00096   0.00965   0.99995
 This molecule is an asymmetric top.
 Rotational symmetry number  1.
 Warning -- assumption of classical behavior for rotation
           may cause significant error
 Rotational temperatures (Kelvin)      0.05612     0.00438     0.00419
 Rotational constants (GHZ):           1.16944     0.09132     0.08727
 Zero-point vibrational energy     679969.8 (Joules/Mol)
                                  162.51669 (Kcal/Mol)
 Warning -- explicit consideration of  25 degrees of freedom as
           vibrations may cause significant error
 Vibrational temperatures:     10.07    21.28    38.71    53.31    70.88
          (Kelvin)            105.06   110.18   153.09   190.26   213.43
                              229.10   263.49   348.91   417.71   427.15
                              467.93   492.52   598.01   601.47   672.52
                              675.13   699.09   719.44   854.56   868.50
                              900.35   921.71   962.74  1023.99  1042.95
                             1047.57  1089.24  1105.86  1136.40  1159.05
                             1175.83  1215.04  1225.72  1231.62  1305.90
                             1306.91  1324.00  1418.54  1457.90  1470.80
                             1494.76  1530.17  1545.94  1550.88  1556.99
                             1599.73  1621.65  1667.17  1701.80  1702.29
                             1748.02  1791.87  1795.97  1835.96  1873.85
                             1899.55  1907.24  1936.21  1956.62  1985.37
                             2037.14  2064.14  2114.91  2127.87  2140.41
                             2145.40  2166.16  2190.09  2220.09  2248.67
                             2310.84  2345.87  2372.51  2416.85  4374.43
                             4432.07  4443.74  4459.95  4515.61  4551.59
                             4596.56  4628.26  4645.88  4661.04  4751.27
                             4775.47  5088.28  5212.10

 Zero-point correction=                           0.258987 (Hartree/Particle)
 Thermal correction to Energy=                    0.277058
 Thermal correction to Enthalpy=                  0.278002
 Thermal correction to Gibbs Free Energy=         0.206884
 Sum of electronic and zero-point Energies=          -1233.011396
 Sum of electronic and thermal Energies=             -1232.993325
 Sum of electronic and thermal Enthalpies=           -1232.992381
 Sum of electronic and thermal Free Energies=        -1233.063498

                     E (Thermal)             CV                S
                      KCal/Mol        Cal/Mol-Kelvin    Cal/Mol-Kelvin
 Total                  173.856             65.813            149.679
 Electronic               0.000              0.000              0.000
 Translational            0.889              2.981             42.767
 Rotational               0.889              2.981             34.799
 Vibrational            172.079             59.852             72.113
 Vibration     1          0.593              1.987              8.720
 Vibration     2          0.593              1.986              7.233
 Vibration     3          0.593              1.984              6.046
 Vibration     4          0.594              1.982              5.411
 Vibration     5          0.595              1.978              4.847
 Vibration     6          0.599              1.967              4.070
 Vibration     7          0.599              1.965              3.977
 Vibration     8          0.605              1.944              3.333
 Vibration     9          0.612              1.921              2.913
 Vibration    10          0.618              1.904              2.693
 Vibration    11          0.621              1.892              2.559
 Vibration    12          0.631              1.863              2.296
 Vibration    13          0.659              1.775              1.784
 Vibration    14          0.686              1.692              1.472
 Vibration    15          0.691              1.680              1.434
 Vibration    16          0.709              1.625              1.284
 Vibration    17          0.721              1.591              1.201
 Vibration    18          0.779              1.436              0.907
 Vibration    19          0.781              1.431              0.899
 Vibration    20          0.825              1.322              0.745
 Vibration    21          0.826              1.318              0.740
 Vibration    22          0.842              1.281              0.694
 Vibration    23          0.855              1.250              0.658
 Vibration    24          0.952              1.045              0.460
 Vibration    25          0.962              1.024              0.443

                           ! Non-Optimized Parameters !
 Normal termination of Gaussian 16 at Tue Mar  1 08:19:44 2022.

 ------------------------------------------
 #p b3lyp/6-31G(d) geom=allcheck guess=read
 ------------------------------------------

 Structure from the checkpoint file:  "281.n.pdb.xyz.mst.wat.chk"
 -------------
 281.n.pdb.xyz
 -------------
 Charge =  0 Multiplicity = 1

 SCF Done:  E(RB3LYP) =  -1233.23842249     A.U. after   12 cycles
 Normal termination of Gaussian 16 at Tue Mar  1 08:21:50 2022.
 Gaussian 16:  ES64L-G16RevA.03 25-Dec-2016

 ----------------------------------------------------------------------
 #p b3lyp/6-31G(d) scrf=(iefpcm,read,solvent=water) geom=allcheck guess
 =read
 ----------------------------------------------------------------------

 Structure from the checkpoint file:  "281.n.pdb.xyz.mst.wat.chk"
 -------------
 281.n.pdb.xyz
 -------------
 Charge =  0 Multiplicity = 1

                         Standard orientation:
 ---------------------------------------------------------------------
 Center     Atomic      Atomic             Coordinates (Angstroms)
 Number     Number       Type             X           Y           Z
 ---------------------------------------------------------------------
      1          8           0        3.979138   -2.162795   -0.111668
      2          7           0        4.941676   -1.342567   -0.102044
      3          8           0        6.131717   -1.728998   -0.155350
      4          6           0        4.670264    0.006725   -0.031510
      5          6           0        3.361998    0.563302    0.037471
      6          7           0        2.179127   -0.073412    0.014760
      7          6           0        0.896716    0.582272    0.222659
      8          6           0       -0.235008   -0.411024   -0.023109
      9         16           0       -1.841991    0.448533    0.189646
     10          6           0       -2.981073   -0.961945   -0.166222
     11          6           0       -4.408852   -0.487075   -0.100618
     12          7           0       -4.917916    0.041850   -1.227771
     13          6           0       -6.184020    0.478657   -1.197238
     14          6           0       -6.997194    0.416941   -0.066295
     15          6           0       -6.463675   -0.129856    1.099106
     16          6           0       -5.148115   -0.588100    1.082850
     17          7           0        3.529905    1.908359    0.106348
     18          6           0        4.892621    2.231762    0.083324
     19          6           0        5.618349    1.085957   -0.001479
     20          1           0        2.256643   -1.084055    0.090059
     21          1           0        0.828581    0.991475    1.238771
     22          1           0        0.805052    1.420068   -0.476406
     23          1           0       -0.170904   -0.810089   -1.038452
     24          1           0       -0.176072   -1.240398    0.686980
     25          1           0       -2.795720   -1.751608    0.565192
     26          1           0       -2.760243   -1.333551   -1.166942
     27          1           0       -6.566959    0.895880   -2.124697
     28          1           0       -8.015974    0.784671   -0.103819
     29          1           0       -7.059790   -0.201392    2.002332
     30          1           0       -4.697743   -1.022544    1.968270
     31          1           0        2.786506    2.590303    0.196550
     32          1           0        5.199070    3.264083    0.131659
     33          1           0        6.690963    0.989666   -0.040383
 ---------------------------------------------------------------------

 SCF Done:  E(RB3LYP) =  -1233.26758162     A.U. after   12 cycles

 The electronic state is 1-A.
 Alpha  occ. eigenvalues --  -88.88048 -19.15600 -19.15404 -14.54904 -14.39191
 Alpha  occ. eigenvalues --  -14.37252 -14.33802 -10.28766 -10.23976 -10.23884
 Alpha  occ. eigenvalues --  -10.22690 -10.22475 -10.22420 -10.22173 -10.22079
 Alpha  occ. eigenvalues --  -10.21002 -10.20164 -10.20018 -10.19012  -7.94165
 Alpha  occ. eigenvalues --   -5.90688  -5.90328  -5.89606  -1.18947  -1.01623
 Alpha  occ. eigenvalues --   -1.00906  -0.94892  -0.93946  -0.83278  -0.82142
 Alpha  occ. eigenvalues --   -0.80587  -0.78816  -0.75290  -0.73515  -0.69589
 Alpha  occ. eigenvalues --   -0.66606  -0.63493  -0.62335  -0.59929  -0.59276
 Alpha  occ. eigenvalues --   -0.57712  -0.55755  -0.51823  -0.51344  -0.51123
 Alpha  occ. eigenvalues --   -0.49589  -0.49541  -0.49084  -0.48034  -0.46830
 Alpha  occ. eigenvalues --   -0.46396  -0.43791  -0.43273  -0.43143  -0.42381
 Alpha  occ. eigenvalues --   -0.41838  -0.40165  -0.39714  -0.39246  -0.38343
 Alpha  occ. eigenvalues --   -0.37908  -0.35786  -0.32485  -0.31092  -0.29883
 Alpha  occ. eigenvalues --   -0.29108  -0.29061  -0.27317  -0.26823  -0.26716
 Alpha  occ. eigenvalues --   -0.26057  -0.23296  -0.19949
 Alpha virt. eigenvalues --   -0.06136  -0.03250  -0.01888   0.02430   0.04196
 Alpha virt. eigenvalues --    0.07586   0.08783   0.09330   0.09751   0.10674
 Alpha virt. eigenvalues --    0.12065   0.12810   0.13044   0.14027   0.14827

 Mulliken charges:
               1
     1  O   -0.526533
     2  N    0.296926
     3  O   -0.511505
     4  C    0.237350
     5  C    0.623757
     6  N   -0.675556
     7  C   -0.124932
     8  C   -0.442065
     9  S    0.054721
    10  C   -0.472314
    11  C    0.282999
    12  N   -0.502292
    13  C    0.030152
    14  C   -0.148268
    15  C   -0.109332
    16  C   -0.163119
    17  N   -0.658406
    18  C    0.023663
    19  C   -0.199902
    20  H    0.386861
    21  H    0.184177
    22  H    0.185605
    23  H    0.201657
    24  H    0.201128
    25  H    0.201311
    26  H    0.200922
    27  H    0.160976
    28  H    0.165023
    29  H    0.171955
    30  H    0.164979
    31  H    0.407208
    32  H    0.187298
    33  H    0.165555
 Sum of Mulliken charges =  -0.00000

 Dipole moment (field-independent basis, Debye):
    X=             -8.2576    Y=              6.1733    Z=              2.9506  Tot=             10.7239
 Quadrupole moment (field-independent basis, Debye-Ang):
   XX=           -136.8534   YY=           -114.0933   ZZ=           -117.2626
   XY=             39.8728   XZ=             -6.5714   YZ=             -1.8141

 Normal termination of Gaussian 16 at Tue Mar  1 08:24:28 2022.
