 Gaussian 16, Revision A.03,

 ----------------------------------------------------------------------
 #p b3lyp/6-31G(d) opt=(MaxStep=10,MaxCycles=1000) freq scf=(MaxCycle=2
 000,NoVarAcc,NoIncFock) scrf=(iefpcm,read,solvent=water)
 ----------------------------------------------------------------------

 -------------
 284.n.pdb.xyz
 -------------
 Symbolic Z-matrix:
 Charge =  0 Multiplicity = 1

 SCF Done:  E(RB3LYP) =  -3804.36222078     A.U. after   14 cycles
 SCF Done:  E(RB3LYP) =  -3804.36732209     A.U. after   11 cycles
 SCF Done:  E(RB3LYP) =  -3804.36966681     A.U. after   11 cycles
 SCF Done:  E(RB3LYP) =  -3804.37119768     A.U. after   11 cycles
 SCF Done:  E(RB3LYP) =  -3804.36695280     A.U. after   12 cycles
 SCF Done:  E(RB3LYP) =  -3804.37135095     A.U. after   11 cycles
 SCF Done:  E(RB3LYP) =  -3804.37136223     A.U. after   11 cycles
 SCF Done:  E(RB3LYP) =  -3804.37136419     A.U. after   10 cycles
 SCF Done:  E(RB3LYP) =  -3804.37136167     A.U. after    9 cycles
 SCF Done:  E(RB3LYP) =  -3804.37136080     A.U. after    9 cycles
 SCF Done:  E(RB3LYP) =  -3804.37123116     A.U. after   11 cycles
 SCF Done:  E(RB3LYP) =  -3804.37135972     A.U. after   11 cycles
 SCF Done:  E(RB3LYP) =  -3804.37137013     A.U. after   10 cycles
 SCF Done:  E(RB3LYP) =  -3804.37135797     A.U. after   10 cycles
 SCF Done:  E(RB3LYP) =  -3804.37136056     A.U. after    9 cycles
 SCF Done:  E(RB3LYP) =  -3804.37136056     A.U. after    8 cycles
 SCF Done:  E(RB3LYP) =  -3804.37136060     A.U. after    7 cycles
 Optimization completed.
    -- Stationary point found.
 Normal termination of Gaussian 16 at Tue Mar  1 22:57:47 2022.

 --------------------------------------------------------------------
 #P Geom=AllCheck Guess=TCheck SCRF=Check GenChk RB3LYP/6-31G(d) Freq
 --------------------------------------------------------------------

 Structure from the checkpoint file:  "284.n.pdb.xyz.mst.wat.chk"
 -------------
 284.n.pdb.xyz
 -------------
 Charge =  0 Multiplicity = 1

 SCF Done:  E(RB3LYP) =  -3804.37136060     A.U. after    1 cycles

  Exact polarizability: 342.900 -26.454 343.211  -1.674   0.266 117.994
 Approx polarizability: 375.293 -31.556 420.861  -2.022   0.182 141.776

 ******    1 imaginary frequencies (negative Signs) ******

                      1                      2                      3
                      A                      A                      A
 Frequencies --     -7.2891                10.9926                20.4367
 Red. masses --      7.8242                 6.4651                10.3467
 Frc consts  --      0.0002                 0.0005                 0.0025
 IR Inten    --      4.1601                 0.4623                 3.2697

                      4                      5                      6
                      A                      A                      A
 Frequencies --     35.7892                67.6750                72.4228
 Red. masses --      6.6655                 4.4442                 8.9709
 Frc consts  --      0.0050                 0.0120                 0.0277
 IR Inten    --      1.1181                 0.0436                 7.7794

                      7                      8                      9
                      A                      A                      A
 Frequencies --     89.3123               107.2487               117.4849
 Red. masses --      2.0673                 4.2693                 8.7064
 Frc consts  --      0.0097                 0.0289                 0.0708
 IR Inten    --      2.0655                15.0870                 0.1745

                     10                     11                     12
                      A                      A                      A
 Frequencies --    128.9118               146.9278               153.9152
 Red. masses --      5.8475                 3.9196                 8.2689
 Frc consts  --      0.0573                 0.0499                 0.1154
 IR Inten    --     18.3160                 0.5152                 3.0308

                     13                     14                     15
                      A                      A                      A
 Frequencies --    184.6024               215.8773               242.3899
 Red. masses --      5.4520                 8.4733                 3.5735
 Frc consts  --      0.1095                 0.2327                 0.1237
 IR Inten    --      2.3385                 7.5259                 7.5308

                     16                     17                     18
                      A                      A                      A
 Frequencies --    286.2226               288.2042               305.7738
 Red. masses --      6.6312                 8.0870                 7.6473
 Frc consts  --      0.3201                 0.3958                 0.4213
 IR Inten    --      0.3351                 0.8021                 3.1748

                     19                     20                     21
                      A                      A                      A
 Frequencies --    334.6274               401.4052               439.1774
 Red. masses --      5.6860                 7.2965                 2.8757
 Frc consts  --      0.3751                 0.6927                 0.3268
 IR Inten    --      1.6609                 2.9698                63.5684

                     22                     23                     24
                      A                      A                      A
 Frequencies --    442.8830               453.5219               473.4120
 Red. masses --      1.3467                 4.0827                 8.5339
 Frc consts  --      0.1556                 0.4948                 1.1269
 IR Inten    --    159.8222                 0.0538                 3.3647

                     25                     26                     27
                      A                      A                      A
 Frequencies --    500.4261               518.9802               599.1308
 Red. masses --      1.2647                 3.2880                 6.7888
 Frc consts  --      0.1866                 0.5218                 1.4358
 IR Inten    --     88.6326                 2.4455                13.4751

                     28                     29                     30
                      A                      A                      A
 Frequencies --    604.3619               626.4912               667.9669
 Red. masses --      2.9656                 5.4685                 2.3271
 Frc consts  --      0.6382                 1.2646                 0.6118
 IR Inten    --      0.4332                 1.9194                44.4603

                     31                     32                     33
                      A                      A                      A
 Frequencies --    684.6481               726.3182               727.2450
 Red. masses --      7.6153                 2.1413                 7.5832
 Frc consts  --      2.1032                 0.6655                 2.3630
 IR Inten    --     18.6996                55.8894                12.1173

                     34                     35                     36
                      A                      A                      A
 Frequencies --    736.8630               753.8171               784.7494
 Red. masses --      2.6801                 9.5443                 6.1589
 Frc consts  --      0.8574                 3.1954                 2.2347
 IR Inten    --     12.9351                18.5054                30.1496

                     37                     38                     39
                      A                      A                      A
 Frequencies --    802.7447               820.5888               821.1867
 Red. masses --      7.5350                 1.3611                 1.1472
 Frc consts  --      2.8608                 0.5400                 0.4558
 IR Inten    --      3.0831                26.4744                 2.3457

                     40                     41                     42
                      A                      A                      A
 Frequencies --    851.2124               853.8306               854.8660
 Red. masses --      6.2941                 1.2557                 4.5395
 Frc consts  --      2.6870                 0.5394                 1.9546
 IR Inten    --     40.2109                 2.1639                 6.2103

                     43                     44                     45
                      A                      A                      A
 Frequencies --    910.2187               920.7033               971.8751
 Red. masses --      4.6862                 1.6904                 1.3671
 Frc consts  --      2.2875                 0.8442                 0.7608
 IR Inten    --     58.2805                12.0634                 0.0225

                     46                     47                     48
                      A                      A                      A
 Frequencies --   1006.5900              1031.9735              1048.3302
 Red. masses --      1.3562                 8.3937                 1.3206
 Frc consts  --      0.8096                 5.2667                 0.8551
 IR Inten    --      1.0550               121.8116                 3.3496

                     49                     50                     51
                      A                      A                      A
 Frequencies --   1062.8399              1077.4514              1080.0636
 Red. masses --      2.5222                 1.9276                 2.4841
 Frc consts  --      1.6787                 1.3185                 1.7073
 IR Inten    --     30.9632                 5.1010                 6.7186

                     52                     53                     54
                      A                      A                      A
 Frequencies --   1094.6102              1126.8088              1150.4980
 Red. masses --      2.2874                 2.3344                 1.4451
 Frc consts  --      1.6148                 1.7463                 1.1270
 IR Inten    --     10.2313                96.0135                24.2058

                     55                     56                     57
                      A                      A                      A
 Frequencies --   1184.1955              1185.4498              1211.8079
 Red. masses --      1.1007                 2.7030                 1.5425
 Frc consts  --      0.9094                 2.2380                 1.3345
 IR Inten    --      1.4335               397.6002                20.6105

                     58                     59                     60
                      A                      A                      A
 Frequencies --   1229.9428              1246.8153              1275.9349
 Red. masses --      1.1728                 2.8138                 2.3045
 Frc consts  --      1.0453                 2.5772                 2.2105
 IR Inten    --      0.1471                78.4891                 8.9236

                     61                     62                     63
                      A                      A                      A
 Frequencies --   1294.0609              1308.2705              1335.2114
 Red. masses --      1.6422                 2.2277                 1.2848
 Frc consts  --      1.6203                 2.2465                 1.3495
 IR Inten    --      9.8606                 4.1685                14.1308

                     64                     65                     66
                      A                      A                      A
 Frequencies --   1335.9254              1361.5536              1377.6244
 Red. masses --      1.6325                 2.7183                 2.0146
 Frc consts  --      1.7166                 2.9691                 2.2527
 IR Inten    --     30.2038               191.8746                55.9893

                     67                     68                     69
                      A                      A                      A
 Frequencies --   1414.4773              1443.7675              1463.6145
 Red. masses --      3.5253                 2.0498                 2.3040
 Frc consts  --      4.1556                 2.5174                 2.9079
 IR Inten    --    699.6167               147.9496                79.7440

                     70                     71                     72
                      A                      A                      A
 Frequencies --   1472.0278              1480.1689              1488.9902
 Red. masses --      2.1169                 1.3096                 6.4313
 Frc consts  --      2.7025                 1.6905                 8.4010
 IR Inten    --      6.1109                46.4297               922.9927

                     73                     74                     75
                      A                      A                      A
 Frequencies --   1494.1050              1517.0357              1548.6654
 Red. masses --      1.8185                 1.0971                 1.1232
 Frc consts  --      2.3918                 1.4876                 1.5872
 IR Inten    --     15.6643                 3.1709                34.4031

                     76                     77                     78
                      A                      A                      A
 Frequencies --   1561.0751              1606.4638              1607.6412
 Red. masses --      2.5364                 3.6865                 6.4385
 Frc consts  --      3.6418                 5.6053                 9.8042
 IR Inten    --    243.8067                48.8625                 0.0164

                     79                     80                     81
                      A                      A                      A
 Frequencies --   1633.9894              1684.6777              3044.4523
 Red. masses --      5.9475                 5.0259                 1.0564
 Frc consts  --      9.3558                 8.4042                 5.7687
 IR Inten    --     44.7677               909.0139                59.8177

                     82                     83                     84
                      A                      A                      A
 Frequencies --   3062.6221              3077.3266              3084.5305
 Red. masses --      1.0589                 1.1069                 1.0566
 Frc consts  --      5.8520                 6.1759                 5.9229
 IR Inten    --     18.4087                34.2422                42.9488

                     85                     86                     87
                      A                      A                      A
 Frequencies --   3103.3246              3138.0812              3206.1846
 Red. masses --      1.1044                 1.1091                 1.0897
 Frc consts  --      6.2663                 6.4352                 6.6000
 IR Inten    --      8.9339                29.3370                33.6808

                     88                     89                     90
                      A                      A                      A
 Frequencies --   3234.1252              3247.9603              3303.4413
 Red. masses --      1.0916                 1.0963                 1.0903
 Frc consts  --      6.7270                 6.8140                 7.0099
 IR Inten    --     14.9990                 8.9965                 4.0740

                     91                     92                     93
                      A                      A                      A
 Frequencies --   3320.2555              3554.4627              3644.6914
 Red. masses --      1.1056                 1.0775                 1.0819
 Frc consts  --      7.1811                 8.0207                 8.4678
 IR Inten    --      0.7976               145.3619               207.4013

 - Thermochemistry -
 -------------------
 Temperature   298.150 Kelvin.  Pressure   1.00000 Atm.
 Atom     1 has atomic number  8 and mass  15.99491

 Molecular mass:   355.99426 amu.
 Principal axes and moments of inertia in atomic units:
                           1         2         3
     Eigenvalues --  3322.89099********************
           X            0.99994  -0.01107  -0.00014
           Y            0.01107   0.99994   0.00012
           Z            0.00014  -0.00012   1.00000
 This molecule is an asymmetric top.
 Rotational symmetry number  1.
 Warning -- assumption of classical behavior for rotation
           may cause significant error
 Rotational temperatures (Kelvin)      0.02607     0.00342     0.00303
 Rotational constants (GHZ):           0.54312     0.07132     0.06311
    1 imaginary frequencies ignored.
 Zero-point vibrational energy     653290.0 (Joules/Mol)
                                  156.14005 (Kcal/Mol)
 Warning -- explicit consideration of  27 degrees of freedom as
           vibrations may cause significant error
 Vibrational temperatures:     15.82    29.40    51.49    97.37   104.20
          (Kelvin)            128.50   154.31   169.03   185.48   211.40
                              221.45   265.60   310.60   348.74   411.81
                              414.66   439.94   481.45   577.53   631.88
                              637.21   652.52   681.13   720.00   746.70
                              862.02   869.54   901.38   961.06   985.06
                             1045.01  1046.34  1060.18  1084.57  1129.08
                             1154.97  1180.64  1181.50  1224.70  1228.47
                             1229.96  1309.60  1324.69  1398.31  1448.26
                             1484.78  1508.31  1529.19  1550.21  1553.97
                             1574.90  1621.23  1655.31  1703.79  1705.60
                             1743.52  1769.61  1793.89  1835.79  1861.86
                             1882.31  1921.07  1922.10  1958.97  1982.09
                             2035.12  2077.26  2105.81  2117.92  2129.63
                             2142.32  2149.68  2182.68  2228.18  2246.04
                             2311.34  2313.04  2350.95  2423.88  4380.29
                             4406.43  4427.59  4437.95  4464.99  4515.00
                             4612.98  4653.18  4673.09  4752.92  4777.11
                             5114.08  5243.90

 Zero-point correction=                           0.248825 (Hartree/Particle)
 Thermal correction to Energy=                    0.267357
 Thermal correction to Enthalpy=                  0.268302
 Thermal correction to Gibbs Free Energy=         0.197421
 Sum of electronic and zero-point Energies=          -3804.122536
 Sum of electronic and thermal Energies=             -3804.104003
 Sum of electronic and thermal Enthalpies=           -3804.103059
 Sum of electronic and thermal Free Energies=        -3804.173940

                     E (Thermal)             CV                S
                      KCal/Mol        Cal/Mol-Kelvin    Cal/Mol-Kelvin
 Total                  167.769             67.990            149.181
 Electronic               0.000              0.000              0.000
 Translational            0.889              2.981             43.503
 Rotational               0.889              2.981             36.129
 Vibrational            165.992             62.028             69.549
 Vibration     1          0.593              1.987              7.823
 Vibration     2          0.593              1.986              6.591
 Vibration     3          0.594              1.982              5.480
 Vibration     4          0.598              1.970              4.220
 Vibration     5          0.599              1.967              4.086
 Vibration     6          0.602              1.957              3.675
 Vibration     7          0.606              1.943              3.318
 Vibration     8          0.608              1.935              3.141
 Vibration     9          0.611              1.924              2.962
 Vibration    10          0.617              1.906              2.712
 Vibration    11          0.619              1.898              2.623
 Vibration    12          0.631              1.861              2.281
 Vibration    13          0.645              1.817              1.993
 Vibration    14          0.659              1.775              1.785
 Vibration    15          0.684              1.699              1.496
 Vibration    16          0.685              1.696              1.484
 Vibration    17          0.696              1.663              1.385
 Vibration    18          0.716              1.606              1.238
 Vibration    19          0.767              1.467              0.957
 Vibration    20          0.799              1.385              0.829
 Vibration    21          0.803              1.377              0.818
 Vibration    22          0.812              1.353              0.785
 Vibration    23          0.830              1.309              0.728
 Vibration    24          0.856              1.249              0.657
 Vibration    25          0.874              1.208              0.612
 Vibration    26          0.957              1.034              0.451
 Vibration    27          0.963              1.023              0.442

                           ! Non-Optimized Parameters !
 Normal termination of Gaussian 16 at Tue Mar  1 23:26:14 2022.

 ------------------------------------------
 #p b3lyp/6-31G(d) geom=allcheck guess=read
 ------------------------------------------

 Structure from the checkpoint file:  "284.n.pdb.xyz.mst.wat.chk"
 -------------
 284.n.pdb.xyz
 -------------
 Charge =  0 Multiplicity = 1

 SCF Done:  E(RB3LYP) =  -3804.34106105     A.U. after   13 cycles
 Normal termination of Gaussian 16 at Tue Mar  1 23:28:34 2022.
 Gaussian 16:  ES64L-G16RevA.03 25-Dec-2016

 ----------------------------------------------------------------------
 #p b3lyp/6-31G(d) scrf=(iefpcm,read,solvent=water) geom=allcheck guess
 =read
 ----------------------------------------------------------------------

 Structure from the checkpoint file:  "284.n.pdb.xyz.mst.wat.chk"
 -------------
 284.n.pdb.xyz
 -------------
 Charge =  0 Multiplicity = 1

                         Standard orientation:
 ---------------------------------------------------------------------
 Center     Atomic      Atomic             Coordinates (Angstroms)
 Number     Number       Type             X           Y           Z
 ---------------------------------------------------------------------
      1          8           0       -6.662548    2.291435   -0.014180
      2          7           0       -5.583482    1.655658   -0.013363
      3          8           0       -4.467857    2.251505   -0.019381
      4          6           0       -5.607504    0.280078   -0.005790
      5          6           0       -4.446477   -0.544763   -0.004190
      6          7           0       -3.158933   -0.172142   -0.012119
      7          6           0       -2.023715   -1.082452    0.001699
      8          6           0       -0.735873   -0.268414    0.009860
      9         16           0        0.708822   -1.392907    0.007812
     10          6           0        1.995534   -0.091001    0.057009
     11          6           0        3.381758   -0.680352    0.021228
     12          7           0        3.505178   -2.013220    0.012597
     13          6           0        4.728770   -2.558626   -0.018809
     14          6           0        5.899529   -1.806471   -0.043333
     15          6           0        5.790727   -0.417059   -0.035246
     16          6           0        4.519087    0.139397   -0.002560
     17         35           0        4.325108    2.038988    0.005104
     18          7           0       -4.895012   -1.825713    0.005402
     19          6           0       -6.295855   -1.851056    0.007438
     20          6           0       -6.762697   -0.575050    0.002928
     21          1           0       -3.018560    0.833868   -0.008175
     22          1           0       -2.063535   -1.725430    0.889129
     23          1           0       -2.050281   -1.733112   -0.880944
     24          1           0       -0.702064    0.364793    0.900400
     25          1           0       -0.695925    0.375924   -0.872683
     26          1           0        1.868959    0.512380    0.963410
     27          1           0        1.860295    0.586423   -0.792403
     28          1           0        4.768104   -3.643762   -0.025119
     29          1           0        6.869565   -2.288933   -0.068935
     30          1           0        6.667202    0.218915   -0.054274
     31          1           0       -4.309115   -2.650850    0.006809
     32          1           0       -6.814200   -2.796186    0.013828
     33          1           0       -7.791068   -0.253062    0.004809
 ---------------------------------------------------------------------

 SCF Done:  E(RB3LYP) =  -3804.36763707     A.U. after   12 cycles

 The electronic state is 1-A.
 Alpha  occ. eigenvalues -- -482.92433 -88.88113 -61.88590 -56.40697 -56.40286
 Alpha  occ. eigenvalues --  -56.40280 -19.15557 -19.15330 -14.54846 -14.39191
 Alpha  occ. eigenvalues --  -14.37331 -14.34935 -10.28808 -10.25860 -10.25480
 Alpha  occ. eigenvalues --  -10.24003 -10.23403 -10.22596 -10.22464 -10.22248
 Alpha  occ. eigenvalues --  -10.22248 -10.22192 -10.20890 -10.19017  -8.59691
 Alpha  occ. eigenvalues --   -7.94171  -6.55070  -6.53814  -6.53770  -5.90688
 Alpha  occ. eigenvalues --   -5.90345  -5.89615  -2.66642  -2.66288  -2.66255
 Alpha  occ. eigenvalues --   -2.65253  -2.65252  -1.18924  -1.01617  -1.00897
 Alpha  occ. eigenvalues --   -0.96281  -0.94021  -0.84491  -0.83355  -0.82648
 Alpha  occ. eigenvalues --   -0.80064  -0.76849  -0.75049  -0.73385  -0.69763
 Alpha  occ. eigenvalues --   -0.67114  -0.63835  -0.62386  -0.60514  -0.59399
 Alpha  occ. eigenvalues --   -0.57724  -0.55776  -0.52315  -0.51368  -0.51145
 Alpha  occ. eigenvalues --   -0.50457  -0.49454  -0.49198  -0.48368  -0.46360
 Alpha  occ. eigenvalues --   -0.46121  -0.45908  -0.43386  -0.43256  -0.42991
 Alpha  occ. eigenvalues --   -0.42457  -0.40443  -0.40309  -0.39513  -0.38458
 Alpha  occ. eigenvalues --   -0.38107  -0.36517  -0.33769  -0.33181  -0.31123
 Alpha  occ. eigenvalues --   -0.29880  -0.29868  -0.29028  -0.28957  -0.27277
 Alpha  occ. eigenvalues --   -0.27157  -0.26827  -0.25638  -0.23241  -0.19898
 Alpha virt. eigenvalues --   -0.06084  -0.03680  -0.02504  -0.00130   0.03114
 Alpha virt. eigenvalues --    0.04237   0.06963   0.08826   0.09131   0.09777
 Alpha virt. eigenvalues --    0.11513   0.11665   0.12096   0.13100   0.13922

 Mulliken charges:
               1
     1  O   -0.513408
     2  N    0.295783
     3  O   -0.528401
     4  C    0.240118
     5  C    0.628821
     6  N   -0.681397
     7  C   -0.119410
     8  C   -0.456781
     9  S    0.079173
    10  C   -0.491832
    11  C    0.309021
    12  N   -0.502336
    13  C    0.040866
    14  C   -0.148892
    15  C   -0.115527
    16  C    0.043652
    17  Br  -0.120171
    18  N   -0.659882
    19  C    0.024339
    20  C   -0.199706
    21  H    0.385175
    22  H    0.184897
    23  H    0.184933
    24  H    0.199066
    25  H    0.198960
    26  H    0.212895
    27  H    0.211891
    28  H    0.172027
    29  H    0.176860
    30  H    0.190994
    31  H    0.405328
    32  H    0.187322
    33  H    0.165621
 Sum of Mulliken charges =  -0.00000

 Dipole moment (field-independent basis, Debye):
    X=              7.7494    Y=             -8.0114    Z=              0.0677  Tot=             11.1463
 Quadrupole moment (field-independent basis, Debye-Ang):
   XX=           -142.2141   YY=           -138.0691   ZZ=           -137.2081
   XY=             44.6141   XZ=             -0.6763   YZ=              0.2584

 Normal termination of Gaussian 16 at Tue Mar  1 23:31:24 2022.
