 Gaussian 16, Revision A.03,

 ----------------------------------------------------------------------
 #p b3lyp/6-31G(d) opt=(MaxStep=10,MaxCycles=1000) freq scf=(MaxCycle=2
 000,NoVarAcc,NoIncFock) scrf=(iefpcm,read,solvent=water)
 ----------------------------------------------------------------------

 ------------
 29.n.pdb.xyz
 ------------
 Symbolic Z-matrix:
 Charge =  0 Multiplicity = 1

 SCF Done:  E(RB3LYP) =  -1548.51286265     A.U. after   13 cycles
 SCF Done:  E(RB3LYP) =  -1548.51689992     A.U. after   10 cycles
 SCF Done:  E(RB3LYP) =  -1548.51657936     A.U. after   11 cycles
 SCF Done:  E(RB3LYP) =  -1548.51911387     A.U. after   11 cycles
 SCF Done:  E(RB3LYP) =  -1548.51934150     A.U. after   11 cycles
 SCF Done:  E(RB3LYP) =  -1548.52075232     A.U. after   10 cycles
 SCF Done:  E(RB3LYP) =  -1548.52105071     A.U. after   10 cycles
 SCF Done:  E(RB3LYP) =  -1548.52116409     A.U. after   10 cycles
 SCF Done:  E(RB3LYP) =  -1548.52117877     A.U. after    8 cycles
 SCF Done:  E(RB3LYP) =  -1548.52116516     A.U. after    8 cycles
 SCF Done:  E(RB3LYP) =  -1548.52117793     A.U. after    8 cycles
 SCF Done:  E(RB3LYP) =  -1548.52117872     A.U. after    7 cycles
 SCF Done:  E(RB3LYP) =  -1548.52117120     A.U. after    8 cycles
 SCF Done:  E(RB3LYP) =  -1548.52117240     A.U. after    6 cycles
 SCF Done:  E(RB3LYP) =  -1548.52117837     A.U. after    8 cycles
 SCF Done:  E(RB3LYP) =  -1548.52117875     A.U. after    7 cycles
 SCF Done:  E(RB3LYP) =  -1548.52117170     A.U. after    8 cycles
 Optimization completed.
    -- Stationary point found.
 Normal termination of Gaussian 16 at Wed Mar  2 05:46:58 2022.

 --------------------------------------------------------------------
 #P Geom=AllCheck Guess=TCheck SCRF=Check GenChk RB3LYP/6-31G(d) Freq
 --------------------------------------------------------------------

 Structure from the checkpoint file:  "29.n.pdb.xyz.mst.wat.chk"
 ------------
 29.n.pdb.xyz
 ------------
 Charge =  0 Multiplicity = 1

 SCF Done:  E(RB3LYP) =  -1548.52117170     A.U. after    1 cycles

  Exact polarizability: 405.966   8.644 307.477 -10.937   8.411 134.240
 Approx polarizability: 427.910   5.486 349.023 -11.411  12.075 157.593

                      1                      2                      3
                      A                      A                      A
 Frequencies --     35.0104                44.4735                58.6737
 Red. masses --      6.8261                 4.6651                 5.2997
 Frc consts  --      0.0049                 0.0054                 0.0107
 IR Inten    --      0.1296                 0.4218                 0.5750

                      4                      5                      6
                      A                      A                      A
 Frequencies --     84.8105                93.2928               130.7626
 Red. masses --      4.4617                 2.1584                 4.6068
 Frc consts  --      0.0189                 0.0111                 0.0464
 IR Inten    --      5.1048                 6.8252                 0.5096

                      7                      8                      9
                      A                      A                      A
 Frequencies --    161.1271               177.9957               206.5531
 Red. masses --      7.4901                 4.2290                 3.1387
 Frc consts  --      0.1146                 0.0789                 0.0789
 IR Inten    --      0.8390                 0.3303                 1.6920

                     10                     11                     12
                      A                      A                      A
 Frequencies --    215.8721               242.2709               285.5732
 Red. masses --      5.4727                 4.1929                 2.5971
 Frc consts  --      0.1503                 0.1450                 0.1248
 IR Inten    --      0.3364                11.4570                29.4785

                     13                     14                     15
                      A                      A                      A
 Frequencies --    289.0021               292.7371               336.3548
 Red. masses --      1.9035                 4.5674                 6.0205
 Frc consts  --      0.0937                 0.2306                 0.4013
 IR Inten    --     39.9957                10.2145                 2.8830

                     16                     17                     18
                      A                      A                      A
 Frequencies --    354.8140               388.6147               413.1392
 Red. masses --      6.4275                 5.6876                 3.3178
 Frc consts  --      0.4768                 0.5061                 0.3337
 IR Inten    --     12.1427                 1.5651                 2.6832

                     19                     20                     21
                      A                      A                      A
 Frequencies --    435.6390               446.9496               462.8725
 Red. masses --      5.0452                 3.6958                 3.2237
 Frc consts  --      0.5641                 0.4350                 0.4069
 IR Inten    --      3.0153                16.1488                 2.1704

                     22                     23                     24
                      A                      A                      A
 Frequencies --    468.6733               495.6119               545.8184
 Red. masses --      4.3040                 5.0235                 5.3840
 Frc consts  --      0.5570                 0.7270                 0.9450
 IR Inten    --     25.5645                 3.7730                12.7982

                     25                     26                     27
                      A                      A                      A
 Frequencies --    553.9789               591.4416               622.2565
 Red. masses --      5.2786                 5.5840                 5.9034
 Frc consts  --      0.9545                 1.1508                 1.3468
 IR Inten    --      5.9619                 7.0491                 1.2518

                     28                     29                     30
                      A                      A                      A
 Frequencies --    652.3282               689.2961               711.8896
 Red. masses --      5.9405                 6.1680                 4.6753
 Frc consts  --      1.4894                 1.7267                 1.3960
 IR Inten    --     15.2832                 5.4708                 3.1372

                     31                     32                     33
                      A                      A                      A
 Frequencies --    726.0617               737.4125               764.7317
 Red. masses --      5.0663                 4.4433                 1.2643
 Frc consts  --      1.5736                 1.4236                 0.4356
 IR Inten    --      1.6092                 1.9313                88.0497

                     34                     35                     36
                      A                      A                      A
 Frequencies --    773.7858               801.4499               810.9955
 Red. masses --      1.1307                 4.3696                 1.3609
 Frc consts  --      0.3989                 1.6536                 0.5274
 IR Inten    --      9.8009                15.8000                34.7608

                     37                     38                     39
                      A                      A                      A
 Frequencies --    844.5830               861.2992               869.0566
 Red. masses --      1.4902                 1.4097                 1.3386
 Frc consts  --      0.6263                 0.6161                 0.5957
 IR Inten    --     40.2810                34.6251                 0.5245

                     40                     41                     42
                      A                      A                      A
 Frequencies --    922.2099               942.8752               946.3003
 Red. masses --      1.9398                 1.3404                 1.2951
 Frc consts  --      0.9720                 0.7021                 0.6833
 IR Inten    --    317.3801                11.9334                 0.7582

                     43                     44                     45
                      A                      A                      A
 Frequencies --    959.8805               984.1621               992.1363
 Red. masses --      1.8549                 1.2651                 2.6553
 Frc consts  --      1.0070                 0.7219                 1.5399
 IR Inten    --     34.2120                 0.3481                 2.0411

                     46                     47                     48
                      A                      A                      A
 Frequencies --   1020.1270              1065.7320              1069.4530
 Red. masses --      2.9177                 5.0278                 6.4502
 Frc consts  --      1.7889                 3.3645                 4.3466
 IR Inten    --     12.1848                35.7756                40.6651

                     49                     50                     51
                      A                      A                      A
 Frequencies --   1080.8338              1089.3319              1123.2453
 Red. masses --      2.8347                 2.4889                 4.2195
 Frc consts  --      1.9511                 1.7401                 3.1366
 IR Inten    --     18.9740                12.9128                13.3528

                     52                     53                     54
                      A                      A                      A
 Frequencies --   1136.8850              1153.2422              1158.8747
 Red. masses --      2.0526                 1.6193                 1.5980
 Frc consts  --      1.5631                 1.2689                 1.2645
 IR Inten    --     86.6412                39.6229                50.5803

                     55                     56                     57
                      A                      A                      A
 Frequencies --   1169.4849              1196.5843              1203.8066
 Red. masses --      1.4162                 1.4663                 1.1837
 Frc consts  --      1.1412                 1.2369                 1.0106
 IR Inten    --      5.4783                90.8856                 2.0548

                     58                     59                     60
                      A                      A                      A
 Frequencies --   1262.8678              1277.0532              1288.9378
 Red. masses --      1.6447                 2.0908                 1.7699
 Frc consts  --      1.5455                 2.0090                 1.7324
 IR Inten    --    140.0101               117.6112                50.0626

                     61                     62                     63
                      A                      A                      A
 Frequencies --   1316.0515              1325.3296              1335.1849
 Red. masses --      1.2800                 1.6275                 7.2177
 Frc consts  --      1.3062                 1.6843                 7.5811
 IR Inten    --     23.1664                 4.3149                71.4107

                     64                     65                     66
                      A                      A                      A
 Frequencies --   1342.9258              1350.6628              1353.1207
 Red. masses --      1.1291                 1.5650                 3.8829
 Frc consts  --      1.1997                 1.6821                 4.1887
 IR Inten    --     31.8205                 6.7065                 2.3428

                     67                     68                     69
                      A                      A                      A
 Frequencies --   1386.4059              1415.6829              1441.1705
 Red. masses --      1.8083                 1.3267                 1.9201
 Frc consts  --      2.0479                 1.5666                 2.3497
 IR Inten    --    114.3040                33.3387               172.1535

                     70                     71                     72
                      A                      A                      A
 Frequencies --   1447.3131              1486.3248              1507.7284
 Red. masses --      2.1816                 2.2606                 2.3489
 Frc consts  --      2.6925                 2.9424                 3.1461
 IR Inten    --    106.1513                54.7347               521.9171

                     73                     74                     75
                      A                      A                      A
 Frequencies --   1525.5325              1533.3132              1544.0921
 Red. masses --      1.2617                 1.3033                 1.3792
 Frc consts  --      1.7301                 1.8053                 1.9374
 IR Inten    --     17.4218                17.7744                 0.6055

                     76                     77                     78
                      A                      A                      A
 Frequencies --   1551.1320              1607.1069              1624.0861
 Red. masses --      1.1597                 6.0714                 6.2926
 Frc consts  --      1.6439                 9.2392                 9.7791
 IR Inten    --      8.2424                66.9021               130.9294

                     79                     80                     81
                      A                      A                      A
 Frequencies --   1630.3761              1651.3809              1659.7416
 Red. masses --      5.8979                 6.1616                 1.0911
 Frc consts  --      9.2368                 9.9000                 1.7708
 IR Inten    --      6.4434                64.5262                54.4092

                     82                     83                     84
                      A                      A                      A
 Frequencies --   2976.2057              3064.1582              3072.6378
 Red. masses --      1.0723                 1.0807                 1.0709
 Frc consts  --      5.5962                 5.9781                 5.9571
 IR Inten    --    132.5012                15.5068                54.3523

                     85                     86                     87
                      A                      A                      A
 Frequencies --   3090.5561              3112.7305              3136.4316
 Red. masses --      1.0613                 1.0988                 1.1053
 Frc consts  --      5.9724                 6.2729                 6.4065
 IR Inten    --     85.3407                31.8044                71.2554

                     88                     89                     90
                      A                      A                      A
 Frequencies --   3208.5030              3215.4544              3217.7177
 Red. masses --      1.0867                 1.0904                 1.0899
 Frc consts  --      6.5913                 6.6425                 6.6488
 IR Inten    --      1.5627                21.8771                 8.4315

                     91                     92                     93
                      A                      A                      A
 Frequencies --   3231.5640              3250.5111              3265.7420
 Red. masses --      1.0964                 1.0941                 1.0904
 Frc consts  --      6.7459                 6.8107                 6.8516
 IR Inten    --     45.9469                 4.6789                13.5788

                     94                     95                     96
                      A                      A                      A
 Frequencies --   3289.8209              3458.9401              3535.8656
 Red. masses --      1.0896                 1.0520                 1.0912
 Frc consts  --      6.9480                 7.4156                 8.0381
 IR Inten    --      0.6364                 0.8004                 1.8368

 - Thermochemistry -
 -------------------
 Temperature   298.150 Kelvin.  Pressure   1.00000 Atm.
 Atom     1 has atomic number  7 and mass  14.00307

 Molecular mass:   290.06445 amu.
 Principal axes and moments of inertia in atomic units:
                           1         2         3
     Eigenvalues --  5088.390577118.06739**********
           X            0.99993   0.01082  -0.00486
           Y           -0.01079   0.99992   0.00638
           Z            0.00493  -0.00633   0.99997
 This molecule is an asymmetric top.
 Rotational symmetry number  1.
 Warning -- assumption of classical behavior for rotation
           may cause significant error
 Rotational temperatures (Kelvin)      0.01702     0.01217     0.00735
 Rotational constants (GHZ):           0.35468     0.25354     0.15308
 Zero-point vibrational energy     717058.0 (Joules/Mol)
                                  171.38097 (Kcal/Mol)
 Warning -- explicit consideration of  26 degrees of freedom as
           vibrations may cause significant error
 Vibrational temperatures:     50.37    63.99    84.42   122.02   134.23
          (Kelvin)            188.14   231.83   256.10   297.18   310.59
                              348.57   410.88   415.81   421.18   483.94
                              510.50   559.13   594.42   626.79   643.06
                              665.97   674.32   713.07   785.31   797.05
                              850.95   895.29   938.55   991.74  1024.25
                             1044.64  1060.97  1100.28  1113.31  1153.11
                             1166.84  1215.17  1239.22  1250.38  1326.85
                             1356.59  1361.52  1381.05  1415.99  1427.46
                             1467.74  1533.35  1538.70  1555.08  1567.31
                             1616.10  1635.72  1659.26  1667.36  1682.63
                             1721.62  1732.01  1816.99  1837.39  1854.49
                             1893.50  1906.85  1921.03  1932.17  1943.30
                             1946.84  1994.73  2036.85  2073.52  2082.36
                             2138.49  2169.28  2194.90  2206.10  2221.60
                             2231.73  2312.27  2336.70  2345.75  2375.97
                             2388.00  4282.10  4408.64  4420.84  4446.62
                             4478.52  4512.63  4616.32  4626.32  4629.58
                             4649.50  4676.76  4698.67  4733.32  4976.64
                             5087.32

 Zero-point correction=                           0.273113 (Hartree/Particle)
 Thermal correction to Energy=                    0.289867
 Thermal correction to Enthalpy=                  0.290811
 Thermal correction to Gibbs Free Energy=         0.227818
 Sum of electronic and zero-point Energies=          -1548.248059
 Sum of electronic and thermal Energies=             -1548.231305
 Sum of electronic and thermal Enthalpies=           -1548.230361
 Sum of electronic and thermal Free Energies=        -1548.293354

                     E (Thermal)             CV                S
                      KCal/Mol        Cal/Mol-Kelvin    Cal/Mol-Kelvin
 Total                  181.894             65.615            132.580
 Electronic               0.000              0.000              0.000
 Translational            0.889              2.981             42.892
 Rotational               0.889              2.981             34.412
 Vibrational            180.117             59.653             55.276
 Vibration     1          0.594              1.982              5.523
 Vibration     2          0.595              1.980              5.049
 Vibration     3          0.596              1.974              4.501
 Vibration     4          0.601              1.960              3.776
 Vibration     5          0.602              1.954              3.590
 Vibration     6          0.612              1.923              2.935
 Vibration     7          0.622              1.890              2.537
 Vibration     8          0.628              1.869              2.349
 Vibration     9          0.641              1.831              2.074
 Vibration    10          0.645              1.817              1.993
 Vibration    11          0.658              1.776              1.786
 Vibration    12          0.683              1.700              1.500
 Vibration    13          0.686              1.694              1.480
 Vibration    14          0.688              1.687              1.458
 Vibration    15          0.717              1.603              1.229
 Vibration    16          0.731              1.565              1.145
 Vibration    17          0.757              1.495              1.005
 Vibration    18          0.777              1.442              0.916
 Vibration    19          0.796              1.393              0.840
 Vibration    20          0.806              1.368              0.805
 Vibration    21          0.821              1.332              0.758
 Vibration    22          0.826              1.320              0.741
 Vibration    23          0.851              1.260              0.669
 Vibration    24          0.901              1.149              0.553
 Vibration    25          0.909              1.131              0.536
 Vibration    26          0.949              1.050              0.465

 Optimization completed.
    -- Stationary point found.
 Normal termination of Gaussian 16 at Wed Mar  2 06:26:04 2022.

 ------------------------------------------
 #p b3lyp/6-31G(d) geom=allcheck guess=read
 ------------------------------------------

 Structure from the checkpoint file:  "29.n.pdb.xyz.mst.wat.chk"
 ------------
 29.n.pdb.xyz
 ------------
 Charge =  0 Multiplicity = 1

 SCF Done:  E(RB3LYP) =  -1548.50727133     A.U. after   12 cycles
 Normal termination of Gaussian 16 at Wed Mar  2 06:28:54 2022.
 Gaussian 16:  ES64L-G16RevA.03 25-Dec-2016

 ----------------------------------------------------------------------
 #p b3lyp/6-31G(d) scrf=(iefpcm,read,solvent=water) geom=allcheck guess
 =read
 ----------------------------------------------------------------------

 Structure from the checkpoint file:  "29.n.pdb.xyz.mst.wat.chk"
 ------------
 29.n.pdb.xyz
 ------------
 Charge =  0 Multiplicity = 1

                         Standard orientation:
 ---------------------------------------------------------------------
 Center     Atomic      Atomic             Coordinates (Angstroms)
 Number     Number       Type             X           Y           Z
 ---------------------------------------------------------------------
      1          7           0       -0.596372    5.062666   -0.609517
      2          6           0       -0.273095    4.098792    0.452908
      3          6           0       -0.108418    2.691697   -0.125934
      4          6           0        0.183865    1.666114    0.984112
      5          7           0        0.481341    0.293094    0.551383
      6          6           0       -0.592745   -0.564696    0.252938
      7          6           0       -1.902151   -0.069031    0.123201
      8          6           0       -2.957416   -0.934450   -0.153097
      9         17           0       -4.579827   -0.256903   -0.285159
     10          6           0       -2.771875   -2.296643   -0.343021
     11          6           0       -1.472896   -2.791830   -0.223221
     12          6           0       -0.405681   -1.955845    0.096965
     13         16           0        1.168098   -2.694449    0.458249
     14          6           0        2.233662   -1.346272   -0.001892
     15          6           0        1.805504   -0.012346    0.159518
     16          6           0        2.755675    0.999808   -0.063170
     17          6           0        4.066033    0.695970   -0.435641
     18          6           0        4.462594   -0.624897   -0.625147
     19          6           0        3.532473   -1.643175   -0.413723
     20          1           0        0.220397    5.157883   -1.214635
     21          1           0       -0.715627    5.982791   -0.185230
     22          1           0        0.635401    4.361725    1.020184
     23          1           0       -1.099672    4.101292    1.173407
     24          1           0       -1.016953    2.423854   -0.672842
     25          1           0        0.703962    2.693623   -0.862631
     26          1           0        1.037255    2.000898    1.577392
     27          1           0       -0.664839    1.610070    1.670840
     28          1           0       -2.109582    0.983793    0.232019
     29          1           0       -3.603146   -2.951286   -0.570129
     30          1           0       -1.290242   -3.853181   -0.352350
     31          1           0        2.481081    2.037986    0.054973
     32          1           0        4.769031    1.507793   -0.588069
     33          1           0        5.475543   -0.865682   -0.927434
     34          1           0        3.816905   -2.682514   -0.541619
 ---------------------------------------------------------------------

 SCF Done:  E(RB3LYP) =  -1548.52035767     A.U. after   11 cycles

 The electronic state is 1-A.
 Alpha  occ. eigenvalues -- -101.55486 -88.89900 -14.38120 -14.30673 -10.25739
 Alpha  occ. eigenvalues --  -10.25431 -10.24695 -10.23157 -10.22796 -10.22632
 Alpha  occ. eigenvalues --  -10.20735 -10.20568 -10.20544 -10.20173 -10.19953
 Alpha  occ. eigenvalues --  -10.19560 -10.19468 -10.19092 -10.18463  -9.47112
 Alpha  occ. eigenvalues --   -7.95978  -7.23496  -7.22548  -7.22516  -5.92478
 Alpha  occ. eigenvalues --   -5.92118  -5.91480  -0.97697  -0.89470  -0.87406
 Alpha  occ. eigenvalues --   -0.86449  -0.85111  -0.80201  -0.77541  -0.77129
 Alpha  occ. eigenvalues --   -0.74794  -0.73642  -0.69067  -0.66995  -0.63786
 Alpha  occ. eigenvalues --   -0.61388  -0.60590  -0.59532  -0.56562  -0.54728
 Alpha  occ. eigenvalues --   -0.51671  -0.49122  -0.48741  -0.48130  -0.47307
 Alpha  occ. eigenvalues --   -0.46677  -0.45465  -0.44933  -0.43832  -0.43116
 Alpha  occ. eigenvalues --   -0.42884  -0.41521  -0.40175  -0.39457  -0.39158
 Alpha  occ. eigenvalues --   -0.38408  -0.37784  -0.36795  -0.35691  -0.35357
 Alpha  occ. eigenvalues --   -0.35083  -0.33912  -0.33012  -0.32010  -0.31511
 Alpha  occ. eigenvalues --   -0.29957  -0.26548  -0.25756  -0.23934  -0.23240
 Alpha  occ. eigenvalues --   -0.18935
 Alpha virt. eigenvalues --   -0.02791  -0.01837  -0.01018   0.01220   0.01982
 Alpha virt. eigenvalues --    0.03480   0.07169   0.08862   0.10702   0.11688
 Alpha virt. eigenvalues --    0.12359   0.13162   0.13382   0.13968   0.15002

 Mulliken charges:
               1
     1  N   -0.789938
     2  C   -0.133225
     3  C   -0.280728
     4  C   -0.177387
     5  N   -0.603792
     6  C    0.340840
     7  C   -0.180290
     8  C   -0.091885
     9  Cl  -0.045188
    10  C   -0.136148
    11  C   -0.191277
    12  C   -0.127936
    13  S    0.145265
    14  C   -0.136091
    15  C    0.330982
    16  C   -0.188980
    17  C   -0.164894
    18  C   -0.139909
    19  C   -0.193157
    20  H    0.329544
    21  H    0.335957
    22  H    0.129994
    23  H    0.146559
    24  H    0.155418
    25  H    0.155398
    26  H    0.177695
    27  H    0.177603
    28  H    0.177258
    29  H    0.171868
    30  H    0.172300
    31  H    0.163245
    32  H    0.155651
    33  H    0.152962
    34  H    0.162285
 Sum of Mulliken charges =  -0.00000

 Dipole moment (field-independent basis, Debye):
    X=              3.4769    Y=              3.3550    Z=              0.7410  Tot=              4.8882
 Quadrupole moment (field-independent basis, Debye-Ang):
   XX=           -126.6554   YY=           -104.1332   ZZ=           -129.4599
   XY=             11.1084   XZ=             -5.2563   YZ=              7.4065

 Normal termination of Gaussian 16 at Wed Mar  2 06:32:05 2022.
