 Gaussian 16, Revision A.03,

 ----------------------------------------------------------------------
 #p b3lyp/6-31G(d) opt=(MaxStep=10,MaxCycles=1000) freq scf=(MaxCycle=2
 000,NoVarAcc,NoIncFock) scrf=(iefpcm,read,solvent=water)
 ----------------------------------------------------------------------

 -------------
 292.n.pdb.xyz
 -------------
 Symbolic Z-matrix:
 Charge =  0 Multiplicity = 1

 SCF Done:  E(RB3LYP) =  -705.245151206     A.U. after   13 cycles
 SCF Done:  E(RB3LYP) =  -705.248965419     A.U. after   10 cycles
 SCF Done:  E(RB3LYP) =  -705.250268484     A.U. after   11 cycles
 SCF Done:  E(RB3LYP) =  -705.247548680     A.U. after   11 cycles
 SCF Done:  E(RB3LYP) =  -705.251269043     A.U. after   11 cycles
 SCF Done:  E(RB3LYP) =  -705.251491389     A.U. after   10 cycles
 SCF Done:  E(RB3LYP) =  -705.251472749     A.U. after   11 cycles
 SCF Done:  E(RB3LYP) =  -705.251769497     A.U. after   10 cycles
 SCF Done:  E(RB3LYP) =  -705.251848320     A.U. after   10 cycles
 SCF Done:  E(RB3LYP) =  -705.251785741     A.U. after   11 cycles
 SCF Done:  E(RB3LYP) =  -705.251888984     A.U. after    9 cycles
 SCF Done:  E(RB3LYP) =  -705.251882575     A.U. after    9 cycles
 SCF Done:  E(RB3LYP) =  -705.251888840     A.U. after    9 cycles
 SCF Done:  E(RB3LYP) =  -705.251881620     A.U. after    9 cycles
 SCF Done:  E(RB3LYP) =  -705.251880730     A.U. after    7 cycles
 SCF Done:  E(RB3LYP) =  -705.251879054     A.U. after    7 cycles
 SCF Done:  E(RB3LYP) =  -705.251878256     A.U. after    7 cycles
 Optimization completed.
    -- Stationary point found.
 Normal termination of Gaussian 16 at Tue Mar  1 16:08:53 2022.

 --------------------------------------------------------------------
 #P Geom=AllCheck Guess=TCheck SCRF=Check GenChk RB3LYP/6-31G(d) Freq
 --------------------------------------------------------------------

 Structure from the checkpoint file:  "292.n.pdb.xyz.mst.wat.chk"
 -------------
 292.n.pdb.xyz
 -------------
 Charge =  0 Multiplicity = 1

 SCF Done:  E(RB3LYP) =  -705.251878256     A.U. after    1 cycles

  Exact polarizability: 192.614  -2.443 165.903 -15.501  -9.443  86.614
 Approx polarizability: 208.726   1.728 196.342 -21.687 -10.371 100.788

                      1                      2                      3
                      A                      A                      A
 Frequencies --     28.3381                39.8530                60.0828
 Red. masses --      7.2708                 5.1658                 5.5673
 Frc consts  --      0.0034                 0.0048                 0.0118
 IR Inten    --      4.5013                 0.4516                 0.9284

                      4                      5                      6
                      A                      A                      A
 Frequencies --     69.5419               165.7086               192.2512
 Red. masses --      5.9648                 5.5080                 6.8881
 Frc consts  --      0.0170                 0.0891                 0.1500
 IR Inten    --      0.5564                 0.7194                 3.8955

                      7                      8                      9
                      A                      A                      A
 Frequencies --    238.1675               274.1028               285.2988
 Red. masses --      4.5493                 1.9666                 2.0022
 Frc consts  --      0.1520                 0.0871                 0.0960
 IR Inten    --      5.9113                18.6957                29.6643

                     10                     11                     12
                      A                      A                      A
 Frequencies --    317.5010               334.2748               351.4268
 Red. masses --      2.2722                 5.7245                 1.3510
 Frc consts  --      0.1350                 0.3769                 0.0983
 IR Inten    --     23.5144                28.0624               173.5637

                     13                     14                     15
                      A                      A                      A
 Frequencies --    371.6973               410.7864               423.3813
 Red. masses --      2.4527                 2.0882                 1.2979
 Frc consts  --      0.1997                 0.2076                 0.1371
 IR Inten    --     16.7111                18.8528               187.7538

                     16                     17                     18
                      A                      A                      A
 Frequencies --    462.7654               475.2234               510.7849
 Red. masses --      3.3585                 4.6960                 4.9626
 Frc consts  --      0.4238                 0.6248                 0.7628
 IR Inten    --      5.0914                 6.1820                19.9473

                     19                     20                     21
                      A                      A                      A
 Frequencies --    534.8752               574.6256               597.0147
 Red. masses --      4.3686                 2.7686                 6.0268
 Frc consts  --      0.7364                 0.5386                 1.2656
 IR Inten    --      7.8929               102.5093                14.6476

                     22                     23                     24
                      A                      A                      A
 Frequencies --    632.7526               654.5189               703.8798
 Red. masses --      1.6464                 3.3228                 5.0782
 Frc consts  --      0.3884                 0.8387                 1.4824
 IR Inten    --    150.1649                55.6029                 5.5551

                     25                     26                     27
                      A                      A                      A
 Frequencies --    722.8422               768.2148               802.0035
 Red. masses --      3.6689                 5.1068                 4.7148
 Frc consts  --      1.1295                 1.7757                 1.7868
 IR Inten    --     18.6566                26.1476                31.1325

                     28                     29                     30
                      A                      A                      A
 Frequencies --    806.6723               858.8320               882.2259
 Red. masses --      1.4930                 1.5937                 2.3098
 Frc consts  --      0.5724                 0.6926                 1.0592
 IR Inten    --     51.4679                56.2934                67.0197

                     31                     32                     33
                      A                      A                      A
 Frequencies --    895.7557               916.8525               972.7662
 Red. masses --      2.0972                 1.3343                 2.1581
 Frc consts  --      0.9914                 0.6608                 1.2032
 IR Inten    --      7.3422                 6.7321               109.5368

                     34                     35                     36
                      A                      A                      A
 Frequencies --    987.8885              1003.0300              1120.9699
 Red. masses --      2.9038                 2.1710                 1.9275
 Frc consts  --      1.6697                 1.2869                 1.4271
 IR Inten    --     15.2714               113.5180               108.6005

                     37                     38                     39
                      A                      A                      A
 Frequencies --   1156.7603              1161.0892              1182.4880
 Red. masses --      2.1470                 1.3276                 1.4846
 Frc consts  --      1.6927                 1.0545                 1.2231
 IR Inten    --    267.2430                36.2004                77.3206

                     40                     41                     42
                      A                      A                      A
 Frequencies --   1194.5153              1216.5350              1222.0748
 Red. masses --      2.2562                 1.4921                 1.4757
 Frc consts  --      1.8967                 1.3010                 1.2985
 IR Inten    --    167.4969                31.3747               577.9739

                     43                     44                     45
                      A                      A                      A
 Frequencies --   1293.9487              1301.2172              1320.4734
 Red. masses --      1.4097                 1.7826                 1.6134
 Frc consts  --      1.3906                 1.7783                 1.6575
 IR Inten    --     34.2608                69.3313                26.7455

                     46                     47                     48
                      A                      A                      A
 Frequencies --   1330.2333              1374.8306              1384.5692
 Red. masses --      2.7622                 1.7508                 2.0794
 Frc consts  --      2.8798                 1.9498                 2.3486
 IR Inten    --    175.3265                24.1617                80.8369

                     49                     50                     51
                      A                      A                      A
 Frequencies --   1391.1829              1407.3285              1412.5225
 Red. masses --      1.4354                 3.0236                 1.3750
 Frc consts  --      1.6367                 3.5284                 1.6163
 IR Inten    --     27.8364               126.7422                19.2242

                     52                     53                     54
                      A                      A                      A
 Frequencies --   1489.5017              1516.2569              1579.1579
 Red. masses --      3.0348                 1.1026                 2.9201
 Frc consts  --      3.9670                 1.4935                 4.2904
 IR Inten    --     49.9000                 6.0217               157.6469

                     55                     56                     57
                      A                      A                      A
 Frequencies --   1654.9280              1668.7738              1676.5251
 Red. masses --      6.1090                 1.0930                 5.6712
 Frc consts  --      9.8578                 1.7933                 9.3917
 IR Inten    --     54.1564                60.9530                 8.4467

                     58                     59                     60
                      A                      A                      A
 Frequencies --   1783.2268              3059.4037              3076.2582
 Red. masses --     10.5531                 1.0817                 1.0634
 Frc consts  --     19.7716                 5.9650                 5.9294
 IR Inten    --    455.6025                14.6921                54.7289

                     61                     62                     63
                      A                      A                      A
 Frequencies --   3127.6862              3189.6934              3191.2652
 Red. masses --      1.1014                 1.0899                 1.0885
 Frc consts  --      6.3481                 6.5335                 6.5316
 IR Inten    --     31.4881                30.7128                16.0945

                     64                     65                     66
                      A                      A                      A
 Frequencies --   3210.8924              3476.3003              3556.3033
 Red. masses --      1.0935                 1.0517                 1.0917
 Frc consts  --      6.6425                 7.4885                 8.1345
 IR Inten    --     24.6874                 5.5213                 9.6671

                     67                     68                     69
                      A                      A                      A
 Frequencies --   3647.7450              3716.5380              3722.0022
 Red. masses --      1.0646                 1.0661                 1.0662
 Frc consts  --      8.3460                 8.6762                 8.7022
 IR Inten    --    165.8173               216.6320               146.0203

 - Thermochemistry -
 -------------------
 Temperature   298.150 Kelvin.  Pressure   1.00000 Atm.
 Atom     1 has atomic number  7 and mass  14.00307

 Molecular mass:   197.06881 amu.
 Principal axes and moments of inertia in atomic units:
                           1         2         3
     Eigenvalues --  1056.268046038.142146626.93151
           X            1.00000   0.00086   0.00251
           Y           -0.00083   0.99994  -0.01117
           Z           -0.00252   0.01117   0.99993
 This molecule is an asymmetric top.
 Rotational symmetry number  1.
 Warning -- assumption of classical behavior for rotation
           may cause significant error
 Rotational temperatures (Kelvin)      0.08200     0.01434     0.01307
 Rotational constants (GHZ):           1.70860     0.29889     0.27233
 Zero-point vibrational energy     521207.8 (Joules/Mol)
                                  124.57164 (Kcal/Mol)
 Warning -- explicit consideration of  21 degrees of freedom as
           vibrations may cause significant error
 Vibrational temperatures:     40.77    57.34    86.45   100.06   238.42
          (Kelvin)            276.61   342.67   394.37   410.48   456.81
                              480.95   505.62   534.79   591.03   609.15
                              665.82   683.74   734.91   769.57   826.76
                              858.97   910.39   941.71  1012.73  1040.01
                             1105.29  1153.90  1160.62  1235.67  1269.33
                             1288.79  1319.15  1399.59  1421.35  1443.14
                             1612.83  1664.32  1670.55  1701.34  1718.64
                             1750.32  1758.29  1861.70  1872.16  1899.87
                             1913.91  1978.07  1992.09  2001.60  2024.83
                             2032.30  2143.06  2181.56  2272.06  2381.07
                             2400.99  2412.15  2565.67  4401.80  4426.05
                             4500.04  4589.26  4591.52  4619.76  5001.62
                             5116.73  5248.29  5347.27  5355.13

 Zero-point correction=                           0.198518 (Hartree/Particle)
 Thermal correction to Energy=                    0.211897
 Thermal correction to Enthalpy=                  0.212841
 Thermal correction to Gibbs Free Energy=         0.157282
 Sum of electronic and zero-point Energies=           -705.053361
 Sum of electronic and thermal Energies=              -705.039981
 Sum of electronic and thermal Enthalpies=            -705.039037
 Sum of electronic and thermal Free Energies=         -705.094596

                     E (Thermal)             CV                S
                      KCal/Mol        Cal/Mol-Kelvin    Cal/Mol-Kelvin
 Total                  132.968             50.914            116.935
 Electronic               0.000              0.000              0.000
 Translational            0.889              2.981             41.740
 Rotational               0.889              2.981             32.114
 Vibrational            131.190             44.952             43.081
 Vibration     1          0.593              1.984              5.942
 Vibration     2          0.594              1.981              5.266
 Vibration     3          0.597              1.973              4.454
 Vibration     4          0.598              1.969              4.166
 Vibration     5          0.624              1.885              2.484
 Vibration     6          0.634              1.851              2.206
 Vibration     7          0.656              1.782              1.817
 Vibration     8          0.676              1.721              1.570
 Vibration     9          0.683              1.701              1.502
 Vibration    10          0.704              1.640              1.323
 Vibration    11          0.716              1.607              1.239
 Vibration    12          0.728              1.572              1.160
 Vibration    13          0.743              1.530              1.073
 Vibration    14          0.775              1.447              0.924
 Vibration    15          0.786              1.419              0.881
 Vibration    16          0.820              1.333              0.758
 Vibration    17          0.832              1.305              0.723
 Vibration    18          0.866              1.226              0.632
 Vibration    19          0.890              1.173              0.576
 Vibration    20          0.931              1.086              0.495
 Vibration    21          0.955              1.038              0.455

 Optimization completed.
    -- Stationary point found.
 Normal termination of Gaussian 16 at Tue Mar  1 16:23:46 2022.

 ------------------------------------------
 #p b3lyp/6-31G(d) geom=allcheck guess=read
 ------------------------------------------

 Structure from the checkpoint file:  "292.n.pdb.xyz.mst.wat.chk"
 -------------
 292.n.pdb.xyz
 -------------
 Charge =  0 Multiplicity = 1

 SCF Done:  E(RB3LYP) =  -705.211027637     A.U. after   12 cycles
 Normal termination of Gaussian 16 at Tue Mar  1 16:25:09 2022.
 Gaussian 16:  ES64L-G16RevA.03 25-Dec-2016

 ----------------------------------------------------------------------
 #p b3lyp/6-31G(d) scrf=(iefpcm,read,solvent=water) geom=allcheck guess
 =read
 ----------------------------------------------------------------------

 Structure from the checkpoint file:  "292.n.pdb.xyz.mst.wat.chk"
 -------------
 292.n.pdb.xyz
 -------------
 Charge =  0 Multiplicity = 1

                         Standard orientation:
 ---------------------------------------------------------------------
 Center     Atomic      Atomic             Coordinates (Angstroms)
 Number     Number       Type             X           Y           Z
 ---------------------------------------------------------------------
      1          7           0       -1.978165   -1.317429   -1.116529
      2          6           0       -2.047825   -0.050672   -0.401954
      3          6           0       -1.155547   -0.068268    0.866118
      4          6           0        0.322091   -0.180115    0.570868
      5          6           0        1.053023    0.949564    0.168730
      6          6           0        2.411862    0.868704   -0.125761
      7          8           0        3.165919    1.938672   -0.518033
      8          6           0        3.077722   -0.369560   -0.016384
      9          8           0        4.411433   -0.381216   -0.315946
     10          6           0        2.359404   -1.492176    0.388229
     11          6           0        0.994152   -1.398526    0.678175
     12          6           0       -3.447671    0.433057   -0.002239
     13          8           0       -4.430828   -0.393916   -0.390369
     14          8           0       -3.654623    1.471511    0.601245
     15          1           0       -2.545782   -1.262951   -1.960877
     16          1           0       -2.404746   -2.047670   -0.546439
     17          1           0       -1.665010    0.734281   -1.066005
     18          1           0       -1.366235    0.847579    1.424701
     19          1           0       -1.468107   -0.909814    1.493630
     20          1           0        0.557978    1.913647    0.086612
     21          1           0        2.600902    2.731225   -0.549456
     22          1           0        4.754674   -1.284980   -0.202383
     23          1           0        2.871765   -2.445724    0.478672
     24          1           0        0.453754   -2.285358    0.993282
     25          1           0       -5.280516   -0.000680   -0.105892
 ---------------------------------------------------------------------

 SCF Done:  E(RB3LYP) =  -705.249481769     A.U. after   11 cycles

 The electronic state is 1-A.
 Alpha  occ. eigenvalues --  -19.19604 -19.17284 -19.17230 -19.13949 -14.31237
 Alpha  occ. eigenvalues --  -10.31868 -10.24581 -10.24452 -10.22790 -10.19087
 Alpha  occ. eigenvalues --  -10.18971 -10.18667 -10.18511 -10.18161  -1.10461
 Alpha  occ. eigenvalues --   -1.06222  -1.04084  -1.01322  -0.88971  -0.84747
 Alpha  occ. eigenvalues --   -0.77168  -0.73803  -0.71892  -0.66503  -0.62963
 Alpha  occ. eigenvalues --   -0.59758  -0.58014  -0.54004  -0.53008  -0.50285
 Alpha  occ. eigenvalues --   -0.48994  -0.48411  -0.48068  -0.44219  -0.43605
 Alpha  occ. eigenvalues --   -0.43053  -0.42631  -0.42049  -0.40508  -0.38938
 Alpha  occ. eigenvalues --   -0.38598  -0.36893  -0.36091  -0.35441  -0.34410
 Alpha  occ. eigenvalues --   -0.33896  -0.31727  -0.31475  -0.29861  -0.24079
 Alpha  occ. eigenvalues --   -0.23307  -0.20419
 Alpha virt. eigenvalues --   -0.00161   0.01186   0.02020   0.08560   0.08930
 Alpha virt. eigenvalues --    0.10454   0.10736   0.12560   0.12646   0.14713
 Alpha virt. eigenvalues --    0.16526   0.17681   0.18153   0.19714   0.20036

 Mulliken charges:
               1
     1  N   -0.764614
     2  C   -0.057637
     3  C   -0.366692
     4  C    0.175477
     5  C   -0.277382
     6  C    0.312109
     7  O   -0.681992
     8  C    0.302195
     9  O   -0.680656
    10  C   -0.218402
    11  C   -0.220933
    12  C    0.589533
    13  O   -0.579452
    14  O   -0.527479
    15  H    0.341906
    16  H    0.333763
    17  H    0.180289
    18  H    0.167064
    19  H    0.158441
    20  H    0.147083
    21  H    0.459483
    22  H    0.459254
    23  H    0.151701
    24  H    0.137888
    25  H    0.459052
 Sum of Mulliken charges =  -0.00000

 Dipole moment (field-independent basis, Debye):
    X=             -3.2307    Y=             -2.2491    Z=             -0.3975  Tot=              3.9565
 Quadrupole moment (field-independent basis, Debye-Ang):
   XX=            -68.6406   YY=            -71.0068   ZZ=            -82.1713
   XY=             -1.0173   XZ=              6.5353   YZ=             -5.1368

 Normal termination of Gaussian 16 at Tue Mar  1 16:26:39 2022.
