 Gaussian 16, Revision A.03,

 ----------------------------------------------------------------------
 #p b3lyp/6-31G(d) opt=(MaxStep=10,MaxCycles=1000) freq scf=(MaxCycle=2
 000,NoVarAcc,NoIncFock) scrf=(iefpcm,read,solvent=water)
 ----------------------------------------------------------------------

 ------------
 30.n.pdb.xyz
 ------------
 Symbolic Z-matrix:
 Charge =  0 Multiplicity = 1

 SCF Done:  E(RB3LYP) =  -444.849608448     A.U. after   11 cycles
 SCF Done:  E(RB3LYP) =  -444.850680757     A.U. after    9 cycles
 SCF Done:  E(RB3LYP) =  -444.850751632     A.U. after    9 cycles
 SCF Done:  E(RB3LYP) =  -444.850768713     A.U. after    8 cycles
 SCF Done:  E(RB3LYP) =  -444.850779800     A.U. after    8 cycles
 SCF Done:  E(RB3LYP) =  -444.850789414     A.U. after    8 cycles
 SCF Done:  E(RB3LYP) =  -444.850793200     A.U. after    7 cycles
 SCF Done:  E(RB3LYP) =  -444.850794312     A.U. after    7 cycles
 Optimization completed.
    -- Stationary point found.
 Normal termination of Gaussian 16 at Tue Mar  1 04:46:56 2022.

 --------------------------------------------------------------------
 #P Geom=AllCheck Guess=TCheck SCRF=Check GenChk RB3LYP/6-31G(d) Freq
 --------------------------------------------------------------------

 Structure from the checkpoint file:  "30.n.pdb.xyz.mst.wat.chk"
 ------------
 30.n.pdb.xyz
 ------------
 Charge =  0 Multiplicity = 1

 SCF Done:  E(RB3LYP) =  -444.850794312     A.U. after    1 cycles

  Exact polarizability: 179.779   6.807 154.375 -21.707  12.518 100.259
 Approx polarizability: 187.318   7.066 176.046 -26.439  16.649 111.002

                      1                      2                      3
                      A                      A                      A
 Frequencies --     42.7231                55.5698                80.6392
 Red. masses --      2.9157                 3.2401                 3.6196
 Frc consts  --      0.0031                 0.0059                 0.0139
 IR Inten    --      1.0087                 0.8051                 0.0996

                      4                      5                      6
                      A                      A                      A
 Frequencies --     96.7748               209.9924               222.2355
 Red. masses --      2.0401                 1.0390                 3.4364
 Frc consts  --      0.0113                 0.0270                 0.1000
 IR Inten    --      2.9935                 0.4939                 2.0961

                      7                      8                      9
                      A                      A                      A
 Frequencies --    245.2388               272.2347               322.9159
 Red. masses --      1.6346                 2.8372                 2.1312
 Frc consts  --      0.0579                 0.1239                 0.1309
 IR Inten    --      1.1727                 0.2214                 1.8887

                     10                     11                     12
                      A                      A                      A
 Frequencies --    352.4577               418.7257               433.6716
 Red. masses --      2.0756                 2.9700                 2.9241
 Frc consts  --      0.1519                 0.3068                 0.3240
 IR Inten    --      0.4759                 0.0238                 2.2049

                     13                     14                     15
                      A                      A                      A
 Frequencies --    459.6378               530.2132               598.9704
 Red. masses --      2.2516                 2.7696                 4.7882
 Frc consts  --      0.2803                 0.4587                 1.0121
 IR Inten    --     16.7594                14.8546                13.7374

                     16                     17                     18
                      A                      A                      A
 Frequencies --    634.6233               716.6559               761.0828
 Red. masses --      6.3064                 2.0207                 1.6834
 Frc consts  --      1.4965                 0.6115                 0.5745
 IR Inten    --      0.2419                35.9538                32.1509

                     19                     20                     21
                      A                      A                      A
 Frequencies --    810.5413               842.1108               850.0807
 Red. masses --      2.1700                 1.7366                 2.5163
 Frc consts  --      0.8400                 0.7256                 1.0714
 IR Inten    --     93.7601                71.7430                 1.2612

                     22                     23                     24
                      A                      A                      A
 Frequencies --    866.5731               905.6402               930.5521
 Red. masses --      1.2499                 1.3890                 1.5154
 Frc consts  --      0.5530                 0.6712                 0.7732
 IR Inten    --      0.0277                 0.5538                 4.0438

                     25                     26                     27
                      A                      A                      A
 Frequencies --    946.2084               977.7182              1003.6468
 Red. masses --      1.7539                 1.3528                 1.2492
 Frc consts  --      0.9252                 0.7619                 0.7414
 IR Inten    --      1.6315                 0.0223                 0.1974

                     28                     29                     30
                      A                      A                      A
 Frequencies --   1016.6572              1054.6185              1060.3380
 Red. masses --      6.1820                 2.1914                 1.9599
 Frc consts  --      3.7647                 1.4360                 1.2983
 IR Inten    --      0.1073                 5.0777                 8.8548

                     31                     32                     33
                      A                      A                      A
 Frequencies --   1069.7898              1094.7265              1118.4557
 Red. masses --      1.5758                 2.1549                 1.5741
 Frc consts  --      1.0626                 1.5216                 1.1602
 IR Inten    --      7.2444                16.2966                 4.1336

                     34                     35                     36
                      A                      A                      A
 Frequencies --   1146.1588              1182.3289              1185.4487
 Red. masses --      1.4231                 2.2609                 1.0923
 Frc consts  --      1.1015                 1.8621                 0.9044
 IR Inten    --     17.4244                68.0022                 0.1769

                     37                     38                     39
                      A                      A                      A
 Frequencies --   1203.1727              1218.6767              1234.3189
 Red. masses --      1.1325                 1.6707                 2.1370
 Frc consts  --      0.9660                 1.4619                 1.9183
 IR Inten    --      0.9440                11.8563                 1.9619

                     40                     41                     42
                      A                      A                      A
 Frequencies --   1245.6111              1323.7418              1357.3899
 Red. masses --      1.6659                 1.3546                 2.2186
 Frc consts  --      1.5229                 1.3985                 2.4085
 IR Inten    --      7.5698                10.7754                 2.4464

                     43                     44                     45
                      A                      A                      A
 Frequencies --   1360.9847              1385.0119              1390.1442
 Red. masses --      2.0267                 1.4348                 1.3475
 Frc consts  --      2.2118                 1.6216                 1.5343
 IR Inten    --      0.0533                18.1230                19.1634

                     46                     47                     48
                      A                      A                      A
 Frequencies --   1426.9367              1469.7439              1495.5716
 Red. masses --      1.2799                 1.1884                 1.7059
 Frc consts  --      1.5355                 1.5124                 2.2481
 IR Inten    --     19.9654                 1.7900                12.6921

                     49                     50                     51
                      A                      A                      A
 Frequencies --   1498.8781              1502.3696              1508.0096
 Red. masses --      1.3578                 1.0779                 1.1377
 Frc consts  --      1.7973                 1.4334                 1.5243
 IR Inten    --     20.4631                 2.8534                 2.9897

                     52                     53                     54
                      A                      A                      A
 Frequencies --   1520.0751              1526.3122              1535.7430
 Red. masses --      1.0675                 1.0480                 1.0609
 Frc consts  --      1.4532                 1.4384                 1.4743
 IR Inten    --      0.2511                 7.7654                22.3913

                     55                     56                     57
                      A                      A                      A
 Frequencies --   1543.3176              1641.3286              1662.5505
 Red. masses --      2.2745                 5.5342                 5.7489
 Frc consts  --      3.1918                 8.7840                 9.3624
 IR Inten    --     16.9508                 1.2869                 8.1911

                     58                     59                     60
                      A                      A                      A
 Frequencies --   2940.6433              2971.1186              3044.5732
 Red. masses --      1.0807                 1.0602                 1.0624
 Frc consts  --      5.5061                 5.5144                 5.8022
 IR Inten    --    132.4562               139.3706                68.6636

                     61                     62                     63
                      A                      A                      A
 Frequencies --   3065.7641              3094.4443              3094.6168
 Red. masses --      1.0382                 1.0906                 1.0822
 Frc consts  --      5.7492                 6.1531                 6.1061
 IR Inten    --     23.2673                18.5913               109.8826

                     64                     65                     66
                      A                      A                      A
 Frequencies --   3131.7850              3137.4884              3148.0792
 Red. masses --      1.1014                 1.1021                 1.1016
 Frc consts  --      6.3647                 6.3917                 6.4322
 IR Inten    --     46.6111                72.6105                45.0175

                     67                     68                     69
                      A                      A                      A
 Frequencies --   3190.6363              3193.2280              3203.1987
 Red. masses --      1.0863                 1.0872                 1.0899
 Frc consts  --      6.5158                 6.5314                 6.5890
 IR Inten    --     15.5127                 9.9707                17.5604

                     70                     71                     72
                      A                      A                      A
 Frequencies --   3210.9211              3222.8728              3478.9142
 Red. masses --      1.0940                 1.0978                 1.0746
 Frc consts  --      6.6453                 6.7182                 7.6627
 IR Inten    --     79.7059                32.4161                 0.7505

 - Thermochemistry -
 -------------------
 Temperature   298.150 Kelvin.  Pressure   1.00000 Atm.
 Atom     1 has atomic number  6 and mass  12.00000

 Molecular mass:   149.12045 amu.
 Principal axes and moments of inertia in atomic units:
                           1         2         3
     Eigenvalues --   630.527133474.029013682.51016
           X            0.99998   0.00437   0.00394
           Y           -0.00433   0.99995  -0.00945
           Z           -0.00398   0.00943   0.99995
 This molecule is an asymmetric top.
 Rotational symmetry number  1.
 Warning -- assumption of classical behavior for rotation
           may cause significant error
 Rotational temperatures (Kelvin)      0.13737     0.02493     0.02352
 Rotational constants (GHZ):           2.86227     0.51950     0.49008
 Zero-point vibrational energy     608266.0 (Joules/Mol)
                                  145.37906 (Kcal/Mol)
 Warning -- explicit consideration of  15 degrees of freedom as
           vibrations may cause significant error
 Vibrational temperatures:     61.47    79.95   116.02   139.24   302.13
          (Kelvin)            319.75   352.84   391.69   464.60   507.11
                              602.45   623.96   661.32   762.86   861.78
                              913.08  1031.11  1095.03  1166.19  1211.61
                             1223.08  1246.81  1303.01  1338.86  1361.38
                             1406.72  1444.02  1462.74  1517.36  1525.59
                             1539.19  1575.07  1609.21  1649.07  1701.11
                             1705.60  1731.10  1753.40  1775.91  1792.16
                             1904.57  1952.98  1958.15  1992.72  2000.11
                             2053.04  2114.63  2151.79  2156.55  2161.57
                             2169.69  2187.05  2196.02  2209.59  2220.49
                             2361.51  2392.04  4230.93  4274.78  4380.46
                             4410.95  4452.22  4452.46  4505.94  4514.15
                             4529.38  4590.61  4594.34  4608.69  4619.80
                             4637.00  5005.38

 Zero-point correction=                           0.231676 (Hartree/Particle)
 Thermal correction to Energy=                    0.242871
 Thermal correction to Enthalpy=                  0.243815
 Thermal correction to Gibbs Free Energy=         0.193933
 Sum of electronic and zero-point Energies=           -444.619118
 Sum of electronic and thermal Energies=              -444.607923
 Sum of electronic and thermal Enthalpies=            -444.606979
 Sum of electronic and thermal Free Energies=         -444.656862

                     E (Thermal)             CV                S
                      KCal/Mol        Cal/Mol-Kelvin    Cal/Mol-Kelvin
 Total                  152.404             42.238            104.987
 Electronic               0.000              0.000              0.000
 Translational            0.889              2.981             40.909
 Rotational               0.889              2.981             30.468
 Vibrational            150.626             36.277             33.610
 Vibration     1          0.595              1.980              5.129
 Vibration     2          0.596              1.975              4.609
 Vibration     3          0.600              1.962              3.875
 Vibration     4          0.603              1.951              3.518
 Vibration     5          0.642              1.826              2.044
 Vibration     6          0.648              1.807              1.941
 Vibration     7          0.660              1.771              1.765
 Vibration     8          0.675              1.724              1.582
 Vibration     9          0.708              1.630              1.295
 Vibration    10          0.729              1.570              1.155
 Vibration    11          0.782              1.430              0.896
 Vibration    12          0.794              1.397              0.847
 Vibration    13          0.818              1.340              0.767
 Vibration    14          0.885              1.183              0.587
 Vibration    15          0.957              1.034              0.451

 Optimization completed.
    -- Stationary point found.
 Normal termination of Gaussian 16 at Tue Mar  1 04:59:58 2022.

 ------------------------------------------
 #p b3lyp/6-31G(d) geom=allcheck guess=read
 ------------------------------------------

 Structure from the checkpoint file:  "30.n.pdb.xyz.mst.wat.chk"
 ------------
 30.n.pdb.xyz
 ------------
 Charge =  0 Multiplicity = 1

 SCF Done:  E(RB3LYP) =  -444.843238551     A.U. after   11 cycles
 Normal termination of Gaussian 16 at Tue Mar  1 05:01:12 2022.
 Gaussian 16:  ES64L-G16RevA.03 25-Dec-2016

 ----------------------------------------------------------------------
 #p b3lyp/6-31G(d) scrf=(iefpcm,read,solvent=water) geom=allcheck guess
 =read
 ----------------------------------------------------------------------

 Structure from the checkpoint file:  "30.n.pdb.xyz.mst.wat.chk"
 ------------
 30.n.pdb.xyz
 ------------
 Charge =  0 Multiplicity = 1

                         Standard orientation:
 ---------------------------------------------------------------------
 Center     Atomic      Atomic             Coordinates (Angstroms)
 Number     Number       Type             X           Y           Z
 ---------------------------------------------------------------------
      1          6           0       -4.046140   -0.466493   -0.376797
      2          7           0       -2.972786   -0.109754    0.552141
      3          6           0       -1.651176   -0.031873   -0.089162
      4          6           0       -1.574382    1.187378   -1.009862
      5          6           0       -0.578431    0.017540    1.017850
      6          6           0        0.843401   -0.047308    0.512790
      7          6           0        1.381475   -1.252325    0.036825
      8          6           0        2.691992   -1.315783   -0.437617
      9          6           0        3.493169   -0.171033   -0.441966
     10          6           0        2.972660    1.033712    0.033135
     11          6           0        1.659613    1.091106    0.505678
     12          1           0       -3.823971   -1.362321   -0.982632
     13          1           0       -4.963274   -0.654138    0.187808
     14          1           0       -4.242782    0.358449   -1.067346
     15          1           0       -2.928720   -0.841640    1.260355
     16          1           0       -1.464554   -0.934077   -0.700697
     17          1           0       -2.326836    1.136187   -1.801583
     18          1           0       -0.592457    1.251501   -1.485256
     19          1           0       -1.743975    2.106336   -0.438113
     20          1           0       -0.722211    0.933778    1.600784
     21          1           0       -0.755284   -0.824325    1.698993
     22          1           0        0.769384   -2.149892    0.045012
     23          1           0        3.089569   -2.259152   -0.798582
     24          1           0        4.513790   -0.219783   -0.807521
     25          1           0        3.587542    1.928250    0.039342
     26          1           0        1.260196    2.029570    0.879206
 ---------------------------------------------------------------------

 SCF Done:  E(RB3LYP) =  -444.850427595     A.U. after   10 cycles

 The electronic state is 1-A.
 Alpha  occ. eigenvalues --  -14.31232 -10.20982 -10.19537 -10.19478 -10.18931
 Alpha  occ. eigenvalues --  -10.18905 -10.18779 -10.18682 -10.18667 -10.18261
 Alpha  occ. eigenvalues --  -10.16737  -0.89807  -0.85396  -0.78238  -0.74239
 Alpha  occ. eigenvalues --   -0.73433  -0.68391  -0.65295  -0.60381  -0.58605
 Alpha  occ. eigenvalues --   -0.56161  -0.50928  -0.48692  -0.46218  -0.45748
 Alpha  occ. eigenvalues --   -0.44198  -0.43492  -0.41703  -0.40599  -0.39250
 Alpha  occ. eigenvalues --   -0.38711  -0.37964  -0.36464  -0.35301  -0.34445
 Alpha  occ. eigenvalues --   -0.33411  -0.33139  -0.32267  -0.25120  -0.24230
 Alpha  occ. eigenvalues --   -0.22415
 Alpha virt. eigenvalues --   -0.00320  -0.00042   0.08995   0.10024   0.12076
 Alpha virt. eigenvalues --    0.12505   0.14058   0.14794   0.15572   0.16479
 Alpha virt. eigenvalues --    0.16788   0.17312   0.17654   0.18187   0.19203

 Mulliken charges:
               1
     1  C   -0.312693
     2  N   -0.598814
     3  C    0.066634
     4  C   -0.455866
     5  C   -0.367459
     6  C    0.165437
     7  C   -0.198219
     8  C   -0.150774
     9  C   -0.153343
    10  C   -0.149963
    11  C   -0.201332
    12  H    0.127523
    13  H    0.153519
    14  H    0.156290
    15  H    0.332332
    16  H    0.112125
    17  H    0.151658
    18  H    0.151019
    19  H    0.143386
    20  H    0.149232
    21  H    0.152801
    22  H    0.142602
    23  H    0.147600
    24  H    0.146801
    25  H    0.147498
    26  H    0.142006
 Sum of Mulliken charges =  -0.00000

 Dipole moment (field-independent basis, Debye):
    X=             -0.0552    Y=             -1.4198    Z=             -0.1812  Tot=              1.4324
 Quadrupole moment (field-independent basis, Debye-Ang):
   XX=            -64.2472   YY=            -63.2422   ZZ=            -69.0268
   XY=              5.0392   XZ=             -1.0614   YZ=             -0.4607

 Normal termination of Gaussian 16 at Tue Mar  1 05:02:34 2022.
