 Gaussian 16, Revision A.03,

 ----------------------------------------------------------------------
 #p b3lyp/6-31G(d) opt=(MaxStep=10,MaxCycles=1000) freq scf=(MaxCycle=2
 000,NoVarAcc,NoIncFock) scrf=(iefpcm,read,solvent=water)
 ----------------------------------------------------------------------

 -------------
 303.n.pdb.xyz
 -------------
 Symbolic Z-matrix:
 Charge =  0 Multiplicity = 1

 SCF Done:  E(RB3LYP) =  -678.707972592     A.U. after   13 cycles
 SCF Done:  E(RB3LYP) =  -678.711893562     A.U. after   10 cycles
 SCF Done:  E(RB3LYP) =  -678.710965505     A.U. after   11 cycles
 SCF Done:  E(RB3LYP) =  -678.713529183     A.U. after   10 cycles
 SCF Done:  E(RB3LYP) =  -678.713588504     A.U. after    9 cycles
 SCF Done:  E(RB3LYP) =  -678.713600809     A.U. after    8 cycles
 SCF Done:  E(RB3LYP) =  -678.713607709     A.U. after    8 cycles
 SCF Done:  E(RB3LYP) =  -678.713609486     A.U. after    9 cycles
 SCF Done:  E(RB3LYP) =  -678.713600107     A.U. after    9 cycles
 SCF Done:  E(RB3LYP) =  -678.713593947     A.U. after    9 cycles
 SCF Done:  E(RB3LYP) =  -678.715427598     A.U. after    7 cycles
 SCF Done:  E(RB3LYP) =  -678.715427346     A.U. after    7 cycles
 SCF Done:  E(RB3LYP) =  -678.715428402     A.U. after    8 cycles
 SCF Done:  E(RB3LYP) =  -678.715427296     A.U. after    8 cycles
 SCF Done:  E(RB3LYP) =  -678.715428029     A.U. after    7 cycles
 SCF Done:  E(RB3LYP) =  -678.715428899     A.U. after    8 cycles
 SCF Done:  E(RB3LYP) =  -678.715428269     A.U. after    7 cycles
 Optimization completed.
    -- Stationary point found.
 Normal termination of Gaussian 16 at Tue Mar  1 19:02:32 2022.

 --------------------------------------------------------------------
 #P Geom=AllCheck Guess=TCheck SCRF=Check GenChk RB3LYP/6-31G(d) Freq
 --------------------------------------------------------------------

 Structure from the checkpoint file:  "303.n.pdb.xyz.mst.wat.chk"
 -------------
 303.n.pdb.xyz
 -------------
 Charge =  0 Multiplicity = 1

 SCF Done:  E(RB3LYP) =  -678.715428269     A.U. after    1 cycles

  Exact polarizability: 278.019  -5.215 205.542   0.861   0.819  78.446
 Approx polarizability: 285.958  -4.543 246.114  -2.055   2.600  91.284

                      1                      2                      3
                      A                      A                      A
 Frequencies --     39.1211                69.0297                89.8500
 Red. masses --      5.6678                 3.1368                 3.9086
 Frc consts  --      0.0051                 0.0088                 0.0186
 IR Inten    --      1.8275                 3.2823                 3.5727

                      4                      5                      6
                      A                      A                      A
 Frequencies --    108.8067               126.3028               130.2784
 Red. masses --      2.7219                 2.1036                 1.8870
 Frc consts  --      0.0190                 0.0198                 0.0189
 IR Inten    --      5.6718                 1.0023                12.8881

                      7                      8                      9
                      A                      A                      A
 Frequencies --    165.0734               235.1394               241.6666
 Red. masses --      1.3723                 3.9270                 5.9456
 Frc consts  --      0.0220                 0.1279                 0.2046
 IR Inten    --      3.7949                14.6787                18.4401

                     10                     11                     12
                      A                      A                      A
 Frequencies --    260.8981               298.8085               314.3720
 Red. masses --      2.5936                 3.4920                 1.1060
 Frc consts  --      0.1040                 0.1837                 0.0644
 IR Inten    --      9.8417                 0.9298                53.9535

                     13                     14                     15
                      A                      A                      A
 Frequencies --    350.9800               383.7027               421.1319
 Red. masses --      7.4161                 3.8785                 2.8556
 Frc consts  --      0.5383                 0.3364                 0.2984
 IR Inten    --      2.8983                 1.4335                 0.9945

                     16                     17                     18
                      A                      A                      A
 Frequencies --    473.6357               482.5426               539.3730
 Red. masses --      3.1970                 3.8249                 1.3535
 Frc consts  --      0.4226                 0.5247                 0.2320
 IR Inten    --     12.4566                 5.5668                93.2356

                     19                     20                     21
                      A                      A                      A
 Frequencies --    551.1631               573.6493               617.1130
 Red. masses --      4.5532                 3.5611                 1.4129
 Frc consts  --      0.8149                 0.6904                 0.3170
 IR Inten    --     22.6607                 0.5473               643.4214

                     22                     23                     24
                      A                      A                      A
 Frequencies --    638.2400               699.0252               734.9002
 Red. masses --      5.0099                 5.9630                 5.1101
 Frc consts  --      1.2024                 1.7167                 1.6261
 IR Inten    --     15.0889                17.4919                 8.6388

                     25                     26                     27
                      A                      A                      A
 Frequencies --    755.9704               758.3411               771.4641
 Red. masses --      4.9867                 3.0766                 5.2052
 Frc consts  --      1.6791                 1.0424                 1.8253
 IR Inten    --      4.6184                 6.4462                88.2260

                     28                     29                     30
                      A                      A                      A
 Frequencies --    834.8285               845.9865               879.2599
 Red. masses --      6.0372                 1.4087                 1.7529
 Frc consts  --      2.4790                 0.5940                 0.7985
 IR Inten    --     23.1248                 9.9584                36.0967

                     31                     32                     33
                      A                      A                      A
 Frequencies --    983.0613               984.7273               994.3539
 Red. masses --      1.4762                 3.0263                 6.8956
 Frc consts  --      0.8405                 1.7290                 4.0170
 IR Inten    --      5.2570                53.8562                41.1750

                     34                     35                     36
                      A                      A                      A
 Frequencies --   1031.7927              1076.7443              1090.7900
 Red. masses --      4.3785                 2.9014                 1.5068
 Frc consts  --      2.7464                 1.9819                 1.0563
 IR Inten    --     36.1708                 5.4318                20.2209

                     37                     38                     39
                      A                      A                      A
 Frequencies --   1104.5855              1114.4156              1129.2925
 Red. masses --      1.6818                 1.9472                 2.2414
 Frc consts  --      1.2090                 1.4248                 1.6842
 IR Inten    --     11.0210                 9.4453                59.7163

                     40                     41                     42
                      A                      A                      A
 Frequencies --   1142.5825              1168.0952              1188.1110
 Red. masses --      1.2308                 1.4581                 2.3971
 Frc consts  --      0.9467                 1.1721                 1.9936
 IR Inten    --      4.2139               154.0701                20.1118

                     43                     44                     45
                      A                      A                      A
 Frequencies --   1225.9374              1264.8120              1324.9749
 Red. masses --      2.1113                 2.9087                 4.7964
 Frc consts  --      1.8695                 2.7415                 4.9612
 IR Inten    --      7.2038                35.6928                15.5934

                     46                     47                     48
                      A                      A                      A
 Frequencies --   1341.7003              1351.9934              1391.5940
 Red. masses --      2.0976                 2.2593                 2.8071
 Frc consts  --      2.2248                 2.4332                 3.2029
 IR Inten    --     74.4606                 1.0775                18.1752

                     49                     50                     51
                      A                      A                      A
 Frequencies --   1404.4043              1458.6645              1466.5067
 Red. masses --      2.7654                 2.2858                 1.2383
 Frc consts  --      3.2136                 2.8655                 1.5690
 IR Inten    --     17.1418               518.3318                11.1558

                     52                     53                     54
                      A                      A                      A
 Frequencies --   1483.2904              1506.2190              1511.9498
 Red. masses --      2.1954                 1.0955                 1.0742
 Frc consts  --      2.8459                 1.4643                 1.4468
 IR Inten    --    195.9561                60.7733                 8.0938

                     55                     56                     57
                      A                      A                      A
 Frequencies --   1523.2735              1529.4496              1531.7860
 Red. masses --      1.9520                 1.6854                 1.3878
 Frc consts  --      2.6686                 2.3228                 1.9185
 IR Inten    --     48.6266                70.9004                56.6161

                     58                     59                     60
                      A                      A                      A
 Frequencies --   1551.9391              1562.2991              1601.7236
 Red. masses --      2.8354                 1.4276                 2.1398
 Frc consts  --      4.0236                 2.0530                 3.2344
 IR Inten    --     61.5322               345.2756               119.2022

                     61                     62                     63
                      A                      A                      A
 Frequencies --   1612.1872              1657.4881              1658.9090
 Red. masses --      3.4665                 3.9088                 2.6428
 Frc consts  --      5.3084                 6.3269                 4.2851
 IR Inten    --     84.0970                47.6990              1063.8556

                     64                     65                     66
                      A                      A                      A
 Frequencies --   3022.6662              3029.3157              3110.5188
 Red. masses --      1.0515                 1.0569                 1.0864
 Frc consts  --      5.6602                 5.7146                 6.1933
 IR Inten    --     85.6342               166.8183                46.6954

                     67                     68                     69
                      A                      A                      A
 Frequencies --   3131.5986              3166.7787              3177.9075
 Red. masses --      1.0808                 1.1003                 1.0896
 Frc consts  --      6.2449                 6.5010                 6.4835
 IR Inten    --     50.4239                33.7820                79.0938

                     70                     71                     72
                      A                      A                      A
 Frequencies --   3190.6280              3252.3766              3265.8191
 Red. masses --      1.1017                 1.0929                 1.0898
 Frc consts  --      6.6078                 6.8112                 6.8485
 IR Inten    --     14.8145                 8.2956                 4.4035

                     73                     74                     75
                      A                      A                      A
 Frequencies --   3542.6948              3637.7411              3639.1637
 Red. masses --      1.0488                 1.0838                 1.0998
 Frc consts  --      7.7555                 8.4502                 8.5813
 IR Inten    --    117.9045               267.1884                74.9429

 - Thermochemistry -
 -------------------
 Temperature   298.150 Kelvin.  Pressure   1.00000 Atm.
 Atom     1 has atomic number  6 and mass  12.00000

 Molecular mass:   204.11234 amu.
 Principal axes and moments of inertia in atomic units:
                           1         2         3
     Eigenvalues --  1106.754986171.370407248.77851
           X            0.99993  -0.01125   0.00327
           Y            0.01125   0.99994  -0.00122
           Z           -0.00326   0.00126   0.99999
 This molecule is an asymmetric top.
 Rotational symmetry number  1.
 Warning -- assumption of classical behavior for rotation
           may cause significant error
 Rotational temperatures (Kelvin)      0.07826     0.01403     0.01195
 Rotational constants (GHZ):           1.63066     0.29244     0.24897
 Zero-point vibrational energy     577362.8 (Joules/Mol)
                                  137.99301 (Kcal/Mol)
 Warning -- explicit consideration of  21 degrees of freedom as
           vibrations may cause significant error
 Vibrational temperatures:     56.29    99.32   129.27   156.55   181.72
          (Kelvin)            187.44   237.50   338.31   347.70   375.37
                              429.92   452.31   504.98   552.06   605.91
                              681.46   694.27   776.04   793.00   825.35
                              887.89   918.28  1005.74  1057.36  1087.67
                             1091.08  1109.96  1201.13  1217.19  1265.06
                             1414.41  1416.80  1430.65  1484.52  1549.19
                             1569.40  1589.25  1603.40  1624.80  1643.92
                             1680.63  1709.43  1763.85  1819.78  1906.34
                             1930.41  1945.22  2002.19  2020.62  2098.69
                             2109.98  2134.12  2167.11  2175.36  2191.65
                             2200.54  2203.90  2232.89  2247.80  2304.52
                             2319.58  2384.76  2386.80  4348.94  4358.51
                             4475.34  4505.67  4556.29  4572.30  4590.60
                             4679.44  4698.79  5097.15  5233.90  5235.94

 Zero-point correction=                           0.219906 (Hartree/Particle)
 Thermal correction to Energy=                    0.233591
 Thermal correction to Enthalpy=                  0.234535
 Thermal correction to Gibbs Free Energy=         0.178992
 Sum of electronic and zero-point Energies=           -678.495522
 Sum of electronic and thermal Energies=              -678.481837
 Sum of electronic and thermal Enthalpies=            -678.480893
 Sum of electronic and thermal Free Energies=         -678.536436

                     E (Thermal)             CV                S
                      KCal/Mol        Cal/Mol-Kelvin    Cal/Mol-Kelvin
 Total                  146.581             51.513            116.901
 Electronic               0.000              0.000              0.000
 Translational            0.889              2.981             41.845
 Rotational               0.889              2.981             32.271
 Vibrational            144.803             45.552             42.786
 Vibration     1          0.594              1.981              5.303
 Vibration     2          0.598              1.969              4.181
 Vibration     3          0.602              1.956              3.663
 Vibration     4          0.606              1.942              3.290
 Vibration     5          0.611              1.927              3.002
 Vibration     6          0.612              1.923              2.942
 Vibration     7          0.623              1.885              2.491
 Vibration     8          0.655              1.787              1.839
 Vibration     9          0.658              1.777              1.791
 Vibration    10          0.669              1.744              1.656
 Vibration    11          0.692              1.676              1.424
 Vibration    12          0.702              1.646              1.339
 Vibration    13          0.728              1.573              1.162
 Vibration    14          0.753              1.505              1.025
 Vibration    15          0.784              1.424              0.888
 Vibration    16          0.830              1.309              0.727
 Vibration    17          0.839              1.289              0.703
 Vibration    18          0.894              1.163              0.567
 Vibration    19          0.906              1.137              0.542
 Vibration    20          0.930              1.088              0.497
 Vibration    21          0.977              0.996              0.421

 Optimization completed.
    -- Stationary point found.
 Normal termination of Gaussian 16 at Tue Mar  1 19:20:12 2022.

 ------------------------------------------
 #p b3lyp/6-31G(d) geom=allcheck guess=read
 ------------------------------------------

 Structure from the checkpoint file:  "303.n.pdb.xyz.mst.wat.chk"
 -------------
 303.n.pdb.xyz
 -------------
 Charge =  0 Multiplicity = 1

 SCF Done:  E(RB3LYP) =  -678.684822822     A.U. after   12 cycles
 Normal termination of Gaussian 16 at Tue Mar  1 19:21:43 2022.
 Gaussian 16:  ES64L-G16RevA.03 25-Dec-2016

 ----------------------------------------------------------------------
 #p b3lyp/6-31G(d) scrf=(iefpcm,read,solvent=water) geom=allcheck guess
 =read
 ----------------------------------------------------------------------

 Structure from the checkpoint file:  "303.n.pdb.xyz.mst.wat.chk"
 -------------
 303.n.pdb.xyz
 -------------
 Charge =  0 Multiplicity = 1

                         Standard orientation:
 ---------------------------------------------------------------------
 Center     Atomic      Atomic             Coordinates (Angstroms)
 Number     Number       Type             X           Y           Z
 ---------------------------------------------------------------------
      1          6           0        4.600060   -0.091999    0.110318
      2          7           0        3.285745   -0.667267   -0.141670
      3          6           0        3.148556   -2.103783    0.040659
      4          6           0        2.172064    0.140274   -0.066561
      5          7           0        2.385166    1.474977   -0.025842
      6          6           0        1.314284    2.279896   -0.001143
      7          6           0       -0.002113    1.843211   -0.001975
      8          6           0       -0.228790    0.457038   -0.023314
      9          6           0        0.865874   -0.402564   -0.051504
     10          6           0       -1.600782   -0.069120   -0.008752
     11          7           0       -1.867490   -1.369655   -0.025262
     12          7           0       -3.233347   -1.384292   -0.002896
     13          6           0       -3.716316   -0.120847    0.023071
     14          7           0       -5.044949    0.191093    0.119387
     15          7           0       -2.702679    0.744171    0.020940
     16          1           0        5.358257   -0.785757   -0.256860
     17          1           0        4.781406    0.089951    1.179410
     18          1           0        4.695265    0.856593   -0.414864
     19          1           0        4.113808   -2.569987   -0.158184
     20          1           0        2.834831   -2.375306    1.058723
     21          1           0        2.423120   -2.518335   -0.663979
     22          1           0        1.530560    3.345859    0.027286
     23          1           0       -0.829109    2.539865    0.024729
     24          1           0        0.701526   -1.470306   -0.058428
     25          1           0       -3.745358   -2.258261   -0.008639
     26          1           0       -5.678365   -0.500494   -0.268430
     27          1           0       -5.260091    1.130350   -0.198152
 ---------------------------------------------------------------------

 SCF Done:  E(RB3LYP) =  -678.714637461     A.U. after   11 cycles

 The electronic state is 1-A.
 Alpha  occ. eigenvalues --  -14.40512 -14.35526 -14.35414 -14.34847 -14.32136
 Alpha  occ. eigenvalues --  -14.31899 -10.29111 -10.25679 -10.24252 -10.21933
 Alpha  occ. eigenvalues --  -10.21299 -10.21089 -10.20524 -10.18748 -10.18158
 Alpha  occ. eigenvalues --   -1.07193  -0.96959  -0.92933  -0.90838  -0.88741
 Alpha  occ. eigenvalues --   -0.82531  -0.78677  -0.75544  -0.71956  -0.67323
 Alpha  occ. eigenvalues --   -0.65583  -0.62512  -0.60597  -0.57770  -0.55323
 Alpha  occ. eigenvalues --   -0.51343  -0.50327  -0.48893  -0.47766  -0.47013
 Alpha  occ. eigenvalues --   -0.46392  -0.46140  -0.44301  -0.42955  -0.40453
 Alpha  occ. eigenvalues --   -0.39861  -0.39517  -0.38714  -0.37852  -0.36645
 Alpha  occ. eigenvalues --   -0.34514  -0.33566  -0.31779  -0.28764  -0.28290
 Alpha  occ. eigenvalues --   -0.26635  -0.25987  -0.22066  -0.20138
 Alpha virt. eigenvalues --   -0.03994   0.00752   0.04336   0.07954   0.09501
 Alpha virt. eigenvalues --    0.10169   0.12535   0.13225   0.13350   0.14783
 Alpha virt. eigenvalues --    0.15431   0.16440   0.16984   0.17262   0.17939

 Mulliken charges:
               1
     1  C   -0.305490
     2  N   -0.466129
     3  C   -0.317160
     4  C    0.527748
     5  N   -0.563367
     6  C    0.026796
     7  C   -0.231692
     8  C    0.145130
     9  C   -0.272717
    10  C    0.392808
    11  N   -0.394821
    12  N   -0.450255
    13  C    0.714827
    14  N   -0.821297
    15  N   -0.621366
    16  H    0.163140
    17  H    0.152270
    18  H    0.176123
    19  H    0.174056
    20  H    0.160447
    21  H    0.174664
    22  H    0.148277
    23  H    0.148338
    24  H    0.156149
    25  H    0.408143
    26  H    0.388822
    27  H    0.386554
 Sum of Mulliken charges =  -0.00000

 Dipole moment (field-independent basis, Debye):
    X=             -5.9598    Y=             -4.4444    Z=             -1.0504  Tot=              7.5083
 Quadrupole moment (field-independent basis, Debye-Ang):
   XX=            -38.5295   YY=            -79.6120   ZZ=            -90.5106
   XY=              1.4940   XZ=              8.7075   YZ=             -0.3954

 Normal termination of Gaussian 16 at Tue Mar  1 19:23:23 2022.
