 Gaussian 16, Revision A.03,

 ----------------------------------------------------------------------
 #p b3lyp/6-31G(d) opt=(MaxStep=10,MaxCycles=1000) freq scf=(MaxCycle=2
 000,NoVarAcc,NoIncFock) scrf=(iefpcm,read,solvent=water)
 ----------------------------------------------------------------------

 ------------
 31.n.pdb.xyz
 ------------
 Symbolic Z-matrix:
 Charge =  0 Multiplicity = 1

 SCF Done:  E(RB3LYP) =  -405.544293855     A.U. after   12 cycles
 SCF Done:  E(RB3LYP) =  -405.546572884     A.U. after    9 cycles
 SCF Done:  E(RB3LYP) =  -405.547145351     A.U. after   10 cycles
 SCF Done:  E(RB3LYP) =  -405.547255177     A.U. after    9 cycles
 SCF Done:  E(RB3LYP) =  -405.547202147     A.U. after    9 cycles
 SCF Done:  E(RB3LYP) =  -405.547320676     A.U. after    9 cycles
 SCF Done:  E(RB3LYP) =  -405.547400675     A.U. after   10 cycles
 SCF Done:  E(RB3LYP) =  -405.547427905     A.U. after    8 cycles
 SCF Done:  E(RB3LYP) =  -405.547443183     A.U. after    9 cycles
 SCF Done:  E(RB3LYP) =  -405.547442632     A.U. after    8 cycles
 SCF Done:  E(RB3LYP) =  -405.547436309     A.U. after    7 cycles
 SCF Done:  E(RB3LYP) =  -405.547444236     A.U. after    9 cycles
 SCF Done:  E(RB3LYP) =  -405.547435651     A.U. after    9 cycles
 SCF Done:  E(RB3LYP) =  -405.547435694     A.U. after    6 cycles
 SCF Done:  E(RB3LYP) =  -405.547444208     A.U. after    9 cycles
 SCF Done:  E(RB3LYP) =  -405.547444418     A.U. after    7 cycles
 SCF Done:  E(RB3LYP) =  -405.547435793     A.U. after    9 cycles
 Optimization completed.
    -- Stationary point found.
 Normal termination of Gaussian 16 at Tue Mar  1 06:56:39 2022.

 --------------------------------------------------------------------
 #P Geom=AllCheck Guess=TCheck SCRF=Check GenChk RB3LYP/6-31G(d) Freq
 --------------------------------------------------------------------

 Structure from the checkpoint file:  "31.n.pdb.xyz.mst.wat.chk"
 ------------
 31.n.pdb.xyz
 ------------
 Charge =  0 Multiplicity = 1

 SCF Done:  E(RB3LYP) =  -405.547435793     A.U. after    1 cycles

  Exact polarizability: 160.577   5.110 144.719 -18.078  14.947  86.247
 Approx polarizability: 169.447   6.318 165.623 -22.235  18.882  95.836

                      1                      2                      3
                      A                      A                      A
 Frequencies --     34.8377                79.6299                98.5986
 Red. masses --      3.3888                 3.1537                 3.7817
 Frc consts  --      0.0024                 0.0118                 0.0217
 IR Inten    --      0.5225                 1.8452                 2.4066

                      4                      5                      6
                      A                      A                      A
 Frequencies --    241.5441               249.9225               269.1015
 Red. masses --      2.9771                 1.0646                 1.2098
 Frc consts  --      0.1023                 0.0392                 0.0516
 IR Inten    --      8.7449                 0.1049                69.7486

                      7                      8                      9
                      A                      A                      A
 Frequencies --    293.9027               332.4252               418.5759
 Red. masses --      3.0595                 2.0620                 2.9898
 Frc consts  --      0.1557                 0.1343                 0.3086
 IR Inten    --      0.7784                 6.1746                 0.3018

                     10                     11                     12
                      A                      A                      A
 Frequencies --    425.3801               452.2121               510.1946
 Red. masses --      2.6618                 2.2203                 2.8225
 Frc consts  --      0.2838                 0.2675                 0.4329
 IR Inten    --     13.3852                 3.4458                11.7843

                     13                     14                     15
                      A                      A                      A
 Frequencies --    602.8076               634.5989               716.4426
 Red. masses --      4.2269                 6.2737                 2.0272
 Frc consts  --      0.9050                 1.4886                 0.6131
 IR Inten    --     11.5517                 0.2849                30.3926

                     16                     17                     18
                      A                      A                      A
 Frequencies --    757.4023               826.7159               844.0964
 Red. masses --      1.7793                 3.3785                 2.6728
 Frc consts  --      0.6014                 1.3605                 1.1220
 IR Inten    --     49.9271                 0.8376                17.7834

                     19                     20                     21
                      A                      A                      A
 Frequencies --    866.9436               901.4571               929.7777
 Red. masses --      1.2509                 1.5303                 1.5251
 Frc consts  --      0.5539                 0.7327                 0.7768
 IR Inten    --      0.0292                 7.2772                27.9309

                     22                     23                     24
                      A                      A                      A
 Frequencies --    948.6754               965.6367               976.9296
 Red. masses --      1.7777                 1.2902                 1.3498
 Frc consts  --      0.9426                 0.7088                 0.7590
 IR Inten    --    106.6701                63.0324                 0.3634

                     25                     26                     27
                      A                      A                      A
 Frequencies --   1002.1818              1016.5441              1034.0100
 Red. masses --      1.2430                 6.1835                 1.5924
 Frc consts  --      0.7355                 3.7648                 1.0031
 IR Inten    --      0.2037                 0.1284                 4.7283

                     28                     29                     30
                      A                      A                      A
 Frequencies --   1054.6701              1093.4160              1108.1218
 Red. masses --      2.1866                 1.4412                 2.6785
 Frc consts  --      1.4330                 1.0152                 1.9378
 IR Inten    --      7.6926                 7.5784                49.9151

                     31                     32                     33
                      A                      A                      A
 Frequencies --   1155.5752              1184.2340              1192.0524
 Red. masses --      1.1736                 1.0919                 1.7981
 Frc consts  --      0.9233                 0.9022                 1.5054
 IR Inten    --      1.9833                 0.2186                50.7345

                     34                     35                     36
                      A                      A                      A
 Frequencies --   1201.6431              1231.6852              1305.0091
 Red. masses --      1.1418                 2.4043                 1.4908
 Frc consts  --      0.9713                 2.1490                 1.4959
 IR Inten    --      2.2790                 0.8327                 3.1518

                     37                     38                     39
                      A                      A                      A
 Frequencies --   1323.4530              1359.9353              1361.8742
 Red. masses --      1.6157                 1.3099                 4.2261
 Frc consts  --      1.6673                 1.4274                 4.6181
 IR Inten    --      5.2287                 1.6217                 1.3856

                     40                     41                     42
                      A                      A                      A
 Frequencies --   1380.3540              1419.9295              1426.1686
 Red. masses --      1.4299                 1.2778                 1.2698
 Frc consts  --      1.6052                 1.5179                 1.5218
 IR Inten    --     11.8738                10.5630                11.7312

                     43                     44                     45
                      A                      A                      A
 Frequencies --   1494.7022              1496.7841              1511.1561
 Red. masses --      1.2131                 1.8303                 1.0517
 Frc consts  --      1.5968                 2.4160                 1.4150
 IR Inten    --      5.0601                 5.6844                 3.8136

                     46                     47                     48
                      A                      A                      A
 Frequencies --   1516.6424              1543.0504              1641.3367
 Red. masses --      1.0674                 2.2756                 5.5387
 Frc consts  --      1.4466                 3.1923                 8.7912
 IR Inten    --      3.8861                17.8872                 1.0428

                     49                     50                     51
                      A                      A                      A
 Frequencies --   1660.3148              1662.8980              3041.8653
 Red. masses --      1.1700                 4.2086                 1.0674
 Frc consts  --      1.9003                 6.8567                 5.8191
 IR Inten    --     37.3265                19.5213                 6.8607

                     52                     53                     54
                      A                      A                      A
 Frequencies --   3046.3810              3050.9222              3089.5423
 Red. masses --      1.0476                 1.0635                 1.1032
 Frc consts  --      5.7283                 5.8322                 6.2040
 IR Inten    --     23.5174               117.0804                42.6365

                     55                     56                     57
                      A                      A                      A
 Frequencies --   3113.9729              3119.7162              3187.7817
 Red. masses --      1.1022                 1.1028                 1.0867
 Frc consts  --      6.2969                 6.3238                 6.5065
 IR Inten    --     94.2163                66.2320                18.8598

                     58                     59                     60
                      A                      A                      A
 Frequencies --   3190.2646              3201.7507              3208.7263
 Red. masses --      1.0870                 1.0896                 1.0939
 Frc consts  --      6.5182                 6.5812                 6.6357
 IR Inten    --     12.7318                14.3281                81.8121

                     61                     62                     63
                      A                      A                      A
 Frequencies --   3221.7702              3444.9682              3525.5925
 Red. masses --      1.0977                 1.0520                 1.0906
 Frc consts  --      6.7130                 7.3556                 7.9871
 IR Inten    --     34.8333                 0.1291                 1.2606

 - Thermochemistry -
 -------------------
 Temperature   298.150 Kelvin.  Pressure   1.00000 Atm.
 Atom     1 has atomic number  6 and mass  12.00000

 Molecular mass:   135.10480 amu.
 Principal axes and moments of inertia in atomic units:
                           1         2         3
     Eigenvalues --   578.589912479.537722711.31091
           X            0.99998   0.00406  -0.00515
           Y           -0.00395   0.99975   0.02202
           Z            0.00524  -0.02200   0.99974
 This molecule is an asymmetric top.
 Rotational symmetry number  1.
 Warning -- assumption of classical behavior for rotation
           may cause significant error
 Rotational temperatures (Kelvin)      0.14970     0.03493     0.03195
 Rotational constants (GHZ):           3.11921     0.72785     0.66563
 Zero-point vibrational energy     533527.3 (Joules/Mol)
                                  127.51609 (Kcal/Mol)
 Warning -- explicit consideration of  13 degrees of freedom as
           vibrations may cause significant error
 Vibrational temperatures:     50.12   114.57   141.86   347.53   359.58
          (Kelvin)            387.18   422.86   478.29   602.24   612.03
                              650.63   734.06   867.31   913.05  1030.80
                             1089.73  1189.46  1214.47  1247.34  1297.00
                             1337.74  1364.93  1389.34  1405.58  1441.92
                             1462.58  1487.71  1517.44  1573.18  1594.34
                             1662.61  1703.85  1715.10  1728.90  1772.12
                             1877.62  1904.15  1956.64  1959.43  1986.02
                             2042.96  2051.94  2150.54  2153.54  2174.22
                             2182.11  2220.11  2361.52  2388.82  2392.54
                             4376.57  4383.06  4389.60  4445.16  4480.31
                             4488.58  4586.51  4590.08  4606.61  4616.64
                             4635.41  4956.54  5072.54

 Zero-point correction=                           0.203210 (Hartree/Particle)
 Thermal correction to Energy=                    0.213018
 Thermal correction to Enthalpy=                  0.213962
 Thermal correction to Gibbs Free Energy=         0.167559
 Sum of electronic and zero-point Energies=           -405.344226
 Sum of electronic and thermal Energies=              -405.334418
 Sum of electronic and thermal Enthalpies=            -405.333474
 Sum of electronic and thermal Free Energies=         -405.379877

                     E (Thermal)             CV                S
                      KCal/Mol        Cal/Mol-Kelvin    Cal/Mol-Kelvin
 Total                  133.671             37.637             97.664
 Electronic               0.000              0.000              0.000
 Translational            0.889              2.981             40.615
 Rotational               0.889              2.981             29.743
 Vibrational            131.893             31.675             27.306
 Vibration     1          0.594              1.983              5.533
 Vibration     2          0.600              1.963              3.900
 Vibration     3          0.604              1.950              3.482
 Vibration     4          0.658              1.777              1.791
 Vibration     5          0.663              1.763              1.731
 Vibration     6          0.673              1.730              1.602
 Vibration     7          0.689              1.685              1.451
 Vibration     8          0.714              1.611              1.248
 Vibration     9          0.781              1.430              0.897
 Vibration    10          0.787              1.415              0.874
 Vibration    11          0.811              1.356              0.789
 Vibration    12          0.865              1.227              0.633
 Vibration    13          0.961              1.026              0.445

 Optimization completed.
    -- Stationary point found.
 Normal termination of Gaussian 16 at Tue Mar  1 07:06:28 2022.

 ------------------------------------------
 #p b3lyp/6-31G(d) geom=allcheck guess=read
 ------------------------------------------

 Structure from the checkpoint file:  "31.n.pdb.xyz.mst.wat.chk"
 ------------
 31.n.pdb.xyz
 ------------
 Charge =  0 Multiplicity = 1

 SCF Done:  E(RB3LYP) =  -405.535028196     A.U. after   11 cycles

 1\1\GINC-PIRINEUS6\SP\RB3LYP\6-31G(d)\C9H13N1\UBATOR01\01-Mar-2022\0\\
 #p b3lyp/6-31G(d) geom=allcheck guess=read\\31.n.pdb.xyz\\0,1\C,0,-3.1
 155349432,0.0074181298,-0.6469833831\C,0,-1.7438506315,0.2626233377,-0
 .0082597271\N,0,-1.7115814246,0.0103227498,1.4425059756\C,0,-0.6553714
 276,-0.5768414914,-0.7104062426\C,0,0.7585270655,-0.2384816581,-0.2975
 545666\C,0,1.4002340668,0.8993081456,-0.8086200675\C,0,2.6986071716,1.
 2284710343,-0.4182463357\C,0,3.3844513132,0.4207478005,0.4912516905\C,
 0,2.7610682924,-0.7184764698,1.0041445112\C,0,1.4604718299,-1.04147840

 Normal termination of Gaussian 16 at Tue Mar  1 07:07:28 2022.
 Gaussian 16:  ES64L-G16RevA.03 25-Dec-2016

 ----------------------------------------------------------------------
 #p b3lyp/6-31G(d) scrf=(iefpcm,read,solvent=water) geom=allcheck guess
 =read
 ----------------------------------------------------------------------

 Structure from the checkpoint file:  "31.n.pdb.xyz.mst.wat.chk"
 ------------
 31.n.pdb.xyz
 ------------
 Charge =  0 Multiplicity = 1

                         Standard orientation:
 ---------------------------------------------------------------------
 Center     Atomic      Atomic             Coordinates (Angstroms)
 Number     Number       Type             X           Y           Z
 ---------------------------------------------------------------------
      1          6           0       -3.480804   -0.490568    0.184887
      2          6           0       -2.059863   -0.183043   -0.305999
      3          7           0       -1.948371    1.095259   -1.029139
      4          6           0       -1.063214   -0.207062    0.872395
      5          6           0        0.389719   -0.127269    0.464151
      6          6           0        1.055599   -1.256283   -0.035320
      7          6           0        2.391488   -1.186087   -0.431533
      8          6           0        3.091137    0.018287   -0.331732
      9          6           0        2.443561    1.149327    0.169158
     10          6           0        1.105577    1.072849    0.562422
     11          1           0       -3.810340    0.264684    0.908294
     12          1           0       -4.187040   -0.486739   -0.651833
     13          1           0       -3.535434   -1.471065    0.670540
     14          1           0       -1.762415   -0.969433   -1.011490
     15          1           0       -2.596629    1.076473   -1.817222
     16          1           0       -2.298643    1.837494   -0.420136
     17          1           0       -1.302497    0.625993    1.545251
     18          1           0       -1.235361   -1.129118    1.439047
     19          1           0        0.522756   -2.200421   -0.110259
     20          1           0        2.887837   -2.072832   -0.813048
     21          1           0        4.131229    0.072755   -0.636553
     22          1           0        2.978731    2.090028    0.255781
     23          1           0        0.607197    1.954466    0.955030
 ---------------------------------------------------------------------

 SCF Done:  E(RB3LYP) =  -405.546358825     A.U. after   10 cycles

 The electronic state is 1-A.
 Alpha  occ. eigenvalues --  -14.30387 -10.20973 -10.19297 -10.18783 -10.18762
 Alpha  occ. eigenvalues --  -10.18629 -10.18511 -10.18453 -10.18074 -10.16823
 Alpha  occ. eigenvalues --   -0.87917  -0.85028  -0.77184  -0.74078  -0.72762
 Alpha  occ. eigenvalues --   -0.67456  -0.60213  -0.59129  -0.56735  -0.50940
 Alpha  occ. eigenvalues --   -0.48376  -0.45758  -0.45064  -0.42794  -0.42160
 Alpha  occ. eigenvalues --   -0.41517  -0.40238  -0.38359  -0.37145  -0.36969
 Alpha  occ. eigenvalues --   -0.34756  -0.33634  -0.32847  -0.32476  -0.25062
 Alpha  occ. eigenvalues --   -0.24028  -0.23487
 Alpha virt. eigenvalues --   -0.00111   0.00160   0.08634   0.10224   0.12016
 Alpha virt. eigenvalues --    0.13684   0.14894   0.15431   0.15977   0.16831
 Alpha virt. eigenvalues --    0.17587   0.17741   0.19600   0.20157   0.20624

 Mulliken charges:
               1
     1  C   -0.454464
     2  C    0.033107
     3  N   -0.774237
     4  C   -0.350418
     5  C    0.181508
     6  C   -0.203507
     7  C   -0.151028
     8  C   -0.154954
     9  C   -0.152432
    10  C   -0.203194
    11  H    0.143345
    12  H    0.146223
    13  H    0.143794
    14  H    0.135476
    15  H    0.329063
    16  H    0.320269
    17  H    0.144750
    18  H    0.150903
    19  H    0.140218
    20  H    0.145878
    21  H    0.145202
    22  H    0.145751
    23  H    0.138748
 Sum of Mulliken charges =  -0.00000

 Dipole moment (field-independent basis, Debye):
    X=             -2.3274    Y=             -0.1246    Z=              0.4261  Tot=              2.3693
 Quadrupole moment (field-independent basis, Debye-Ang):
   XX=            -51.1617   YY=            -55.9429   ZZ=            -62.5253
   XY=             -1.8345   XZ=             -0.0294   YZ=              2.6191

 1\1\GINC-PIRINEUS6\SP\RB3LYP\6-31G(d)\C9H13N1\UBATOR01\01-Mar-2022\0\\
 #p b3lyp/6-31G(d) scrf=(iefpcm,read,solvent=water) geom=allcheck guess
 =read\\31.n.pdb.xyz\\0,1\C,0,-3.1155349432,0.0074181298,-0.6469833831\
 C,0,-1.7438506315,0.2626233377,-0.0082597271\N,0,-1.7115814246,0.01032
 27498,1.4425059756\C,0,-0.6553714276,-0.5768414914,-0.7104062426\C,0,0
 .7585270655,-0.2384816581,-0.2975545666\C,0,1.4002340668,0.8993081456,
 -0.8086200675\C,0,2.6986071716,1.2284710343,-0.4182463357\C,0,3.384451
 3132,0.4207478005,0.4912516905\C,0,2.7610682924,-0.7184764698,1.004144

 Normal termination of Gaussian 16 at Tue Mar  1 07:08:35 2022.
