 Gaussian 16, Revision A.03,

 ----------------------------------------------------------------------
 #p b3lyp/6-31G(d) opt=(MaxStep=10,MaxCycles=1000) freq scf=(MaxCycle=2
 000,NoVarAcc,NoIncFock) scrf=(iefpcm,read,solvent=water)
 ----------------------------------------------------------------------

 -------------
 312.n.pdb.xyz
 -------------
 Symbolic Z-matrix:
 Charge =  0 Multiplicity = 1

 SCF Done:  E(RB3LYP) =  -1617.01296742     A.U. after   14 cycles
 SCF Done:  E(RB3LYP) =  -1617.02011621     A.U. after   11 cycles
 SCF Done:  E(RB3LYP) =  -1617.02431068     A.U. after   11 cycles
 SCF Done:  E(RB3LYP) =  -1617.02798842     A.U. after   11 cycles
 SCF Done:  E(RB3LYP) =  -1617.02996791     A.U. after   11 cycles
 SCF Done:  E(RB3LYP) =  -1617.03065338     A.U. after   11 cycles
 SCF Done:  E(RB3LYP) =  -1617.03164991     A.U. after   11 cycles
 SCF Done:  E(RB3LYP) =  -1617.03350822     A.U. after   12 cycles
 SCF Done:  E(RB3LYP) =  -1617.03644894     A.U. after   12 cycles
 SCF Done:  E(RB3LYP) =  -1617.03935639     A.U. after   11 cycles
 SCF Done:  E(RB3LYP) =  -1617.06191087     A.U. after    9 cycles
 SCF Done:  E(RB3LYP) =  -1617.06191090     A.U. after    7 cycles
 SCF Done:  E(RB3LYP) =  -1617.06191027     A.U. after    7 cycles
 SCF Done:  E(RB3LYP) =  -1617.06191040     A.U. after    7 cycles
 SCF Done:  E(RB3LYP) =  -1617.06191085     A.U. after    7 cycles
 SCF Done:  E(RB3LYP) =  -1617.06191098     A.U. after    7 cycles
 SCF Done:  E(RB3LYP) =  -1617.06191097     A.U. after    6 cycles
 Optimization completed.
    -- Stationary point found.
 Normal termination of Gaussian 16 at Tue Mar  1 19:03:16 2022.

 --------------------------------------------------------------------
 #P Geom=AllCheck Guess=TCheck SCRF=Check GenChk RB3LYP/6-31G(d) Freq
 --------------------------------------------------------------------

 Structure from the checkpoint file:  "312.n.pdb.xyz.mst.wat.chk"
 -------------
 312.n.pdb.xyz
 -------------
 Charge =  0 Multiplicity = 1

 SCF Done:  E(RB3LYP) =  -1617.06191097     A.U. after    1 cycles

  Exact polarizability: 432.382 -11.498 315.445 -11.463 -12.677 181.559
 Approx polarizability: 444.543  -5.286 371.592  -8.530 -21.281 218.494

                      1                      2                      3
                      A                      A                      A
 Frequencies --     17.2188                25.6711                38.2477
 Red. masses --      4.5196                 4.8419                 7.8124
 Frc consts  --      0.0008                 0.0019                 0.0067
 IR Inten    --      2.8788                 0.3123                 1.7999

                      4                      5                      6
                      A                      A                      A
 Frequencies --     45.4041                59.7126                84.6541
 Red. masses --      7.7220                 6.4383                 2.7900
 Frc consts  --      0.0094                 0.0135                 0.0118
 IR Inten    --      0.3977                 6.5900                 2.3559

                      7                      8                      9
                      A                      A                      A
 Frequencies --     89.7880                96.3020               104.5346
 Red. masses --      3.7445                 1.7570                 2.9372
 Frc consts  --      0.0178                 0.0096                 0.0189
 IR Inten    --      4.8469                 0.3019                 1.3593

                     10                     11                     12
                      A                      A                      A
 Frequencies --    140.7672               164.6038               185.7840
 Red. masses --      4.9762                 4.7035                 7.0856
 Frc consts  --      0.0581                 0.0751                 0.1441
 IR Inten    --      3.3929                 2.0965                 5.2942

                     13                     14                     15
                      A                      A                      A
 Frequencies --    198.3620               204.0536               216.8104
 Red. masses --      5.2291                 4.7747                 6.0376
 Frc consts  --      0.1212                 0.1171                 0.1672
 IR Inten    --      1.4305                 4.8882                 2.2505

                     16                     17                     18
                      A                      A                      A
 Frequencies --    235.2726               242.4921               259.7774
 Red. masses --      1.0817                 4.2007                 1.0685
 Frc consts  --      0.0353                 0.1455                 0.0425
 IR Inten    --     13.1954                 0.5015               176.5822

                     19                     20                     21
                      A                      A                      A
 Frequencies --    278.2056               293.3310               308.9468
 Red. masses --      1.2641                 3.7718                 3.6121
 Frc consts  --      0.0576                 0.1912                 0.2031
 IR Inten    --     16.5193                 2.6329                 3.9173

                     22                     23                     24
                      A                      A                      A
 Frequencies --    318.3404               325.5796               351.0970
 Red. masses --      4.0784                 4.0580                 4.3212
 Frc consts  --      0.2435                 0.2534                 0.3138
 IR Inten    --      1.3463                 1.4012                 9.6933

                     25                     26                     27
                      A                      A                      A
 Frequencies --    370.2556               376.7919               399.5853
 Red. masses --      4.4597                 3.6689                 4.6842
 Frc consts  --      0.3602                 0.3069                 0.4407
 IR Inten    --      8.1176                 3.8411                15.0966

                     28                     29                     30
                      A                      A                      A
 Frequencies --    407.3245               434.4167               445.1439
 Red. masses --      6.1477                 4.0916                 6.8032
 Frc consts  --      0.6010                 0.4549                 0.7943
 IR Inten    --     20.7801                 0.7512                 5.5042

                     31                     32                     33
                      A                      A                      A
 Frequencies --    464.9873               470.3810               480.3568
 Red. masses --      4.6653                 7.6995                 6.1251
 Frc consts  --      0.5943                 1.0037                 0.8327
 IR Inten    --     15.1259                 3.5254                 3.7937

                     34                     35                     36
                      A                      A                      A
 Frequencies --    505.7596               555.4220               575.3031
 Red. masses --      4.7244                 4.8296                 4.8766
 Frc consts  --      0.7120                 0.8778                 0.9510
 IR Inten    --      7.0671                 6.7569                10.1866

                     37                     38                     39
                      A                      A                      A
 Frequencies --    602.2598               632.5956               667.4116
 Red. masses --      4.1175                 4.1089                 4.0802
 Frc consts  --      0.8799                 0.9688                 1.0708
 IR Inten    --      9.9278                 0.7829                14.1753

                     40                     41                     42
                      A                      A                      A
 Frequencies --    673.8814               688.7976               711.0391
 Red. masses --      6.3400                 7.1853                 4.9559
 Frc consts  --      1.6963                 2.0085                 1.4762
 IR Inten    --     13.9406                16.4930                33.0218

                     43                     44                     45
                      A                      A                      A
 Frequencies --    744.9597               751.1893               780.1931
 Red. masses --      7.3646                 7.1920                 2.5388
 Frc consts  --      2.4080                 2.3911                 0.9105
 IR Inten    --      2.7568                19.6435                40.4319

                     46                     47                     48
                      A                      A                      A
 Frequencies --    786.2119               799.7155               806.8257
 Red. masses --      5.6427                 8.0425                 5.4075
 Frc consts  --      2.0550                 3.0305                 2.0740
 IR Inten    --     10.3767                90.9688                30.3978

                     49                     50                     51
                      A                      A                      A
 Frequencies --    811.3024               832.3140               860.3213
 Red. masses --      2.2525                 1.7155                 3.0644
 Frc consts  --      0.8736                 0.7002                 1.3363
 IR Inten    --     47.4607                10.2169                20.8917

                     52                     53                     54
                      A                      A                      A
 Frequencies --    918.4994               926.0841               932.4200
 Red. masses --      1.3843                 3.6324                 6.3374
 Frc consts  --      0.6881                 1.8355                 3.2463
 IR Inten    --      0.7448                 3.7767               101.9301

                     55                     56                     57
                      A                      A                      A
 Frequencies --    942.5583               953.7686               984.0209
 Red. masses --      1.7022                 4.1561                 3.9689
 Frc consts  --      0.8910                 2.2275                 2.2643
 IR Inten    --     21.2530                27.1213                47.1689

                     58                     59                     60
                      A                      A                      A
 Frequencies --    994.4531               995.9840              1022.5140
 Red. masses --      2.2317                 1.3125                 5.4803
 Frc consts  --      1.3003                 0.7671                 3.3759
 IR Inten    --      5.2960                 0.7782                20.4820

                     61                     62                     63
                      A                      A                      A
 Frequencies --   1026.2034              1034.0433              1073.6275
 Red. masses --      4.2103                 1.4577                 3.1317
 Frc consts  --      2.6124                 0.9183                 2.1268
 IR Inten    --     24.5740                12.8471                93.4162

                     64                     65                     66
                      A                      A                      A
 Frequencies --   1094.2656              1112.3969              1149.1080
 Red. masses --      3.3014                 1.8111                 1.7839
 Frc consts  --      2.3291                 1.3204                 1.3879
 IR Inten    --     34.0117                20.9341               140.3316

                     67                     68                     69
                      A                      A                      A
 Frequencies --   1157.1261              1162.3407              1181.5770
 Red. masses --      1.4827                 2.0876                 1.4750
 Frc consts  --      1.1697                 1.6617                 1.2133
 IR Inten    --     66.1301                15.8906                 7.9949

                     70                     71                     72
                      A                      A                      A
 Frequencies --   1198.9627              1210.2977              1212.6635
 Red. masses --      3.3967                 2.3172                 2.0241
 Frc consts  --      2.8769                 1.9999                 1.7537
 IR Inten    --     39.2434                58.7545               174.4403

                     73                     74                     75
                      A                      A                      A
 Frequencies --   1228.8170              1244.1110              1261.8855
 Red. masses --      2.7411                 2.9760                 2.3622
 Frc consts  --      2.4387                 2.7140                 2.2162
 IR Inten    --     25.9663                69.8073                65.3497

                     76                     77                     78
                      A                      A                      A
 Frequencies --   1275.3536              1301.7857              1314.5660
 Red. masses --      3.6084                 2.6787                 2.6068
 Frc consts  --      3.4581                 2.6746                 2.6541
 IR Inten    --     63.3826                92.7460               106.2748

                     79                     80                     81
                      A                      A                      A
 Frequencies --   1327.3789              1353.0091              1381.3235
 Red. masses --      6.9121                 4.7113                 1.6416
 Frc consts  --      7.1755                 5.0815                 1.8455
 IR Inten    --      0.2312                52.2224                 7.1680

                     82                     83                     84
                      A                      A                      A
 Frequencies --   1392.8803              1417.8280              1422.6336
 Red. masses --      2.3954                 1.3358                 2.4483
 Frc consts  --      2.7381                 1.5821                 2.9194
 IR Inten    --    241.9719                28.6373                99.3245

                     85                     86                     87
                      A                      A                      A
 Frequencies --   1432.0766              1435.1646              1444.0930
 Red. masses --      4.3483                 1.3207                 1.5517
 Frc consts  --      5.2542                 1.6027                 1.9066
 IR Inten    --      8.0533                15.1877                50.7133

                     88                     89                     90
                      A                      A                      A
 Frequencies --   1467.5555              1484.6278              1496.9083
 Red. masses --      1.6759                 2.7403                 3.1822
 Frc consts  --      2.1266                 3.5586                 4.2012
 IR Inten    --     79.1909                53.0697               123.3872

                     91                     92                     93
                      A                      A                      A
 Frequencies --   1500.1556              1502.6646              1506.3985
 Red. masses --      1.0464                 1.0489                 1.0978
 Frc consts  --      1.3875                 1.3954                 1.4677
 IR Inten    --      0.1243                 3.2306                42.2667

                     94                     95                     96
                      A                      A                      A
 Frequencies --   1514.2085              1515.4208              1519.6223
 Red. masses --      1.0563                 1.2843                 1.4722
 Frc consts  --      1.4270                 1.7377                 2.0030
 IR Inten    --      4.1320                16.7855                65.7078

                     97                     98                     99
                      A                      A                      A
 Frequencies --   1527.1489              1538.1734              1568.3787
 Red. masses --      1.6377                 1.3907                 6.5061
 Frc consts  --      2.2504                 1.9386                 9.4292
 IR Inten    --     90.5135               131.5391                59.2897

                    100                    101                    102
                      A                      A                      A
 Frequencies --   1617.0092              1620.9124              1641.6250
 Red. masses --      9.0008                 6.5929                 7.6158
 Frc consts  --     13.8662                10.2058                12.0925
 IR Inten    --    389.9346                34.3802               106.0525

                    103                    104                    105
                      A                      A                      A
 Frequencies --   1653.7340              1714.6130              3063.9243
 Red. masses --      8.8599                10.3559                 1.0354
 Frc consts  --     14.2761                17.9378                 5.7268
 IR Inten    --     30.6853               699.0437                22.0963

                    106                    107                    108
                      A                      A                      A
 Frequencies --   3068.5876              3078.7088              3092.8949
 Red. masses --      1.0419                 1.0352                 1.0692
 Frc consts  --      5.7806                 5.7813                 6.0260
 IR Inten    --     56.4858                22.1179                19.8991

                    109                    110                    111
                      A                      A                      A
 Frequencies --   3136.9012              3140.3268              3150.8657
 Red. masses --      1.1025                 1.0988                 1.1035
 Frc consts  --      6.3917                 6.3841                 6.4551
 IR Inten    --     27.3758                32.3602                32.2168

                    112                    113                    114
                      A                      A                      A
 Frequencies --   3153.3885              3163.2343              3189.9900
 Red. masses --      1.1039                 1.1035                 1.0969
 Frc consts  --      6.4677                 6.5056                 6.5766
 IR Inten    --     32.9891                34.4858                 0.5428

                    115                    116                    117
                      A                      A                      A
 Frequencies --   3208.6897              3232.7654              3246.0716
 Red. masses --      1.1007                 1.0881                 1.0922
 Frc consts  --      6.6768                 6.7002                 6.7806
 IR Inten    --      3.6469                 5.6684                 5.1670

                    118                    119                    120
                      A                      A                      A
 Frequencies --   3252.0725              3305.0056              3723.7651
 Red. masses --      1.0970                 1.0977                 1.0663
 Frc consts  --      6.8354                 7.0643                 8.7119
 IR Inten    --      7.9031                 0.1467               110.3326

 - Thermochemistry -
 -------------------
 Temperature   298.150 Kelvin.  Pressure   1.00000 Atm.
 Atom     1 has atomic number  6 and mass  12.00000

 Molecular mass:   373.09417 amu.
 Principal axes and moments of inertia in atomic units:
                           1         2         3
     Eigenvalues --  3422.13897********************
           X            1.00000  -0.00204  -0.00088
           Y            0.00204   0.99998   0.00652
           Z            0.00087  -0.00652   0.99998
 This molecule is an asymmetric top.
 Rotational symmetry number  1.
 Warning -- assumption of classical behavior for rotation
           may cause significant error
 Rotational temperatures (Kelvin)      0.02531     0.00406     0.00368
 Rotational constants (GHZ):           0.52737     0.08456     0.07675
 Zero-point vibrational energy     843557.9 (Joules/Mol)
                                  201.61518 (Kcal/Mol)
 Warning -- explicit consideration of  37 degrees of freedom as
           vibrations may cause significant error
 Vibrational temperatures:     24.77    36.93    55.03    65.33    85.91
          (Kelvin)            121.80   129.18   138.56   150.40   202.53
                              236.83   267.30   285.40   293.59   311.94
                              338.50   348.89   373.76   400.28   422.04
                              444.51   458.02   468.44   505.15   532.72
                              542.12   574.91   586.05   625.03   640.46
                              669.01   676.77   691.13   727.68   799.13
                              827.73   866.52   910.16   960.26   969.57
                              991.03  1023.03  1071.83  1080.79  1122.52
                             1131.18  1150.61  1160.84  1167.28  1197.51
                             1237.81  1321.52  1332.43  1341.54  1356.13
                             1372.26  1415.79  1430.80  1433.00  1471.17
                             1476.48  1487.76  1544.71  1574.40  1600.49
                             1653.31  1664.85  1672.35  1700.03  1725.04
                             1741.35  1744.75  1767.99  1790.00  1815.57
                             1834.95  1872.98  1891.37  1909.80  1946.68
                             1987.42  2004.04  2039.94  2046.85  2060.44
                             2064.88  2077.73  2111.49  2136.05  2153.72
                             2158.39  2162.00  2167.37  2178.61  2180.35
                             2186.40  2197.23  2213.09  2256.55  2326.52
                             2332.13  2361.93  2379.35  2466.95  4408.30
                             4415.01  4429.58  4449.99  4513.30  4518.23
                             4533.39  4537.02  4551.19  4589.68  4616.59
                             4651.23  4670.37  4679.01  4755.17  5357.67

 Zero-point correction=                           0.321294 (Hartree/Particle)
 Thermal correction to Energy=                    0.344359
 Thermal correction to Enthalpy=                  0.345303
 Thermal correction to Gibbs Free Energy=         0.267074
 Sum of electronic and zero-point Energies=          -1616.740617
 Sum of electronic and thermal Energies=             -1616.717552
 Sum of electronic and thermal Enthalpies=           -1616.716608
 Sum of electronic and thermal Free Energies=        -1616.794837

                     E (Thermal)             CV                S
                      KCal/Mol        Cal/Mol-Kelvin    Cal/Mol-Kelvin
 Total                  216.089             87.387            164.648
 Electronic               0.000              0.000              0.000
 Translational            0.889              2.981             43.643
 Rotational               0.889              2.981             35.794
 Vibrational            214.311             81.425             85.210
 Vibration     1          0.593              1.986              6.932
 Vibration     2          0.593              1.985              6.139
 Vibration     3          0.594              1.982              5.348
 Vibration     4          0.595              1.979              5.008
 Vibration     5          0.597              1.974              4.467
 Vibration     6          0.601              1.960              3.780
 Vibration     7          0.602              1.956              3.665
 Vibration     8          0.603              1.952              3.528
 Vibration     9          0.605              1.946              3.368
 Vibration    10          0.615              1.913              2.793
 Vibration    11          0.623              1.886              2.496
 Vibration    12          0.632              1.859              2.269
 Vibration    13          0.637              1.842              2.148
 Vibration    14          0.640              1.834              2.096
 Vibration    15          0.646              1.815              1.986
 Vibration    16          0.655              1.787              1.838
 Vibration    17          0.659              1.775              1.785
 Vibration    18          0.668              1.746              1.663
 Vibration    19          0.679              1.714              1.545
 Vibration    20          0.688              1.686              1.455
 Vibration    21          0.698              1.657              1.368
 Vibration    22          0.705              1.639              1.319
 Vibration    23          0.710              1.624              1.282
 Vibration    24          0.728              1.573              1.161
 Vibration    25          0.742              1.533              1.079
 Vibration    26          0.747              1.520              1.052
 Vibration    27          0.766              1.471              0.964
 Vibration    28          0.772              1.454              0.936
 Vibration    29          0.795              1.395              0.844
 Vibration    30          0.805              1.372              0.811
 Vibration    31          0.822              1.328              0.752
 Vibration    32          0.827              1.316              0.736
 Vibration    33          0.837              1.294              0.709
 Vibration    34          0.861              1.237              0.644
 Vibration    35          0.911              1.128              0.533
 Vibration    36          0.932              1.085              0.494
 Vibration    37          0.961              1.027              0.446

                           ! Non-Optimized Parameters !
 Normal termination of Gaussian 16 at Tue Mar  1 20:18:38 2022.

 ------------------------------------------
 #p b3lyp/6-31G(d) geom=allcheck guess=read
 ------------------------------------------

 Structure from the checkpoint file:  "312.n.pdb.xyz.mst.wat.chk"
 -------------
 312.n.pdb.xyz
 -------------
 Charge =  0 Multiplicity = 1

 SCF Done:  E(RB3LYP) =  -1617.03404702     A.U. after   12 cycles
 Normal termination of Gaussian 16 at Tue Mar  1 20:23:41 2022.
 Gaussian 16:  ES64L-G16RevA.03 25-Dec-2016

 ----------------------------------------------------------------------
 #p b3lyp/6-31G(d) scrf=(iefpcm,read,solvent=water) geom=allcheck guess
 =read
 ----------------------------------------------------------------------

 Structure from the checkpoint file:  "312.n.pdb.xyz.mst.wat.chk"
 -------------
 312.n.pdb.xyz
 -------------
 Charge =  0 Multiplicity = 1

                         Standard orientation:
 ---------------------------------------------------------------------
 Center     Atomic      Atomic             Coordinates (Angstroms)
 Number     Number       Type             X           Y           Z
 ---------------------------------------------------------------------
      1          6           0       -0.935747   -2.915944   -0.558899
      2          7           0       -1.575830   -1.723379   -0.010249
      3          6           0       -0.788772   -0.888586    0.906786
      4          6           0       -0.266785    0.313439    0.195331
      5          6           0        0.982125    0.760388   -0.183854
      6          7           0        0.875491    1.946149   -0.891872
      7          6           0       -0.407553    2.209798   -0.940509
      8          7           0       -1.154003    1.250177   -0.299706
      9          6           0       -2.554003    1.256292   -0.057565
     10          6           0       -3.166952    2.480583    0.218294
     11          6           0       -4.525611    2.524497    0.502762
     12          6           0       -5.269127    1.347018    0.548722
     13          6           0       -4.647396    0.136202    0.262388
     14         17           0       -5.634102   -1.313239    0.381689
     15          6           0       -3.284500    0.049652   -0.069811
     16          6           0       -2.714426   -1.256402   -0.586375
     17          8           0       -3.297810   -1.847018   -1.497877
     18          6           0        2.277604    0.154736    0.084715
     19          7           0        2.422860   -0.977559    0.741270
     20          8           0        3.818418   -1.161537    0.763904
     21          6           0        4.354580   -0.117720    0.115330
     22          7           0        3.466107    0.724087   -0.326579
     23          6           0        5.859189   -0.008095    0.040177
     24          6           0        6.267863    0.711321   -1.250086
     25          6           0        6.358154    0.745180    1.288057
     26          8           0        6.336039   -1.353681    0.046171
     27          1           0       -0.098382   -2.648483   -1.212367
     28          1           0       -0.563894   -3.535069    0.259899
     29          1           0       -1.676589   -3.466415   -1.133988
     30          1           0        0.042784   -1.482784    1.280005
     31          1           0       -1.407969   -0.596216    1.760200
     32          1           0       -0.865583    3.054836   -1.431135
     33          1           0       -2.569015    3.382980    0.232902
     34          1           0       -5.002548    3.472597    0.720808
     35          1           0       -6.319740    1.361201    0.809101
     36          1           0        7.358141    0.787802   -1.285299
     37          1           0        5.848713    1.718531   -1.295393
     38          1           0        5.927926    0.148895   -2.122778
     39          1           0        5.953323    1.759511    1.326838
     40          1           0        7.451209    0.810758    1.253645
     41          1           0        6.066763    0.211285    2.197133
     42          1           0        7.307190   -1.306954    0.071300
 ---------------------------------------------------------------------

 SCF Done:  E(RB3LYP) =  -1617.05871591     A.U. after   12 cycles

 The electronic state is 1-A.
 Alpha  occ. eigenvalues -- -101.55875 -19.25586 -19.15451 -19.12848 -14.42152
 Alpha  occ. eigenvalues --  -14.39532 -14.38229 -14.34989 -14.33975 -10.30727
 Alpha  occ. eigenvalues --  -10.30123 -10.27371 -10.27264 -10.27254 -10.26828
 Alpha  occ. eigenvalues --  -10.25998 -10.24566 -10.24538 -10.23549 -10.23379
 Alpha  occ. eigenvalues --  -10.21665 -10.21569 -10.21474 -10.21453 -10.18640
 Alpha  occ. eigenvalues --  -10.18221  -9.47502  -7.23910  -7.22939  -7.22876
 Alpha  occ. eigenvalues --   -1.17253  -1.05338  -1.04437  -1.03309  -0.95377
 Alpha  occ. eigenvalues --   -0.95021  -0.92533  -0.89842  -0.88377  -0.84703
 Alpha  occ. eigenvalues --   -0.80008  -0.78751  -0.78675  -0.75328  -0.73183
 Alpha  occ. eigenvalues --   -0.71169  -0.70123  -0.67872  -0.67152  -0.65397
 Alpha  occ. eigenvalues --   -0.63392  -0.60215  -0.59103  -0.57937  -0.57427
 Alpha  occ. eigenvalues --   -0.54428  -0.53235  -0.51666  -0.50693  -0.50062
 Alpha  occ. eigenvalues --   -0.49220  -0.48973  -0.48326  -0.47631  -0.46671
 Alpha  occ. eigenvalues --   -0.45665  -0.45209  -0.44763  -0.43921  -0.42782
 Alpha  occ. eigenvalues --   -0.42444  -0.42192  -0.42002  -0.41849  -0.40757
 Alpha  occ. eigenvalues --   -0.39836  -0.39632  -0.39279  -0.38626  -0.38162
 Alpha  occ. eigenvalues --   -0.37840  -0.36718  -0.36229  -0.35861  -0.34491
 Alpha  occ. eigenvalues --   -0.33642  -0.32402  -0.31528  -0.31236  -0.30160
 Alpha  occ. eigenvalues --   -0.29746  -0.28091  -0.27929  -0.26137  -0.26002
 Alpha  occ. eigenvalues --   -0.25357  -0.23681
 Alpha virt. eigenvalues --   -0.05181  -0.04535  -0.03060   0.00236   0.01275
 Alpha virt. eigenvalues --    0.02059   0.02650   0.06671   0.08702   0.10275
 Alpha virt. eigenvalues --    0.10641   0.11668   0.12012   0.12214   0.13258

 Mulliken charges:
               1
     1  C   -0.327184
     2  N   -0.394529
     3  C   -0.261802
     4  C    0.339135
     5  C    0.112484
     6  N   -0.555669
     7  C    0.225994
     8  N   -0.562354
     9  C    0.295689
    10  C   -0.153382
    11  C   -0.140195
    12  C   -0.126526
    13  C   -0.133702
    14  Cl  -0.008057
    15  C    0.053438
    16  C    0.544394
    17  O   -0.562921
    18  C    0.435117
    19  N   -0.283590
    20  O   -0.374410
    21  C    0.629672
    22  N   -0.566297
    23  C    0.215306
    24  C   -0.460110
    25  C   -0.462793
    26  O   -0.675566
    27  H    0.179539
    28  H    0.182945
    29  H    0.193467
    30  H    0.218497
    31  H    0.209992
    32  H    0.207907
    33  H    0.185797
    34  H    0.181818
    35  H    0.184238
    36  H    0.163164
    37  H    0.169173
    38  H    0.166563
    39  H    0.170865
    40  H    0.169878
    41  H    0.169561
    42  H    0.444454
 Sum of Mulliken charges =  -0.00000

 Dipole moment (field-independent basis, Debye):
    X=              2.2481    Y=              4.8712    Z=              3.7844  Tot=              6.5654
 Quadrupole moment (field-independent basis, Debye-Ang):
   XX=           -118.0919   YY=           -149.8711   ZZ=           -159.2632
   XY=            -21.3234   XZ=             -8.7825   YZ=              0.3525

 Normal termination of Gaussian 16 at Tue Mar  1 20:29:54 2022.
