 Gaussian 16, Revision A.03,

 ----------------------------------------------------------------------
 #p b3lyp/6-31G(d) opt=(MaxStep=10,MaxCycles=1000) freq scf=(MaxCycle=2
 000,NoVarAcc,NoIncFock) scrf=(iefpcm,read,solvent=water)
 ----------------------------------------------------------------------

 -------------
 316.n.pdb.xyz
 -------------
 Symbolic Z-matrix:
 Charge =  0 Multiplicity = 1

 SCF Done:  E(RB3LYP) =  -940.913629400     A.U. after   13 cycles
 SCF Done:  E(RB3LYP) =  -940.918061798     A.U. after   10 cycles
 SCF Done:  E(RB3LYP) =  -940.918186625     A.U. after   11 cycles
 SCF Done:  E(RB3LYP) =  -940.919396942     A.U. after   11 cycles
 SCF Done:  E(RB3LYP) =  -940.920515378     A.U. after   11 cycles
 SCF Done:  E(RB3LYP) =  -940.919246620     A.U. after   10 cycles
 SCF Done:  E(RB3LYP) =  -940.920582689     A.U. after    9 cycles
 SCF Done:  E(RB3LYP) =  -940.920160844     A.U. after   11 cycles
 SCF Done:  E(RB3LYP) =  -940.920573826     A.U. after   11 cycles
 SCF Done:  E(RB3LYP) =  -940.920561189     A.U. after   10 cycles
 SCF Done:  E(RB3LYP) =  -940.920706115     A.U. after    9 cycles
 SCF Done:  E(RB3LYP) =  -940.920715494     A.U. after    7 cycles
 SCF Done:  E(RB3LYP) =  -940.920717176     A.U. after    7 cycles
 SCF Done:  E(RB3LYP) =  -940.920718505     A.U. after    7 cycles
 SCF Done:  E(RB3LYP) =  -940.920714640     A.U. after    7 cycles
 SCF Done:  E(RB3LYP) =  -940.920713023     A.U. after    7 cycles
 SCF Done:  E(RB3LYP) =  -940.920711716     A.U. after    6 cycles
 Optimization completed.
    -- Stationary point found.
 Normal termination of Gaussian 16 at Wed Mar  2 02:15:04 2022.

 --------------------------------------------------------------------
 #P Geom=AllCheck Guess=TCheck SCRF=Check GenChk RB3LYP/6-31G(d) Freq
 --------------------------------------------------------------------

 Structure from the checkpoint file:  "316.n.pdb.xyz.mst.wat.chk"
 -------------
 316.n.pdb.xyz
 -------------
 Charge =  0 Multiplicity = 1

 SCF Done:  E(RB3LYP) =  -940.920711716     A.U. after    1 cycles

  Exact polarizability: 336.127  -5.315 285.375  -6.240  29.399 166.418
 Approx polarizability: 352.184  -6.580 318.003  -3.219  39.481 185.477

                      1                      2                      3
                      A                      A                      A
 Frequencies --     28.7359                42.5837                47.1378
 Red. masses --      4.4079                 7.5087                 4.2891
 Frc consts  --      0.0021                 0.0080                 0.0056
 IR Inten    --      0.1632                 2.7919                 0.3438

                      4                      5                      6
                      A                      A                      A
 Frequencies --     67.1593                92.7311               110.0509
 Red. masses --      3.6559                 3.4201                 2.9249
 Frc consts  --      0.0097                 0.0173                 0.0209
 IR Inten    --      1.4047                 0.3057                 1.0548

                      7                      8                      9
                      A                      A                      A
 Frequencies --    126.7225               143.4515               151.3730
 Red. masses --      2.7238                 3.1821                 2.2287
 Frc consts  --      0.0258                 0.0386                 0.0301
 IR Inten    --      0.2251                 0.0415                 1.5723

                     10                     11                     12
                      A                      A                      A
 Frequencies --    164.0842               181.5075               201.3280
 Red. masses --      2.7339                 4.6952                 1.6648
 Frc consts  --      0.0434                 0.0911                 0.0398
 IR Inten    --      2.3205                 0.4259                 3.2675

                     13                     14                     15
                      A                      A                      A
 Frequencies --    216.0687               236.5017               264.0645
 Red. masses --      2.0836                 2.0380                 3.4473
 Frc consts  --      0.0573                 0.0672                 0.1416
 IR Inten    --      3.9724                 0.2122                 4.7222

                     16                     17                     18
                      A                      A                      A
 Frequencies --    282.0026               296.3178               305.6344
 Red. masses --      3.6525                 2.5782                 2.6889
 Frc consts  --      0.1711                 0.1334                 0.1480
 IR Inten    --      0.1664                 3.0489                 1.2071

                     19                     20                     21
                      A                      A                      A
 Frequencies --    328.4773               343.2756               393.3332
 Red. masses --      2.2434                 3.3136                 3.5272
 Frc consts  --      0.1426                 0.2301                 0.3215
 IR Inten    --      2.1200                 0.3827                 9.4934

                     22                     23                     24
                      A                      A                      A
 Frequencies --    407.4363               420.8770               446.0762
 Red. masses --      3.7937                 1.5334                 1.9640
 Frc consts  --      0.3711                 0.1600                 0.2303
 IR Inten    --     17.1153               108.2181                49.3258

                     25                     26                     27
                      A                      A                      A
 Frequencies --    475.6619               497.0001               515.2637
 Red. masses --      2.8099                 3.7407                 3.8720
 Frc consts  --      0.3746                 0.5444                 0.6057
 IR Inten    --      6.0530                 1.2508                 6.8551

                     28                     29                     30
                      A                      A                      A
 Frequencies --    553.5037               568.5599               588.3455
 Red. masses --      3.6058                 3.6411                 2.5950
 Frc consts  --      0.6509                 0.6935                 0.5292
 IR Inten    --     19.8022                 8.4819                24.3972

                     31                     32                     33
                      A                      A                      A
 Frequencies --    605.6896               623.0394               636.2631
 Red. masses --      3.2183                 4.2563                 3.6229
 Frc consts  --      0.6956                 0.9735                 0.8641
 IR Inten    --     80.9654                18.1058                29.9652

                     34                     35                     36
                      A                      A                      A
 Frequencies --    670.5846               706.6914               728.6823
 Red. masses --      1.7660                 4.5364                 4.5001
 Frc consts  --      0.4679                 1.3348                 1.4078
 IR Inten    --    122.3962                 2.8379                36.7117

                     37                     38                     39
                      A                      A                      A
 Frequencies --    742.3999               762.4579               765.1191
 Red. masses --      3.4806                 1.9391                 1.8958
 Frc consts  --      1.1302                 0.6642                 0.6539
 IR Inten    --      4.4496                57.2506                 2.2467

                     40                     41                     42
                      A                      A                      A
 Frequencies --    804.1940               810.2989               812.8974
 Red. masses --      1.8946                 1.8214                 1.6013
 Frc consts  --      0.7219                 0.7046                 0.6234
 IR Inten    --     14.9240                 8.6478                12.3902

                     43                     44                     45
                      A                      A                      A
 Frequencies --    852.1864               874.7965               892.0618
 Red. masses --      2.7107                 3.2569                 3.4393
 Frc consts  --      1.1598                 1.4685                 1.6126
 IR Inten    --      9.6647                 2.6144                 7.3154

                     46                     47                     48
                      A                      A                      A
 Frequencies --    898.7765               921.9715               943.7648
 Red. masses --      1.3755                 2.3222                 2.9559
 Frc consts  --      0.6547                 1.1630                 1.5512
 IR Inten    --      0.2204                32.5157                 1.9882

                     49                     50                     51
                      A                      A                      A
 Frequencies --    957.5090               966.5642               990.9160
 Red. masses --      1.2497                 2.2225                 2.9900
 Frc consts  --      0.6750                 1.2233                 1.7298
 IR Inten    --      1.5079                 4.0204                 3.2633

                     52                     53                     54
                      A                      A                      A
 Frequencies --    992.6984              1010.5070              1048.4854
 Red. masses --      1.9228                 2.1887                 1.9108
 Frc consts  --      1.1164                 1.3168                 1.2377
 IR Inten    --     14.4069                14.0532                28.7555

                     55                     56                     57
                      A                      A                      A
 Frequencies --   1073.4490              1079.0067              1090.5783
 Red. masses --      2.5388                 3.0353                 2.0874
 Frc consts  --      1.7236                 2.0821                 1.4627
 IR Inten    --      2.1212               177.9591                85.7716

                     58                     59                     60
                      A                      A                      A
 Frequencies --   1097.0358              1106.1746              1115.5821
 Red. masses --      1.9105                 2.4314                 2.0800
 Frc consts  --      1.3547                 1.7529                 1.5252
 IR Inten    --     33.1319                 9.1226                 4.9548

                     61                     62                     63
                      A                      A                      A
 Frequencies --   1136.8471              1176.9543              1183.9066
 Red. masses --      1.7959                 2.5219                 2.8093
 Frc consts  --      1.3675                 2.0582                 2.3200
 IR Inten    --     11.6867                79.9175               455.8239

                     64                     65                     66
                      A                      A                      A
 Frequencies --   1188.5436              1205.3475              1234.4110
 Red. masses --      1.3792                 2.4449                 1.3727
 Frc consts  --      1.1479                 2.0928                 1.2323
 IR Inten    --     13.1134                43.9881                 7.0807

                     67                     68                     69
                      A                      A                      A
 Frequencies --   1263.2332              1268.7142              1283.0008
 Red. masses --      2.3748                 1.5189                 1.2771
 Frc consts  --      2.2327                 1.4405                 1.2386
 IR Inten    --     22.8667                 2.0744                 1.2350

                     70                     71                     72
                      A                      A                      A
 Frequencies --   1296.7481              1298.2405              1326.7441
 Red. masses --      1.4008                 1.4837                 2.1185
 Frc consts  --      1.3878                 1.4733                 2.1971
 IR Inten    --     28.8480                23.3948                77.2287

                     73                     74                     75
                      A                      A                      A
 Frequencies --   1333.5101              1340.2116              1355.2131
 Red. masses --      1.6968                 1.2781                 1.4896
 Frc consts  --      1.7777                 1.3526                 1.6119
 IR Inten    --     21.4067                25.1391                34.8886

                     76                     77                     78
                      A                      A                      A
 Frequencies --   1364.8682              1388.1438              1396.6561
 Red. masses --      1.5988                 1.7020                 2.6986
 Frc consts  --      1.7548                 1.9323                 3.1015
 IR Inten    --      2.1213                 4.7201                51.7078

                     79                     80                     81
                      A                      A                      A
 Frequencies --   1409.8639              1412.4371              1422.1531
 Red. masses --      1.4936                 2.4232                 1.5130
 Frc consts  --      1.7491                 2.8483                 1.8030
 IR Inten    --      7.5561                27.7568                51.1557

                     82                     83                     84
                      A                      A                      A
 Frequencies --   1431.3925              1437.2704              1461.0321
 Red. masses --      1.3907                 1.2338                 2.8725
 Frc consts  --      1.6788                 1.5017                 3.6127
 IR Inten    --     45.7306                 1.2631                47.4773

                     85                     86                     87
                      A                      A                      A
 Frequencies --   1487.6357              1499.4745              1501.2197
 Red. masses --      1.1259                 1.6981                 1.1100
 Frc consts  --      1.4680                 2.2496                 1.4739
 IR Inten    --     20.1280                37.4831                 3.5792

                     88                     89                     90
                      A                      A                      A
 Frequencies --   1505.6001              1513.1569              1518.8161
 Red. masses --      1.0819                 1.2031                 1.0957
 Frc consts  --      1.4450                 1.6230                 1.4892
 IR Inten    --      1.6745                 6.3424                 1.2464

                     91                     92                     93
                      A                      A                      A
 Frequencies --   1521.0401              1523.7089              1533.9583
 Red. masses --      1.1342                 1.2389                 1.0867
 Frc consts  --      1.5461                 1.6947                 1.5065
 IR Inten    --     16.0896                 7.6209                10.2147

                     94                     95                     96
                      A                      A                      A
 Frequencies --   1542.3684              1546.6074              1609.1830
 Red. masses --      1.0670                 2.5683                 8.2017
 Frc consts  --      1.4955                 3.6196                12.5131
 IR Inten    --     10.2405                14.1000                 2.3859

                     97                     98                     99
                      A                      A                      A
 Frequencies --   1639.8498              1666.6926              1803.9604
 Red. masses --      5.7989                 5.6012                 9.8993
 Frc consts  --      9.1876                 9.1673                18.9805
 IR Inten    --      3.2290                 2.7602               516.2416

                    100                    101                    102
                      A                      A                      A
 Frequencies --   3034.4511              3040.5159              3046.7161
 Red. masses --      1.0683                 1.0656                 1.0640
 Frc consts  --      5.7955                 5.8042                 5.8189
 IR Inten    --     75.8559                76.6279                60.7234

                    103                    104                    105
                      A                      A                      A
 Frequencies --   3063.7478              3065.9664              3078.4221
 Red. masses --      1.0347                 1.0606                 1.0463
 Frc consts  --      5.7225                 5.8739                 5.8419
 IR Inten    --     49.5425                33.6096                39.7886

                    106                    107                    108
                      A                      A                      A
 Frequencies --   3078.9209              3091.4200              3099.7617
 Red. masses --      1.0871                 1.0993                 1.1020
 Frc consts  --      6.0718                 6.1899                 6.2387
 IR Inten    --     71.1949                28.5519                41.3995

                    109                    110                    111
                      A                      A                      A
 Frequencies --   3104.3812              3131.1641              3131.5805
 Red. masses --      1.0625                 1.0976                 1.1032
 Frc consts  --      6.0332                 6.3403                 6.3745
 IR Inten    --     11.4056                92.0577                63.4907

                    112                    113                    114
                      A                      A                      A
 Frequencies --   3135.8682              3141.0516              3163.6912
 Red. masses --      1.1030                 1.1012                 1.1017
 Frc consts  --      6.3906                 6.4011                 6.4968
 IR Inten    --     75.5082                40.0389                34.0326

                    115                    116                    117
                      A                      A                      A
 Frequencies --   3164.9045              3187.0905              3198.0400
 Red. masses --      1.1025                 1.0867                 1.0890
 Frc consts  --      6.5066                 6.5034                 6.5624
 IR Inten    --     23.6920                13.8897                34.3378

                    118                    119                    120
                      A                      A                      A
 Frequencies --   3214.3264              3631.3863              3652.1050
 Red. masses --      1.0959                 1.0812                 1.0644
 Frc consts  --      6.6709                 8.4002                 8.3645
 IR Inten    --     68.2846               217.0168               166.3931

 - Thermochemistry -
 -------------------
 Temperature   298.150 Kelvin.  Pressure   1.00000 Atm.
 Atom     1 has atomic number  6 and mass  12.00000

 Molecular mass:   287.15214 amu.
 Principal axes and moments of inertia in atomic units:
                           1         2         3
     Eigenvalues --  3387.405999200.84696**********
           X            0.99977   0.01716  -0.01251
           Y           -0.01713   0.99985   0.00250
           Z            0.01255  -0.00228   0.99992
 This molecule is an asymmetric top.
 Rotational symmetry number  1.
 Warning -- assumption of classical behavior for rotation
           may cause significant error
 Rotational temperatures (Kelvin)      0.02557     0.00941     0.00774
 Rotational constants (GHZ):           0.53278     0.19615     0.16135
 Zero-point vibrational energy     936436.0 (Joules/Mol)
                                  223.81357 (Kcal/Mol)
 Warning -- explicit consideration of  31 degrees of freedom as
           vibrations may cause significant error
 Vibrational temperatures:     41.34    61.27    67.82    96.63   133.42
          (Kelvin)            158.34   182.33   206.39   217.79   236.08
                              261.15   289.67   310.87   340.27   379.93
                              405.74   426.34   439.74   472.61   493.90
                              565.92   586.21   605.55   641.80   684.37
                              715.07   741.35   796.37   818.03   846.50
                              871.45   896.41   915.44   964.82  1016.77
                             1048.41  1068.15  1097.01  1100.84  1157.06
                             1165.84  1169.58  1226.11  1258.64  1283.48
                             1293.14  1326.51  1357.87  1377.64  1390.67
                             1425.71  1428.27  1453.89  1508.54  1544.45
                             1552.45  1569.10  1578.39  1591.54  1605.07
                             1635.67  1693.37  1703.38  1710.05  1734.23
                             1776.04  1817.51  1825.40  1845.95  1865.73
                             1867.88  1908.89  1918.62  1928.27  1949.85
                             1963.74  1997.23  2009.48  2028.48  2032.18
                             2046.16  2059.45  2067.91  2102.10  2140.38
                             2157.41  2159.92  2166.22  2177.10  2185.24
                             2188.44  2192.28  2207.02  2219.12  2225.22
                             2315.26  2359.38  2398.00  2595.50  4365.90
                             4374.62  4383.54  4408.05  4411.24  4429.16
                             4429.88  4447.86  4459.87  4466.51  4505.05
                             4505.65  4511.81  4519.27  4551.85  4553.59
                             4585.51  4601.27  4624.70  5224.75  5254.56

 Zero-point correction=                           0.356670 (Hartree/Particle)
 Thermal correction to Energy=                    0.376344
 Thermal correction to Enthalpy=                  0.377288
 Thermal correction to Gibbs Free Energy=         0.308383
 Sum of electronic and zero-point Energies=           -940.564042
 Sum of electronic and thermal Energies=              -940.544368
 Sum of electronic and thermal Enthalpies=            -940.543424
 Sum of electronic and thermal Free Energies=         -940.612329

                     E (Thermal)             CV                S
                      KCal/Mol        Cal/Mol-Kelvin    Cal/Mol-Kelvin
 Total                  236.159             76.507            145.023
 Electronic               0.000              0.000              0.000
 Translational            0.889              2.981             42.862
 Rotational               0.889              2.981             34.210
 Vibrational            234.382             70.546             67.950
 Vibration     1          0.593              1.984              5.915
 Vibration     2          0.595              1.980              5.135
 Vibration     3          0.595              1.979              4.934
 Vibration     4          0.598              1.970              4.235
 Vibration     5          0.602              1.954              3.602
 Vibration     6          0.606              1.941              3.268
 Vibration     7          0.611              1.926              2.995
 Vibration     8          0.616              1.910              2.757
 Vibration     9          0.619              1.901              2.655
 Vibration    10          0.623              1.887              2.502
 Vibration    11          0.630              1.865              2.313
 Vibration    12          0.638              1.838              2.121
 Vibration    13          0.645              1.817              1.992
 Vibration    14          0.655              1.785              1.829
 Vibration    15          0.671              1.739              1.635
 Vibration    16          0.681              1.707              1.521
 Vibration    17          0.690              1.681              1.438
 Vibration    18          0.696              1.663              1.386
 Vibration    19          0.712              1.619              1.268
 Vibration    20          0.722              1.589              1.197
 Vibration    21          0.761              1.484              0.987
 Vibration    22          0.772              1.454              0.936
 Vibration    23          0.783              1.425              0.889
 Vibration    24          0.805              1.370              0.808
 Vibration    25          0.832              1.304              0.722
 Vibration    26          0.853              1.257              0.666
 Vibration    27          0.870              1.216              0.621
 Vibration    28          0.909              1.132              0.537
 Vibration    29          0.925              1.099              0.507
 Vibration    30          0.946              1.057              0.470
 Vibration    31          0.964              1.020              0.440

 Optimization completed.
    -- Stationary point found.
 Normal termination of Gaussian 16 at Wed Mar  2 03:20:11 2022.

 ------------------------------------------
 #p b3lyp/6-31G(d) geom=allcheck guess=read
 ------------------------------------------

 Structure from the checkpoint file:  "316.n.pdb.xyz.mst.wat.chk"
 -------------
 316.n.pdb.xyz
 -------------
 Charge =  0 Multiplicity = 1

 SCF Done:  E(RB3LYP) =  -940.897783625     A.U. after   12 cycles
 Normal termination of Gaussian 16 at Wed Mar  2 03:24:28 2022.
 Gaussian 16:  ES64L-G16RevA.03 25-Dec-2016

 ----------------------------------------------------------------------
 #p b3lyp/6-31G(d) scrf=(iefpcm,read,solvent=water) geom=allcheck guess
 =read
 ----------------------------------------------------------------------

 Structure from the checkpoint file:  "316.n.pdb.xyz.mst.wat.chk"
 -------------
 316.n.pdb.xyz
 -------------
 Charge =  0 Multiplicity = 1

                         Standard orientation:
 ---------------------------------------------------------------------
 Center     Atomic      Atomic             Coordinates (Angstroms)
 Number     Number       Type             X           Y           Z
 ---------------------------------------------------------------------
      1          6           0        3.099500    3.212860   -0.531471
      2          6           0        3.474522    2.275282    0.628351
      3          6           0        3.355328    0.810181    0.279315
      4          6           0        2.110612    0.166724    0.158140
      5          7           0        0.836645    0.668882    0.344024
      6          6           0       -0.081392   -0.338697    0.115986
      7          6           0        0.573506   -1.500852   -0.212666
      8          6           0       -0.175034   -2.776174   -0.457716
      9          6           0       -1.559462   -2.626982    0.176433
     10          8           0       -2.190886   -1.408997   -0.239476
     11          6           0       -1.583110   -0.190930    0.220944
     12          6           0       -1.983740    0.101334    1.690009
     13          6           0       -3.483215    0.067760    1.992596
     14          6           0       -2.033559    0.901017   -0.789952
     15          6           0       -3.526158    1.106734   -0.946680
     16          8           0       -3.914583    2.311099   -0.479036
     17          8           0       -4.299361    0.321832   -1.459876
     18          6           0        1.980471   -1.207194   -0.198442
     19          6           0        3.141058   -1.963675   -0.442658
     20          6           0        4.377416   -1.342307   -0.324313
     21          6           0        4.476846    0.019018    0.030805
     22          1           0        2.068881    3.048826   -0.860140
     23          1           0        3.193883    4.260048   -0.228000
     24          1           0        3.754948    3.047368   -1.392016
     25          1           0        4.505332    2.478058    0.936715
     26          1           0        2.841186    2.505455    1.494227
     27          1           0        0.614719    1.610221    0.640294
     28          1           0       -0.277744   -2.990657   -1.530041
     29          1           0        0.338554   -3.636601   -0.012196
     30          1           0       -1.478507   -2.660512    1.270905
     31          1           0       -2.238233   -3.420916   -0.140901
     32          1           0       -1.477066   -0.643920    2.312346
     33          1           0       -1.561714    1.070963    1.976921
     34          1           0       -3.930789   -0.864404    1.639033
     35          1           0       -4.012866    0.902291    1.528612
     36          1           0       -3.645006    0.134535    3.072380
     37          1           0       -1.655522    0.600436   -1.770213
     38          1           0       -1.575003    1.853720   -0.523548
     39          1           0       -4.880148    2.392978   -0.623547
     40          1           0        3.071034   -3.012105   -0.716041
     41          1           0        5.285263   -1.908799   -0.505848
     42          1           0        5.459388    0.474794    0.117897
 ---------------------------------------------------------------------

 SCF Done:  E(RB3LYP) =  -940.916416188     A.U. after   11 cycles

 The electronic state is 1-A.
 Alpha  occ. eigenvalues --  -19.19486 -19.15165 -19.14046 -14.37653 -10.32528
 Alpha  occ. eigenvalues --  -10.26495 -10.23046 -10.21762 -10.21659 -10.20259
 Alpha  occ. eigenvalues --  -10.19324 -10.18741 -10.18650 -10.18635 -10.18439
 Alpha  occ. eigenvalues --  -10.18373 -10.18081 -10.18013 -10.17869 -10.17556
 Alpha  occ. eigenvalues --  -10.17098  -1.10383  -1.03633  -1.01332  -0.97792
 Alpha  occ. eigenvalues --   -0.84364  -0.81397  -0.80739  -0.77479  -0.75170
 Alpha  occ. eigenvalues --   -0.73874  -0.72764  -0.71452  -0.66686  -0.63817
 Alpha  occ. eigenvalues --   -0.63088  -0.61349  -0.59683  -0.59454  -0.55635
 Alpha  occ. eigenvalues --   -0.54030  -0.52528  -0.50454  -0.49958  -0.48710
 Alpha  occ. eigenvalues --   -0.47614  -0.46500  -0.46133  -0.45138  -0.44445
 Alpha  occ. eigenvalues --   -0.43804  -0.42891  -0.42549  -0.42137  -0.41431
 Alpha  occ. eigenvalues --   -0.40486  -0.40153  -0.39592  -0.39153  -0.38894
 Alpha  occ. eigenvalues --   -0.37811  -0.37098  -0.36459  -0.35885  -0.35349
 Alpha  occ. eigenvalues --   -0.34659  -0.33696  -0.33496  -0.32804  -0.32384
 Alpha  occ. eigenvalues --   -0.31893  -0.30707  -0.27562  -0.26633  -0.25826
 Alpha  occ. eigenvalues --   -0.22002  -0.19939
 Alpha virt. eigenvalues --   -0.01163   0.00329   0.02288   0.06364   0.06979
 Alpha virt. eigenvalues --    0.09111   0.10089   0.10692   0.11504   0.12716
 Alpha virt. eigenvalues --    0.12916   0.14285   0.14929   0.15192   0.15402

 Mulliken charges:
               1
     1  C   -0.444640
     2  C   -0.350601
     3  C    0.157090
     4  C    0.242146
     5  N   -0.795562
     6  C    0.271751
     7  C    0.020666
     8  C   -0.345250
     9  C   -0.053737
    10  O   -0.534703
    11  C    0.275844
    12  C   -0.271218
    13  C   -0.470980
    14  C   -0.356228
    15  C    0.592462
    16  O   -0.580160
    17  O   -0.510428
    18  C    0.056595
    19  C   -0.242632
    20  C   -0.165011
    21  C   -0.248282
    22  H    0.148182
    23  H    0.152914
    24  H    0.152752
    25  H    0.155392
    26  H    0.151838
    27  H    0.375789
    28  H    0.156583
    29  H    0.155849
    30  H    0.146735
    31  H    0.156239
    32  H    0.152975
    33  H    0.147902
    34  H    0.159748
    35  H    0.156988
    36  H    0.151443
    37  H    0.190221
    38  H    0.175568
    39  H    0.457644
    40  H    0.139385
    41  H    0.135958
    42  H    0.132775
 Sum of Mulliken charges =  -0.00000

 Dipole moment (field-independent basis, Debye):
    X=              0.3530    Y=              3.5588    Z=              2.6365  Tot=              4.4431
 Quadrupole moment (field-independent basis, Debye-Ang):
   XX=           -128.9526   YY=           -108.5071   ZZ=           -126.5270
   XY=             -5.9892   XZ=             -6.7320   YZ=             -0.0837

 Normal termination of Gaussian 16 at Wed Mar  2 03:29:21 2022.
