 Gaussian 16, Revision A.03,

 ----------------------------------------------------------------------
 #p b3lyp/6-31G(d) opt=(MaxStep=10,MaxCycles=1000) freq scf=(MaxCycle=2
 000,NoVarAcc,NoIncFock) scrf=(iefpcm,read,solvent=water)
 ----------------------------------------------------------------------

 -------------
 318.n.pdb.xyz
 -------------
 Symbolic Z-matrix:
 Charge =  0 Multiplicity = 1

 SCF Done:  E(RB3LYP) =  -1410.04997035     A.U. after   13 cycles
 SCF Done:  E(RB3LYP) =  -1410.05378253     A.U. after   11 cycles
 SCF Done:  E(RB3LYP) =  -1410.05493797     A.U. after   12 cycles
 SCF Done:  E(RB3LYP) =  -1410.05562207     A.U. after   12 cycles
 SCF Done:  E(RB3LYP) =  -1410.05582411     A.U. after   10 cycles
 SCF Done:  E(RB3LYP) =  -1410.05582074     A.U. after    9 cycles
 SCF Done:  E(RB3LYP) =  -1410.05584880     A.U. after    9 cycles
 SCF Done:  E(RB3LYP) =  -1410.05585007     A.U. after    8 cycles
 SCF Done:  E(RB3LYP) =  -1410.05583931     A.U. after    8 cycles
 SCF Done:  E(RB3LYP) =  -1410.05583966     A.U. after    8 cycles
 SCF Done:  E(RB3LYP) =  -1410.05585899     A.U. after    9 cycles
 SCF Done:  E(RB3LYP) =  -1410.05584256     A.U. after    9 cycles
 SCF Done:  E(RB3LYP) =  -1410.05584015     A.U. after    6 cycles
 SCF Done:  E(RB3LYP) =  -1410.05585932     A.U. after    8 cycles
 SCF Done:  E(RB3LYP) =  -1410.05584076     A.U. after    8 cycles
 Optimization completed.
    -- Stationary point found.
 Normal termination of Gaussian 16 at Wed Mar  2 05:00:34 2022.

 --------------------------------------------------------------------
 #P Geom=AllCheck Guess=TCheck SCRF=Check GenChk RB3LYP/6-31G(d) Freq
 --------------------------------------------------------------------

 Structure from the checkpoint file:  "318.n.pdb.xyz.mst.wat.chk"
 -------------
 318.n.pdb.xyz
 -------------
 Charge =  0 Multiplicity = 1

 SCF Done:  E(RB3LYP) =  -1410.05584076     A.U. after    1 cycles

  Exact polarizability: 349.036  10.917 328.245   2.491  37.495 208.990
 Approx polarizability: 383.562  19.031 373.934   2.688  49.831 246.717

                      1                      2                      3
                      A                      A                      A
 Frequencies --     33.9052                50.5629                63.1679
 Red. masses --      5.8457                 3.9760                 8.3458
 Frc consts  --      0.0040                 0.0060                 0.0196
 IR Inten    --      0.7140                 0.0937                 4.2421

                      4                      5                      6
                      A                      A                      A
 Frequencies --     68.4035                93.5928               104.1368
 Red. masses --      5.8100                 5.2764                 4.1080
 Frc consts  --      0.0160                 0.0272                 0.0262
 IR Inten    --      1.7824                 2.5669                 3.7928

                      7                      8                      9
                      A                      A                      A
 Frequencies --    137.0397               154.1541               184.3714
 Red. masses --      4.7654                 2.4646                 3.3378
 Frc consts  --      0.0527                 0.0345                 0.0668
 IR Inten    --      8.6216                 1.9018                 1.5121

                     10                     11                     12
                      A                      A                      A
 Frequencies --    190.4229               208.8135               240.1107
 Red. masses --      4.1672                 2.2607                 3.4218
 Frc consts  --      0.0890                 0.0581                 0.1162
 IR Inten    --      2.6606                11.9945                23.1439

                     13                     14                     15
                      A                      A                      A
 Frequencies --    260.2763               274.2667               308.6217
 Red. masses --      5.6941                 3.0578                 6.5170
 Frc consts  --      0.2273                 0.1355                 0.3657
 IR Inten    --      0.9700                20.8035                 2.3830

                     16                     17                     18
                      A                      A                      A
 Frequencies --    319.0077               326.5859               346.4759
 Red. masses --      4.9773                 4.0046                 4.5151
 Frc consts  --      0.2984                 0.2517                 0.3193
 IR Inten    --      6.3444                34.5701                 1.2614

                     19                     20                     21
                      A                      A                      A
 Frequencies --    379.2919               391.5810               417.9972
 Red. masses --      2.3405                 4.1813                 3.0224
 Frc consts  --      0.1984                 0.3777                 0.3111
 IR Inten    --    152.0501                23.7276                 0.5106

                     22                     23                     24
                      A                      A                      A
 Frequencies --    422.6108               453.0197               477.0320
 Red. masses --      5.1108                 4.3514                 7.5409
 Frc consts  --      0.5378                 0.5261                 1.0110
 IR Inten    --      5.1341                 1.9714                 7.8826

                     25                     26                     27
                      A                      A                      A
 Frequencies --    504.7981               520.1623               544.5778
 Red. masses --      4.0897                 4.7309                 6.7497
 Frc consts  --      0.6140                 0.7542                 1.1794
 IR Inten    --     16.7977                10.2799                31.5491

                     28                     29                     30
                      A                      A                      A
 Frequencies --    584.0549               629.3971               634.8904
 Red. masses --      4.1271                 6.1570                 6.2688
 Frc consts  --      0.8295                 1.4370                 1.4888
 IR Inten    --     11.1042                 1.2579                 3.5615

                     31                     32                     33
                      A                      A                      A
 Frequencies --    664.5328               685.5122               693.7350
 Red. masses --      6.3024                 6.5419                 6.1926
 Frc consts  --      1.6398                 1.8113                 1.7560
 IR Inten    --     10.8859                 4.9921                 2.8684

                     34                     35                     36
                      A                      A                      A
 Frequencies --    703.9532               713.0147               722.2959
 Red. masses --      4.9155                 1.8428                 6.5400
 Frc consts  --      1.4352                 0.5520                 2.0103
 IR Inten    --      0.2440                73.7761                24.7208

                     37                     38                     39
                      A                      A                      A
 Frequencies --    747.1228               762.0828               802.2992
 Red. masses --      5.6889                 3.3063                 2.5989
 Frc consts  --      1.8710                 1.1313                 0.9856
 IR Inten    --      1.2011                 6.3788                 9.3157

                     40                     41                     42
                      A                      A                      A
 Frequencies --    826.7653               834.5462               848.0900
 Red. masses --      5.3581                 6.9812                 1.4904
 Frc consts  --      2.1579                 2.8647                 0.6316
 IR Inten    --     70.1159                26.6020                44.5213

                     43                     44                     45
                      A                      A                      A
 Frequencies --    866.5725               914.0930               945.7932
 Red. masses --      1.2518                 1.5126                 3.0684
 Frc consts  --      0.5538                 0.7446                 1.6172
 IR Inten    --      2.9437                17.0974                 6.4490

                     46                     47                     48
                      A                      A                      A
 Frequencies --    951.5111               975.5230               986.4967
 Red. masses --      1.7065                 1.3385                 1.3576
 Frc consts  --      0.9103                 0.7505                 0.7784
 IR Inten    --     12.0922                 1.9346                 2.7116

                     49                     50                     51
                      A                      A                      A
 Frequencies --   1012.5668              1015.4341              1022.2743
 Red. masses --      1.3398                 5.6604                 5.6884
 Frc consts  --      0.8094                 3.4388                 3.5025
 IR Inten    --      5.8984                15.7854                86.3069

                     52                     53                     54
                      A                      A                      A
 Frequencies --   1028.6774              1033.3487              1049.6892
 Red. masses --      1.9383                 6.1331                 5.4194
 Frc consts  --      1.2084                 3.8585                 3.5182
 IR Inten    --     16.6866                41.9976                39.3851

                     55                     56                     57
                      A                      A                      A
 Frequencies --   1052.7410              1078.2188              1087.1669
 Red. masses --      2.1329                 1.9596                 3.3065
 Frc consts  --      1.3927                 1.3422                 2.3026
 IR Inten    --      6.3131                28.1442                10.4922

                     58                     59                     60
                      A                      A                      A
 Frequencies --   1106.1717              1112.7326              1140.3964
 Red. masses --      1.5264                 1.9756                 3.5278
 Frc consts  --      1.1004                 1.4413                 2.7031
 IR Inten    --      3.3728                95.1222               385.9457

                     61                     62                     63
                      A                      A                      A
 Frequencies --   1160.1051              1187.0374              1193.9357
 Red. masses --      2.2980                 1.1086                 1.2839
 Frc consts  --      1.8222                 0.9204                 1.0783
 IR Inten    --     10.0154                 1.1185                 5.0319

                     64                     65                     66
                      A                      A                      A
 Frequencies --   1201.8397              1273.3802              1279.9799
 Red. masses --      1.5551                 1.6551                 1.8836
 Frc consts  --      1.3234                 1.5812                 1.8182
 IR Inten    --     22.1311                46.6500                 3.8364

                     67                     68                     69
                      A                      A                      A
 Frequencies --   1294.0004              1322.8174              1335.3127
 Red. masses --      2.2985                 1.7140                 2.6672
 Frc consts  --      2.2676                 1.7671                 2.8020
 IR Inten    --    115.7732                14.0270                15.2876

                     70                     71                     72
                      A                      A                      A
 Frequencies --   1340.9791              1349.2346              1360.9430
 Red. masses --      2.0218                 6.1824                 3.4493
 Frc consts  --      2.1420                 6.6311                 3.7641
 IR Inten    --      1.7981               111.1702                 5.7400

                     73                     74                     75
                      A                      A                      A
 Frequencies --   1371.0495              1417.8236              1434.7987
 Red. masses --      3.8049                 2.3291                 1.8251
 Frc consts  --      4.2140                 2.7586                 2.2137
 IR Inten    --     28.1442               110.8235               113.8759

                     76                     77                     78
                      A                      A                      A
 Frequencies --   1440.7396              1469.7125              1490.4025
 Red. masses --      1.4121                 2.9301                 2.2164
 Frc consts  --      1.7270                 3.7291                 2.9007
 IR Inten    --      0.9926               160.3110                14.5575

                     79                     80                     81
                      A                      A                      A
 Frequencies --   1495.6143              1506.6343              1524.5860
 Red. masses --      1.1460                 1.3358                 2.1039
 Frc consts  --      1.5103                 1.7865                 2.8812
 IR Inten    --     11.9293                81.1544               119.2392

                     82                     83                     84
                      A                      A                      A
 Frequencies --   1535.8737              1574.9990              1580.2126
 Red. masses --      2.2960                 5.1244                10.4659
 Frc consts  --      3.1910                 7.4895                15.3977
 IR Inten    --      3.1237                32.0500               104.0419

                     85                     86                     87
                      A                      A                      A
 Frequencies --   1616.1959              1632.0182              1648.2961
 Red. masses --      7.1315                 5.6010                 6.9677
 Frc consts  --     10.9754                 8.7895                11.1535
 IR Inten    --     68.1743                25.2069                18.0222

                     88                     89                     90
                      A                      A                      A
 Frequencies --   1653.5879              1673.0595              3052.9204
 Red. masses --      6.0249                10.4700                 1.0836
 Frc consts  --      9.7062                17.2671                 5.9505
 IR Inten    --     58.4024               251.9410                30.1624

                     91                     92                     93
                      A                      A                      A
 Frequencies --   3081.8839              3142.7432              3178.1090
 Red. masses --      1.0380                 1.1013                 1.1017
 Frc consts  --      5.8085                 6.4089                 6.5563
 IR Inten    --     15.9382                10.5597                11.3588

                     94                     95                     96
                      A                      A                      A
 Frequencies --   3205.7884              3213.5687              3222.6446
 Red. masses --      1.0859                 1.0889                 1.0923
 Frc consts  --      6.5755                 6.6257                 6.6838
 IR Inten    --      1.2361                12.8311                42.4433

                     97                     98                     99
                      A                      A                      A
 Frequencies --   3230.5651              3237.6451              3248.2842
 Red. masses --      1.0955                 1.0940                 1.0893
 Frc consts  --      6.7363                 6.7565                 6.7721
 IR Inten    --     33.7205                12.1549                 1.7286

                    100                    101                    102
                      A                      A                      A
 Frequencies --   3254.1243              3261.5823              3709.1397
 Red. masses --      1.0915                 1.0950                 1.0659
 Frc consts  --      6.8101                 6.8628                 8.6401
 IR Inten    --      0.7227                 3.5360               110.3284

 - Thermochemistry -
 -------------------
 Temperature   298.150 Kelvin.  Pressure   1.00000 Atm.
 Atom     1 has atomic number  6 and mass  12.00000

 Molecular mass:   324.07779 amu.
 Principal axes and moments of inertia in atomic units:
                           1         2         3
     Eigenvalues --  6870.696618303.66065**********
           X            0.99034  -0.13860  -0.00278
           Y            0.13863   0.99021   0.01609
           Z            0.00052  -0.01632   0.99987
 This molecule is an asymmetric top.
 Rotational symmetry number  1.
 Warning -- assumption of classical behavior for rotation
           may cause significant error
 Rotational temperatures (Kelvin)      0.01261     0.01043     0.00705
 Rotational constants (GHZ):           0.26267     0.21734     0.14698
 Zero-point vibrational energy     718422.5 (Joules/Mol)
                                  171.70709 (Kcal/Mol)
 Warning -- explicit consideration of  28 degrees of freedom as
           vibrations may cause significant error
 Vibrational temperatures:     48.78    72.75    90.88    98.42   134.66
          (Kelvin)            149.83   197.17   221.79   265.27   273.98
                              300.44   345.47   374.48   394.61   444.04
                              458.98   469.88   498.50   545.72   563.40
                              601.40   608.04   651.79   686.34   726.29
                              748.40   783.53   840.32   905.56   913.47
                              956.11   986.30   998.13  1012.83  1025.87
                             1039.22  1074.94  1096.47  1154.33  1189.53
                             1200.73  1220.21  1246.80  1315.18  1360.79
                             1369.01  1403.56  1419.35  1456.86  1460.98
                             1470.82  1480.04  1486.76  1510.27  1514.66
                             1551.32  1564.19  1591.53  1600.97  1640.78
                             1669.13  1707.88  1717.81  1729.18  1832.11
                             1841.61  1861.78  1903.24  1921.22  1929.37
                             1941.25  1958.09  1972.63  2039.93  2064.36
                             2072.90  2114.59  2144.36  2151.86  2167.71
                             2193.54  2209.78  2266.07  2273.57  2325.35
                             2348.11  2371.53  2379.14  2407.16  4392.47
                             4434.14  4521.71  4572.59  4612.41  4623.61
                             4636.67  4648.06  4658.25  4673.56  4681.96
                             4692.69  5336.62

 Zero-point correction=                           0.273633 (Hartree/Particle)
 Thermal correction to Energy=                    0.292070
 Thermal correction to Enthalpy=                  0.293015
 Thermal correction to Gibbs Free Energy=         0.226540
 Sum of electronic and zero-point Energies=          -1409.782208
 Sum of electronic and thermal Energies=             -1409.763770
 Sum of electronic and thermal Enthalpies=           -1409.762826
 Sum of electronic and thermal Free Energies=        -1409.829300

                     E (Thermal)             CV                S
                      KCal/Mol        Cal/Mol-Kelvin    Cal/Mol-Kelvin
 Total                  183.277             72.513            139.907
 Electronic               0.000              0.000              0.000
 Translational            0.889              2.981             43.223
 Rotational               0.889              2.981             34.903
 Vibrational            181.499             66.551             61.780
 Vibration     1          0.594              1.983              5.587
 Vibration     2          0.595              1.977              4.795
 Vibration     3          0.597              1.972              4.356
 Vibration     4          0.598              1.969              4.199
 Vibration     5          0.603              1.954              3.584
 Vibration     6          0.605              1.946              3.375
 Vibration     7          0.614              1.916              2.845
 Vibration     8          0.620              1.898              2.620
 Vibration     9          0.631              1.861              2.284
 Vibration    10          0.634              1.853              2.224
 Vibration    11          0.642              1.827              2.054
 Vibration    12          0.657              1.779              1.802
 Vibration    13          0.668              1.745              1.660
 Vibration    14          0.677              1.721              1.569
 Vibration    15          0.698              1.657              1.370
 Vibration    16          0.705              1.637              1.315
 Vibration    17          0.710              1.622              1.277
 Vibration    18          0.724              1.582              1.182
 Vibration    19          0.749              1.514              1.042
 Vibration    20          0.759              1.488              0.994
 Vibration    21          0.781              1.431              0.899
 Vibration    22          0.785              1.421              0.883
 Vibration    23          0.812              1.354              0.787
 Vibration    24          0.834              1.301              0.718
 Vibration    25          0.860              1.239              0.646
 Vibration    26          0.875              1.205              0.610
 Vibration    27          0.900              1.152              0.556
 Vibration    28          0.941              1.066              0.478

 Optimization completed.
    -- Stationary point found.
 Normal termination of Gaussian 16 at Wed Mar  2 05:58:31 2022.

 ------------------------------------------
 #p b3lyp/6-31G(d) geom=allcheck guess=read
 ------------------------------------------

 Structure from the checkpoint file:  "318.n.pdb.xyz.mst.wat.chk"
 -------------
 318.n.pdb.xyz
 -------------
 Charge =  0 Multiplicity = 1

 SCF Done:  E(RB3LYP) =  -1410.03156009     A.U. after   12 cycles
 Normal termination of Gaussian 16 at Wed Mar  2 06:02:44 2022.
 Gaussian 16:  ES64L-G16RevA.03 25-Dec-2016

 ----------------------------------------------------------------------
 #p b3lyp/6-31G(d) scrf=(iefpcm,read,solvent=water) geom=allcheck guess
 =read
 ----------------------------------------------------------------------

 Structure from the checkpoint file:  "318.n.pdb.xyz.mst.wat.chk"
 -------------
 318.n.pdb.xyz
 -------------
 Charge =  0 Multiplicity = 1

                         Standard orientation:
 ---------------------------------------------------------------------
 Center     Atomic      Atomic             Coordinates (Angstroms)
 Number     Number       Type             X           Y           Z
 ---------------------------------------------------------------------
      1          6           0       -3.346766    0.823144    2.372778
      2          6           0       -3.148923   -0.145231    1.258300
      3          7           0       -3.870077   -1.226412    1.065454
      4          7           0       -3.373875   -1.889697   -0.049917
      5          6           0       -2.363907   -1.189708   -0.490989
      6          6           0       -1.418158   -1.508681   -1.617480
      7          8           0       -1.876143   -2.565100   -2.413243
      8          7           0       -0.126337   -1.829683   -1.021085
      9          6           0        0.561888   -0.910782   -0.440873
     10          6           0        1.881844   -1.302912    0.129779
     11          6           0        2.408433   -0.669910    1.267119
     12          6           0        3.618321   -1.096693    1.815989
     13          6           0        4.321430   -2.150664    1.230102
     14          6           0        3.806016   -2.783574    0.094710
     15          6           0        2.594096   -2.366854   -0.447581
     16          6           0        0.138346    0.518935   -0.314197
     17          6           0       -1.169400    0.910582    0.044983
     18          6           0       -1.503034    2.264116    0.147021
     19          6           0       -0.554183    3.248073   -0.103525
     20          6           0        0.733741    2.863118   -0.471216
     21         17           0        1.938037    4.093830   -0.816225
     22          6           0        1.084256    1.523547   -0.571338
     23          7           0       -2.165132   -0.073982    0.288297
     24          1           0       -4.033778    0.378809    3.093706
     25          1           0       -2.404073    1.051605    2.876676
     26          1           0       -3.779795    1.765580    2.025401
     27          1           0       -1.337708   -0.640624   -2.284048
     28          1           0       -1.933960   -3.354775   -1.845082
     29          1           0        1.864655    0.144036    1.733429
     30          1           0        4.008530   -0.606128    2.701244
     31          1           0        5.265751   -2.476518    1.653253
     32          1           0        4.351450   -3.599045   -0.368595
     33          1           0        2.185559   -2.851969   -1.325970
     34          1           0       -2.514097    2.550636    0.404440
     35          1           0       -0.817886    4.295498   -0.029996
     36          1           0        2.091811    1.247970   -0.853419
 ---------------------------------------------------------------------

 SCF Done:  E(RB3LYP) =  -1410.05417935     A.U. after   12 cycles

 The electronic state is 1-A.
 Alpha  occ. eigenvalues -- -101.56274 -19.15933 -14.42061 -14.35503 -14.35340
 Alpha  occ. eigenvalues --  -14.34480 -10.28815 -10.27063 -10.26966 -10.26856
 Alpha  occ. eigenvalues --  -10.26350 -10.26282 -10.23593 -10.22446 -10.22336
 Alpha  occ. eigenvalues --  -10.22221 -10.20987 -10.20168 -10.20032 -10.19928
 Alpha  occ. eigenvalues --  -10.19823 -10.19738 -10.19681  -9.47899  -7.24297
 Alpha  occ. eigenvalues --   -7.23329  -7.23290  -1.07718  -1.04434  -0.95986
 Alpha  occ. eigenvalues --   -0.93352  -0.90562  -0.86310  -0.85181  -0.83949
 Alpha  occ. eigenvalues --   -0.79511  -0.76680  -0.76001  -0.75287  -0.73421
 Alpha  occ. eigenvalues --   -0.70959  -0.67354  -0.65271  -0.62520  -0.61680
 Alpha  occ. eigenvalues --   -0.60707  -0.59374  -0.57255  -0.55939  -0.52724
 Alpha  occ. eigenvalues --   -0.52048  -0.50834  -0.50572  -0.48885  -0.47591
 Alpha  occ. eigenvalues --   -0.46798  -0.46356  -0.45637  -0.44804  -0.43867
 Alpha  occ. eigenvalues --   -0.43279  -0.42799  -0.42078  -0.41273  -0.41069
 Alpha  occ. eigenvalues --   -0.40539  -0.38950  -0.38444  -0.37399  -0.36247
 Alpha  occ. eigenvalues --   -0.35453  -0.34967  -0.33617  -0.32790  -0.32412
 Alpha  occ. eigenvalues --   -0.31588  -0.30296  -0.28893  -0.28030  -0.27713
 Alpha  occ. eigenvalues --   -0.26155  -0.25845  -0.25368  -0.25018
 Alpha virt. eigenvalues --   -0.06952  -0.04111  -0.03074  -0.00769   0.01266
 Alpha virt. eigenvalues --    0.01750   0.02980   0.04171   0.09501   0.09634
 Alpha virt. eigenvalues --    0.10010   0.12269   0.12727   0.13466   0.14165

 Mulliken charges:
               1
     1  C   -0.535332
     2  C    0.510098
     3  N   -0.417597
     4  N   -0.438177
     5  C    0.497056
     6  C    0.163324
     7  O   -0.648049
     8  N   -0.468429
     9  C    0.230383
    10  C    0.091605
    11  C   -0.181886
    12  C   -0.149979
    13  C   -0.134887
    14  C   -0.150312
    15  C   -0.167577
    16  C    0.080901
    17  C    0.268697
    18  C   -0.143907
    19  C   -0.138120
    20  C   -0.059095
    21  Cl  -0.016464
    22  C   -0.189607
    23  N   -0.593584
    24  H    0.196225
    25  H    0.194632
    26  H    0.199874
    27  H    0.188747
    28  H    0.439445
    29  H    0.160184
    30  H    0.158811
    31  H    0.158757
    32  H    0.158172
    33  H    0.156845
    34  H    0.192603
    35  H    0.193169
    36  H    0.193477
 Sum of Mulliken charges =  -0.00000

 Dipole moment (field-independent basis, Debye):
    X=              4.9599    Y=              6.3689    Z=              2.8513  Tot=              8.5611
 Quadrupole moment (field-independent basis, Debye-Ang):
   XX=           -149.1266   YY=           -137.9307   ZZ=           -137.5667
   XY=            -30.8647   XZ=             -0.0391   YZ=              3.0271

 Normal termination of Gaussian 16 at Wed Mar  2 06:07:46 2022.
