 Gaussian 16, Revision A.03,

 ----------------------------------------------------------------------
 #p b3lyp/6-31G(d) opt=(MaxStep=10,MaxCycles=1000) freq scf=(MaxCycle=2
 000,NoVarAcc,NoIncFock) scrf=(iefpcm,read,solvent=water)
 ----------------------------------------------------------------------

 ------------
 32.n.pdb.xyz
 ------------
 Symbolic Z-matrix:
 Charge =  0 Multiplicity = 1

 SCF Done:  E(RB3LYP) =  -235.869236318     A.U. after   11 cycles
 SCF Done:  E(RB3LYP) =  -235.871449597     A.U. after    8 cycles
 SCF Done:  E(RB3LYP) =  -235.871582507     A.U. after    8 cycles
 SCF Done:  E(RB3LYP) =  -235.871612368     A.U. after    7 cycles
 SCF Done:  E(RB3LYP) =  -235.871614033     A.U. after    7 cycles
 SCF Done:  E(RB3LYP) =  -235.871612718     A.U. after    6 cycles
 Optimization completed.
    -- Stationary point found.

 1\1\GINC-PIRINEUS2\FOpt\RB3LYP\6-31G(d)\C6H12\UBATOR01\01-Mar-2022\0\\
 #p b3lyp/6-31G(d) opt=(MaxStep=10,MaxCycles=1000) freq scf=(MaxCycle=2
 000,NoVarAcc,NoIncFock) scrf=(iefpcm,read,solvent=water)\\32.n.pdb.xyz
 \\0,1\C,-2.1132209987,-0.4890614699,-0.222259422\C,-0.7098786475,0.094
 5555388,-0.3671526269\C,-0.1731912544,0.800906291,0.8904115167\C,1.347
 1436665,0.9317469438,0.6512063617\C,1.7152691506,-0.2028571972,-0.3524
 266682\C,0.3919892139,-0.9415093302,-0.6512263506\H,-2.4323021006,-0.9
 960397674,-1.1394333611\H,-2.850102728,0.2908374565,-0.000849843\H,-2.

 Normal termination of Gaussian 16 at Tue Mar  1 15:30:53 2022.

 --------------------------------------------------------------------
 #P Geom=AllCheck Guess=TCheck SCRF=Check GenChk RB3LYP/6-31G(d) Freq
 --------------------------------------------------------------------

 Structure from the checkpoint file:  "32.n.pdb.xyz.mst.wat.chk"
 ------------
 32.n.pdb.xyz
 ------------
 Charge =  0 Multiplicity = 1

 SCF Done:  E(RB3LYP) =  -235.871612718     A.U. after    1 cycles

  Exact polarizability:  83.051  -0.001  79.935   0.056  -0.002  77.621
 Approx polarizability:  80.531  -0.001  80.803   0.099  -0.002  83.152

                      1                      2                      3
                      A                      A                      A
 Frequencies --     10.4657               171.2071               231.9127
 Red. masses --      1.5497                 2.1213                 1.0322
 Frc consts  --      0.0001                 0.0366                 0.0327
 IR Inten    --      0.0004                 0.0240                 0.0015

                      4                      5                      6
                      A                      A                      A
 Frequencies --    293.7380               414.7910               528.7938
 Red. masses --      2.3028                 1.8155                 2.8381
 Frc consts  --      0.1171                 0.1840                 0.4676
 IR Inten    --      0.1480                 0.5558                 1.3112

                      7                      8                      9
                      A                      A                      A
 Frequencies --    628.3283               752.7053               818.7729
 Red. masses --      2.5337                 1.2306                 1.6298
 Frc consts  --      0.5893                 0.4108                 0.6438
 IR Inten    --      0.8612                 2.3543                 0.4447

                     10                     11                     12
                      A                      A                      A
 Frequencies --    854.3679               893.7299               920.1975
 Red. masses --      2.4622                 2.5140                 1.9065
 Frc consts  --      1.0589                 1.1831                 0.9511
 IR Inten    --      2.1716                 2.0013                 0.3029

                     13                     14                     15
                      A                      A                      A
 Frequencies --    932.0918               979.1987               997.7516
 Red. masses --      1.5179                 1.2225                 1.6808
 Frc consts  --      0.7770                 0.6906                 0.9859
 IR Inten    --      0.0388                 1.8239                 3.8367

                     16                     17                     18
                      A                      A                      A
 Frequencies --   1019.7176              1047.4859              1106.9665
 Red. masses --      1.4162                 1.8895                 2.0718
 Frc consts  --      0.8676                 1.2215                 1.4958
 IR Inten    --      1.7181                 0.3943                 0.2654

                     19                     20                     21
                      A                      A                      A
 Frequencies --   1166.0226              1209.2683              1218.7259
 Red. masses --      2.0219                 1.4924                 1.4520
 Frc consts  --      1.6197                 1.2858                 1.2707
 IR Inten    --      2.3780                 0.2972                 0.3369

                     22                     23                     24
                      A                      A                      A
 Frequencies --   1247.3522              1269.1494              1307.3260
 Red. masses --      1.5970                 1.2227                 1.2936
 Frc consts  --      1.4639                 1.1604                 1.3026
 IR Inten    --      1.0792                 0.0387                 0.2207

                     25                     26                     27
                      A                      A                      A
 Frequencies --   1320.1911              1338.1524              1345.9439
 Red. masses --      1.2080                 1.3549                 1.3506
 Frc consts  --      1.2405                 1.4295                 1.4416
 IR Inten    --      1.0871                 1.6116                 0.0929

                     28                     29                     30
                      A                      A                      A
 Frequencies --   1361.7569              1401.4954              1428.1868
 Red. masses --      1.4149                 1.5931                 1.2908
 Frc consts  --      1.5459                 1.8437                 1.5513
 IR Inten    --      4.0128                 1.2259                 1.4329

                     31                     32                     33
                      A                      A                      A
 Frequencies --   1504.7492              1510.7280              1512.3430
 Red. masses --      1.0789                 1.0931                 1.0813
 Frc consts  --      1.4393                 1.4699                 1.4571
 IR Inten    --      0.1204                 1.1209                 1.8100

                     34                     35                     36
                      A                      A                      A
 Frequencies --   1513.6528              1516.8266              1529.8554
 Red. masses --      1.0583                 1.0456                 1.1113
 Frc consts  --      1.4287                 1.4174                 1.5324
 IR Inten    --      1.8888                 8.6146                 0.7673

                     37                     38                     39
                      A                      A                      A
 Frequencies --   3013.3238              3036.7518              3041.6622
 Red. masses --      1.0821                 1.0664                 1.0559
 Frc consts  --      5.7892                 5.7941                 5.7554
 IR Inten    --     29.1756                43.7870                40.7179

                     40                     41                     42
                      A                      A                      A
 Frequencies --   3046.6812              3060.0510              3073.2862
 Red. masses --      1.0465                 1.0633                 1.0667
 Frc consts  --      5.7232                 5.8665                 5.9359
 IR Inten    --    139.2244                34.5980                75.1939

                     43                     44                     45
                      A                      A                      A
 Frequencies --   3089.9336              3098.0438              3101.2221
 Red. masses --      1.0968                 1.0943                 1.1041
 Frc consts  --      6.1697                 6.1882                 6.2563
 IR Inten    --     94.1918                15.7506                27.1930

                     46                     47                     48
                      A                      A                      A
 Frequencies --   3108.1794              3112.6809              3116.9000
 Red. masses --      1.1012                 1.1024                 1.1055
 Frc consts  --      6.2678                 6.2928                 6.3280
 IR Inten    --     74.5793                59.1540               201.2128

 - Thermochemistry -
 -------------------
 Temperature   298.150 Kelvin.  Pressure   1.00000 Atm.
 Atom     1 has atomic number  6 and mass  12.00000

 Molecular mass:    84.09390 amu.
 Principal axes and moments of inertia in atomic units:
                           1         2         3
     Eigenvalues --   289.91199 619.31264 821.66429
           X            0.99999   0.00001  -0.00380
           Y           -0.00001   1.00000  -0.00000
           Z            0.00380   0.00000   0.99999
 This molecule is an asymmetric top.
 Rotational symmetry number  1.
 Rotational temperatures (Kelvin)      0.29876     0.13985     0.10541
 Rotational constants (GHZ):           6.22513     2.91410     2.19645
 Zero-point vibrational energy     443830.5 (Joules/Mol)
                                  106.07803 (Kcal/Mol)
 Warning -- explicit consideration of   6 degrees of freedom as
           vibrations may cause significant error
 Vibrational temperatures:     15.06   246.33   333.67   422.62   596.79
          (Kelvin)            760.82   904.02  1082.98  1178.03  1229.24
                             1285.88  1323.96  1341.07  1408.85  1435.54
                             1467.15  1507.10  1592.68  1677.65  1739.87
                             1753.47  1794.66  1826.02  1880.95  1899.46
                             1925.30  1936.51  1959.26  2016.44  2054.84
                             2165.00  2173.60  2175.92  2177.81  2182.38
                             2201.12  4335.50  4369.21  4376.27  4383.49
                             4402.73  4421.77  4445.73  4457.39  4461.97
                             4471.98  4478.45  4484.52

 Zero-point correction=                           0.169046 (Hartree/Particle)
 Thermal correction to Energy=                    0.175708
 Thermal correction to Enthalpy=                  0.176653
 Thermal correction to Gibbs Free Energy=         0.137174
 Sum of electronic and zero-point Energies=           -235.702567
 Sum of electronic and thermal Energies=              -235.695904
 Sum of electronic and thermal Enthalpies=            -235.694960
 Sum of electronic and thermal Free Energies=         -235.734439

                     E (Thermal)             CV                S
                      KCal/Mol        Cal/Mol-Kelvin    Cal/Mol-Kelvin
 Total                  110.259             24.247             83.090
 Electronic               0.000              0.000              0.000
 Translational            0.889              2.981             39.202
 Rotational               0.889              2.981             26.492
 Vibrational            108.481             18.285             17.396
 Vibration     1          0.593              1.987              7.921
 Vibration     2          0.626              1.878              2.422
 Vibration     3          0.653              1.792              1.864
 Vibration     4          0.689              1.685              1.452
 Vibration     5          0.778              1.438              0.910
 Vibration     6          0.884              1.186              0.590

                           ! Non-Optimized Parameters !

 1\1\GINC-PIRINEUS2\Freq\RB3LYP\6-31G(d)\C6H12\UBATOR01\01-Mar-2022\0\\
 #P Geom=AllCheck Guess=TCheck SCRF=Check GenChk RB3LYP/6-31G(d) Freq\\
 32.n.pdb.xyz\\0,1\C,-2.1132209987,-0.4890614699,-0.222259422\C,-0.7098
 786475,0.0945555388,-0.3671526269\C,-0.1731912544,0.800906291,0.890411
 5167\C,1.3471436665,0.9317469438,0.6512063617\C,1.7152691506,-0.202857
 1972,-0.3524266682\C,0.3919892139,-0.9415093302,-0.6512263506\H,-2.432
 3021006,-0.9960397674,-1.1394333611\H,-2.850102728,0.2908374565,-0.000
 849843\H,-2.1470774173,-1.2215383681,0.5931155227\H,-0.7142006071,0.82

 Normal termination of Gaussian 16 at Tue Mar  1 15:34:33 2022.

 ------------------------------------------
 #p b3lyp/6-31G(d) geom=allcheck guess=read
 ------------------------------------------

 Structure from the checkpoint file:  "32.n.pdb.xyz.mst.wat.chk"
 ------------
 32.n.pdb.xyz
 ------------
 Charge =  0 Multiplicity = 1

 SCF Done:  E(RB3LYP) =  -235.872532375     A.U. after    8 cycles
 Normal termination of Gaussian 16 at Tue Mar  1 15:34:52 2022.
 Gaussian 16:  ES64L-G16RevA.03 25-Dec-2016

 ----------------------------------------------------------------------
 #p b3lyp/6-31G(d) scrf=(iefpcm,read,solvent=water) geom=allcheck guess
 =read
 ----------------------------------------------------------------------

 Structure from the checkpoint file:  "32.n.pdb.xyz.mst.wat.chk"
 ------------
 32.n.pdb.xyz
 ------------
 Charge =  0 Multiplicity = 1

                         Standard orientation:
 ---------------------------------------------------------------------
 Center     Atomic      Atomic             Coordinates (Angstroms)
 Number     Number       Type             X           Y           Z
 ---------------------------------------------------------------------
      1          6           0       -2.230126   -0.000021    0.051500
      2          6           0       -0.760706    0.000081   -0.362962
      3          6           0        0.054927    1.197143    0.156862
      4          6           0        1.530468    0.779370   -0.027532
      5          6           0        1.530506   -0.779515   -0.027422
      6          6           0        0.054799   -1.197035    0.156754
      7          1           0       -2.753058   -0.884195   -0.329060
      8          1           0       -2.753334    0.884132   -0.329006
      9          1           0       -2.325656   -0.000120    1.143919
     10          1           0       -0.704201    0.000111   -1.461552
     11          1           0       -0.190488    2.134580   -0.352903
     12          1           0       -0.168017    1.340814    1.222412
     13          1           0        1.916549    1.156556   -0.979921
     14          1           0        2.170785    1.193514    0.756630
     15          1           0        2.170737   -1.193604    0.756915
     16          1           0        1.916541   -1.156695   -0.979722
     17          1           0       -0.190715   -2.134306   -0.353135
     18          1           0       -0.168355   -1.340919    1.222218
 ---------------------------------------------------------------------

 SCF Done:  E(RB3LYP) =  -235.871540574     A.U. after    8 cycles

 The electronic state is 1-A.
 Alpha  occ. eigenvalues --  -10.17705 -10.17117 -10.17100 -10.16910 -10.16909
 Alpha  occ. eigenvalues --  -10.16743  -0.82720  -0.73377  -0.69783  -0.64537
 Alpha  occ. eigenvalues --   -0.55602  -0.54913  -0.47376  -0.45045  -0.42185
 Alpha  occ. eigenvalues --   -0.41117  -0.39295  -0.36646  -0.32920  -0.32570
 Alpha  occ. eigenvalues --   -0.32169  -0.30880  -0.30861  -0.30374
 Alpha virt. eigenvalues --    0.08606   0.10607   0.11919   0.14935   0.15661
 Alpha virt. eigenvalues --    0.16310   0.17798   0.18595   0.18837   0.19289
 Alpha virt. eigenvalues --    0.19847   0.21617   0.21791   0.25606   0.25871

 Mulliken charges:
               1
     1  C   -0.455022
     2  C   -0.071888
     3  C   -0.268260
     4  C   -0.276766
     5  C   -0.276744
     6  C   -0.268283
     7  H    0.142443
     8  H    0.142427
     9  H    0.139994
    10  H    0.122188
    11  H    0.132100
    12  H    0.129506
    13  H    0.137500
    14  H    0.135829
    15  H    0.135828
    16  H    0.137537
    17  H    0.132108
    18  H    0.129502
 Sum of Mulliken charges =  -0.00000

 Dipole moment (field-independent basis, Debye):
    X=              0.0234    Y=             -0.0002    Z=             -0.0941  Tot=              0.0970
 Quadrupole moment (field-independent basis, Debye-Ang):
   XX=            -40.5029   YY=            -40.0173   ZZ=            -38.9298
   XY=             -0.0000   XZ=              0.1928   YZ=              0.0000

 Normal termination of Gaussian 16 at Tue Mar  1 15:35:15 2022.
