 Gaussian 16, Revision A.03,

 ----------------------------------------------------------------------
 #p b3lyp/6-31G(d) opt=(MaxStep=10,MaxCycles=1000) freq scf=(MaxCycle=2
 000,NoVarAcc,NoIncFock) scrf=(iefpcm,read,solvent=water)
 ----------------------------------------------------------------------

 -------------
 321.n.pdb.xyz
 -------------
 Symbolic Z-matrix:
 Charge =  0 Multiplicity = 1

 SCF Done:  E(RB3LYP) =  -1212.33999979     A.U. after   14 cycles
 SCF Done:  E(RB3LYP) =  -1212.34547604     A.U. after   10 cycles
 SCF Done:  E(RB3LYP) =  -1212.34709801     A.U. after   11 cycles
 SCF Done:  E(RB3LYP) =  -1212.34808928     A.U. after   11 cycles
 SCF Done:  E(RB3LYP) =  -1212.34893023     A.U. after   10 cycles
 SCF Done:  E(RB3LYP) =  -1212.34885960     A.U. after   10 cycles
 SCF Done:  E(RB3LYP) =  -1212.34911454     A.U. after   10 cycles
 SCF Done:  E(RB3LYP) =  -1212.34914986     A.U. after   10 cycles
 SCF Done:  E(RB3LYP) =  -1212.34919412     A.U. after   10 cycles
 SCF Done:  E(RB3LYP) =  -1212.34922078     A.U. after   10 cycles
 SCF Done:  E(RB3LYP) =  -1212.34953374     A.U. after    7 cycles
 SCF Done:  E(RB3LYP) =  -1212.34953191     A.U. after    7 cycles
 SCF Done:  E(RB3LYP) =  -1212.34953133     A.U. after    7 cycles
 SCF Done:  E(RB3LYP) =  -1212.34953253     A.U. after    7 cycles
 SCF Done:  E(RB3LYP) =  -1212.34953319     A.U. after    7 cycles
 SCF Done:  E(RB3LYP) =  -1212.34953370     A.U. after    7 cycles
 SCF Done:  E(RB3LYP) =  -1212.34953368     A.U. after    5 cycles
 Optimization completed.
    -- Stationary point found.
 Normal termination of Gaussian 16 at Tue Mar  1 08:15:28 2022.

 --------------------------------------------------------------------
 #P Geom=AllCheck Guess=TCheck SCRF=Check GenChk RB3LYP/6-31G(d) Freq
 --------------------------------------------------------------------

 Structure from the checkpoint file:  "321.n.pdb.xyz.mst.wat.chk"
 -------------
 321.n.pdb.xyz
 -------------
 Charge =  0 Multiplicity = 1

 SCF Done:  E(RB3LYP) =  -1212.34953368     A.U. after    1 cycles

  Exact polarizability: 402.346  -4.893 308.746   1.486   2.300  96.069
 Approx polarizability: 407.656   5.056 370.160   2.571   3.390 114.777

                      1                      2                      3
                      A                      A                      A
 Frequencies --     18.0583                39.8183                54.1102
 Red. masses --      4.7345                 7.0555                 4.9554
 Frc consts  --      0.0009                 0.0066                 0.0085
 IR Inten    --      6.2890                12.5185                 2.7692

                      4                      5                      6
                      A                      A                      A
 Frequencies --     64.3887                71.0535                90.8996
 Red. masses --      3.8105                 1.6766                 5.6039
 Frc consts  --      0.0093                 0.0050                 0.0273
 IR Inten    --      3.8716                 4.2202                15.5667

                      7                      8                      9
                      A                      A                      A
 Frequencies --    109.2474               119.1576               134.7184
 Red. masses --      2.1227                 4.9112                 4.5797
 Frc consts  --      0.0149                 0.0411                 0.0490
 IR Inten    --      3.6474                20.0097                 2.1466

                     10                     11                     12
                      A                      A                      A
 Frequencies --    200.1029               241.2967               261.6261
 Red. masses --      6.3254                 4.4410                 4.9449
 Frc consts  --      0.1492                 0.1523                 0.1994
 IR Inten    --     18.3001                54.3492                 7.1640

                     13                     14                     15
                      A                      A                      A
 Frequencies --    266.3087               277.5108               305.5036
 Red. masses --      4.3609                 2.1806                 2.4095
 Frc consts  --      0.1822                 0.0989                 0.1325
 IR Inten    --      4.9685               197.5987               152.2229

                     16                     17                     18
                      A                      A                      A
 Frequencies --    335.5250               354.6854               360.6994
 Red. masses --      5.9071                 8.0757                 3.9603
 Frc consts  --      0.3918                 0.5986                 0.3036
 IR Inten    --     46.0773                 3.5243                 0.8875

                     19                     20                     21
                      A                      A                      A
 Frequencies --    390.0586               398.1304               456.4633
 Red. masses --      3.4223                 1.2196                 2.3492
 Frc consts  --      0.3068                 0.1139                 0.2884
 IR Inten    --     15.7113               445.8527                64.1165

                     22                     23                     24
                      A                      A                      A
 Frequencies --    458.9277               492.9423               539.7930
 Red. masses --      1.4514                 4.5069                 4.1052
 Frc consts  --      0.1801                 0.6452                 0.7048
 IR Inten    --    236.6558                10.5168                35.7260

                     25                     26                     27
                      A                      A                      A
 Frequencies --    542.2402               560.9308               584.1600
 Red. masses --      2.7170                 2.4796                 2.5388
 Frc consts  --      0.4707                 0.4597                 0.5104
 IR Inten    --      0.9082                65.1941                51.6113

                     28                     29                     30
                      A                      A                      A
 Frequencies --    606.5044               616.0400               638.9500
 Red. masses --      6.9592                 2.3150                 1.5777
 Frc consts  --      1.5083                 0.5176                 0.3795
 IR Inten    --     11.7578                18.2623                15.6112

                     31                     32                     33
                      A                      A                      A
 Frequencies --    645.0244               664.3841               698.3424
 Red. masses --      1.5464                 6.4287                 1.7627
 Frc consts  --      0.3791                 1.6719                 0.5065
 IR Inten    --     42.5591                14.9982                 4.4716

                     34                     35                     36
                      A                      A                      A
 Frequencies --    701.4904               709.4790               734.9352
 Red. masses --      3.1889                 6.3594                 7.3997
 Frc consts  --      0.9245                 1.8860                 2.3549
 IR Inten    --      1.0749                19.1922                68.0806

                     37                     38                     39
                      A                      A                      A
 Frequencies --    737.1957               818.2723               822.6038
 Red. masses --      2.2374                 4.5759                 1.7002
 Frc consts  --      0.7164                 1.8052                 0.6778
 IR Inten    --     55.8187                44.6864                33.2813

                     40                     41                     42
                      A                      A                      A
 Frequencies --    846.8528               882.2246               894.3945
 Red. masses --      6.6113                 3.4575                 1.8062
 Frc consts  --      2.7935                 1.5855                 0.8513
 IR Inten    --     74.0548                49.1096                29.5548

                     43                     44                     45
                      A                      A                      A
 Frequencies --    923.7535               944.3591               984.0549
 Red. masses --      1.3846                 5.3990                 6.2657
 Frc consts  --      0.6961                 2.8369                 3.5749
 IR Inten    --      0.2737                 2.0778                98.0050

                     46                     47                     48
                      A                      A                      A
 Frequencies --    994.5884              1010.4725              1016.0563
 Red. masses --      1.2675                 5.2408                 5.0795
 Frc consts  --      0.7387                 3.1528                 3.0896
 IR Inten    --      2.1700                10.0628                10.5453

                     49                     50                     51
                      A                      A                      A
 Frequencies --   1046.4172              1067.8817              1090.0053
 Red. masses --      1.5545                 1.6635                 1.8042
 Frc consts  --      1.0029                 1.1177                 1.2630
 IR Inten    --     31.6131                15.9165                31.2709

                     52                     53                     54
                      A                      A                      A
 Frequencies --   1102.3903              1112.1841              1127.3506
 Red. masses --      1.3714                 1.5506                 1.7809
 Frc consts  --      0.9820                 1.1300                 1.3336
 IR Inten    --      4.5362                29.4640                18.4754

                     55                     56                     57
                      A                      A                      A
 Frequencies --   1189.3469              1224.4574              1266.7854
 Red. masses --      1.1079                 1.6997                 3.1826
 Frc consts  --      0.9234                 1.5014                 3.0091
 IR Inten    --      3.5546                 6.1228                93.0405

                     58                     59                     60
                      A                      A                      A
 Frequencies --   1283.6123              1295.2440              1328.9833
 Red. masses --      4.7408                 2.1620                 2.3604
 Frc consts  --      4.6022                 2.1371                 2.4562
 IR Inten    --    234.3602                86.7612                 1.1308

                     61                     62                     63
                      A                      A                      A
 Frequencies --   1352.9732              1369.3764              1427.6252
 Red. masses --      2.3190                 4.8652                 1.2445
 Frc consts  --      2.5011                 5.3752                 1.4945
 IR Inten    --    249.5818               214.3438                69.1116

                     64                     65                     66
                      A                      A                      A
 Frequencies --   1454.8495              1492.2809              1507.4960
 Red. masses --      3.2157                 1.0488                 2.9535
 Frc consts  --      4.0102                 1.3761                 3.9546
 IR Inten    --     40.5443                14.7309               284.0953

                     67                     68                     69
                      A                      A                      A
 Frequencies --   1512.9427              1516.4522              1531.3229
 Red. masses --      1.2239                 2.4104                 6.3306
 Frc consts  --      1.6506                 3.2659                 8.7464
 IR Inten    --     29.3416               351.9243              1280.1533

                     70                     71                     72
                      A                      A                      A
 Frequencies --   1546.3029              1560.9309              1586.1049
 Red. masses --      2.6200                 3.6066                 2.6374
 Frc consts  --      3.6909                 5.1774                 3.9093
 IR Inten    --    739.2379               671.4590               119.1724

                     73                     74                     75
                      A                      A                      A
 Frequencies --   1633.4773              1641.0683              1649.5540
 Red. masses --      1.6902                 4.6138                 1.3575
 Frc consts  --      2.6572                 7.3209                 2.1764
 IR Inten    --    648.6302                38.2374               753.9562

                     76                     77                     78
                      A                      A                      A
 Frequencies --   1661.1326              1736.2241              3083.0724
 Red. masses --      5.4588                 6.4374                 1.0371
 Frc consts  --      8.8747                11.4333                 5.8082
 IR Inten    --    261.9865               411.8571                 9.0982

                     79                     80                     81
                      A                      A                      A
 Frequencies --   3149.5301              3174.7494              3207.2790
 Red. masses --      1.1001                 1.1042                 1.0894
 Frc consts  --      6.4293                 6.5574                 6.6023
 IR Inten    --     11.4410                23.7740                45.6287

                     82                     83                     84
                      A                      A                      A
 Frequencies --   3211.0070              3241.7065              3288.7531
 Red. masses --      1.0896                 1.0920                 1.0916
 Frc consts  --      6.6193                 6.7609                 6.9562
 IR Inten    --     10.3223                10.0283                 5.8524

                     85                     86                     87
                      A                      A                      A
 Frequencies --   3294.2398              3492.3879              3570.6650
 Red. masses --      1.0939                 1.0532                 1.0479
 Frc consts  --      6.9944                 7.5685                 7.8718
 IR Inten    --      4.3453               228.4268               161.3762

                     88                     89                     90
                      A                      A                      A
 Frequencies --   3602.1496              3650.9834              3680.0962
 Red. masses --      1.0776                 1.1002                 1.1031
 Frc consts  --      8.2385                 8.6405                 8.8023
 IR Inten    --     90.4319               263.9261               111.1480

 - Thermochemistry -
 -------------------
 Temperature   298.150 Kelvin.  Pressure   1.00000 Atm.
 Atom     1 has atomic number  6 and mass  12.00000

 Molecular mass:   275.08408 amu.
 Principal axes and moments of inertia in atomic units:
                           1         2         3
     Eigenvalues --  1965.62568********************
           X            0.99986  -0.01647  -0.00106
           Y            0.01648   0.99985   0.00432
           Z            0.00099  -0.00433   0.99999
 This molecule is an asymmetric top.
 Rotational symmetry number  1.
 Warning -- assumption of classical behavior for rotation
           may cause significant error
 Rotational temperatures (Kelvin)      0.04406     0.00625     0.00551
 Rotational constants (GHZ):           0.91815     0.13028     0.11473
 Zero-point vibrational energy     649451.0 (Joules/Mol)
                                  155.22251 (Kcal/Mol)
 Warning -- explicit consideration of  29 degrees of freedom as
           vibrations may cause significant error
 Vibrational temperatures:     25.98    57.29    77.85    92.64   102.23
          (Kelvin)            130.78   157.18   171.44   193.83   287.90
                              347.17   376.42   383.16   399.28   439.55
                              482.75   510.31   518.97   561.21   572.82
                              656.75   660.29   709.23   776.64   780.16
                              807.05   840.48   872.62   886.34   919.31
                              928.05   955.90  1004.76  1009.29  1020.78
                             1057.41  1060.66  1177.31  1183.54  1218.43
                             1269.32  1286.83  1329.08  1358.72  1415.84
                             1430.99  1453.84  1461.88  1505.56  1536.44
                             1568.27  1586.09  1600.18  1622.01  1711.20
                             1761.72  1822.62  1846.83  1863.57  1912.11
                             1946.63  1970.23  2054.03  2093.20  2147.06
                             2168.95  2176.79  2181.84  2203.23  2224.79
                             2245.83  2282.05  2350.21  2361.13  2373.34
                             2390.00  2498.04  4435.85  4531.47  4567.76
                             4614.56  4619.92  4664.09  4731.78  4739.68
                             5024.77  5137.39  5182.69  5252.95  5294.84

 Zero-point correction=                           0.247363 (Hartree/Particle)
 Thermal correction to Energy=                    0.265395
 Thermal correction to Enthalpy=                  0.266339
 Thermal correction to Gibbs Free Energy=         0.199408
 Sum of electronic and zero-point Energies=          -1212.102171
 Sum of electronic and thermal Energies=             -1212.084139
 Sum of electronic and thermal Enthalpies=           -1212.083194
 Sum of electronic and thermal Free Energies=        -1212.150126

                     E (Thermal)             CV                S
                      KCal/Mol        Cal/Mol-Kelvin    Cal/Mol-Kelvin
 Total                  166.538             68.179            140.869
 Electronic               0.000              0.000              0.000
 Translational            0.889              2.981             42.734
 Rotational               0.889              2.981             34.415
 Vibrational            164.760             62.217             63.720
 Vibration     1          0.593              1.986              6.837
 Vibration     2          0.594              1.981              5.268
 Vibration     3          0.596              1.976              4.661
 Vibration     4          0.597              1.971              4.318
 Vibration     5          0.598              1.968              4.124
 Vibration     6          0.602              1.956              3.641
 Vibration     7          0.606              1.942              3.282
 Vibration     8          0.609              1.933              3.114
 Vibration     9          0.613              1.919              2.878
 Vibration    10          0.638              1.840              2.132
 Vibration    11          0.658              1.777              1.793
 Vibration    12          0.669              1.743              1.651
 Vibration    13          0.672              1.735              1.620
 Vibration    14          0.678              1.715              1.549
 Vibration    15          0.696              1.663              1.387
 Vibration    16          0.717              1.605              1.233
 Vibration    17          0.731              1.566              1.145
 Vibration    18          0.735              1.553              1.119
 Vibration    19          0.758              1.491              1.000
 Vibration    20          0.764              1.474              0.970
 Vibration    21          0.815              1.347              0.776
 Vibration    22          0.817              1.341              0.769
 Vibration    23          0.849              1.266              0.676
 Vibration    24          0.895              1.162              0.566
 Vibration    25          0.897              1.157              0.560
 Vibration    26          0.917              1.116              0.522
 Vibration    27          0.941              1.066              0.478
 Vibration    28          0.965              1.018              0.439
 Vibration    29          0.976              0.998              0.423

                           ! Non-Optimized Parameters !
 Normal termination of Gaussian 16 at Tue Mar  1 08:43:19 2022.

 ------------------------------------------
 #p b3lyp/6-31G(d) geom=allcheck guess=read
 ------------------------------------------

 Structure from the checkpoint file:  "321.n.pdb.xyz.mst.wat.chk"
 -------------
 321.n.pdb.xyz
 -------------
 Charge =  0 Multiplicity = 1

 SCF Done:  E(RB3LYP) =  -1212.31177447     A.U. after   12 cycles
 Normal termination of Gaussian 16 at Tue Mar  1 08:45:39 2022.
 Gaussian 16:  ES64L-G16RevA.03 25-Dec-2016

 ----------------------------------------------------------------------
 #p b3lyp/6-31G(d) scrf=(iefpcm,read,solvent=water) geom=allcheck guess
 =read
 ----------------------------------------------------------------------

 Structure from the checkpoint file:  "321.n.pdb.xyz.mst.wat.chk"
 -------------
 321.n.pdb.xyz
 -------------
 Charge =  0 Multiplicity = 1

                         Standard orientation:
 ---------------------------------------------------------------------
 Center     Atomic      Atomic             Coordinates (Angstroms)
 Number     Number       Type             X           Y           Z
 ---------------------------------------------------------------------
      1          6           0       -6.412654    1.180912    0.366016
      2          6           0       -5.379364    0.091532    0.150902
      3          8           0       -5.713061   -1.089866    0.036990
      4          7           0       -4.083208    0.526710    0.113370
      5          6           0       -2.900321   -0.224990   -0.034693
      6          6           0       -1.689607    0.478930   -0.004535
      7          6           0       -0.459985   -0.178905   -0.141155
      8          6           0       -0.455960   -1.574631   -0.303117
      9          6           0       -1.660899   -2.272891   -0.332697
     10          6           0       -2.885948   -1.619856   -0.202213
     11          6           0        0.809020    0.575922   -0.119707
     12          6           0        0.927358    1.937557   -0.193687
     13         16           0        2.599266    2.406544   -0.148542
     14          6           0        3.054189    0.683815   -0.029985
     15          7           0        4.375082    0.414044    0.049354
     16          6           0        4.811216   -0.837246    0.189143
     17          7           0        4.035950   -1.937714    0.209119
     18          7           0        6.152595   -1.010701    0.347203
     19          7           0        2.006345   -0.118836   -0.031311
     20          1           0       -6.848616    1.059779    1.362325
     21          1           0       -7.215981    1.048583   -0.362117
     22          1           0       -6.013540    2.192985    0.280076
     23          1           0       -3.943728    1.524110    0.224759
     24          1           0       -1.707681    1.554463    0.138342
     25          1           0        0.488366   -2.093397   -0.411150
     26          1           0       -1.651556   -3.350582   -0.461638
     27          1           0       -3.819033   -2.160954   -0.223208
     28          1           0        0.144367    2.673754   -0.290590
     29          1           0        3.029691   -1.799153    0.245891
     30          1           0        4.431793   -2.833270    0.465712
     31          1           0        6.733068   -0.229199    0.070761
     32          1           0        6.539457   -1.928312    0.161794
 ---------------------------------------------------------------------

 SCF Done:  E(RB3LYP) =  -1212.34732259     A.U. after   12 cycles

 The electronic state is 1-A.
 Alpha  occ. eigenvalues --  -88.90241 -19.12197 -14.37535 -14.34919 -14.34766
 Alpha  occ. eigenvalues --  -14.32467 -14.31153 -10.30636 -10.29860 -10.27762
 Alpha  occ. eigenvalues --  -10.23953 -10.22535 -10.20778 -10.20572 -10.19341
 Alpha  occ. eigenvalues --  -10.19190 -10.18736 -10.18588 -10.18586  -7.96428
 Alpha  occ. eigenvalues --   -5.92817  -5.92483  -5.92107  -1.03900  -0.99713
 Alpha  occ. eigenvalues --   -0.95501  -0.94156  -0.87779  -0.87587  -0.85087
 Alpha  occ. eigenvalues --   -0.78926  -0.77403  -0.75985  -0.72276  -0.70905
 Alpha  occ. eigenvalues --   -0.64354  -0.62503  -0.62249  -0.58827  -0.57842
 Alpha  occ. eigenvalues --   -0.55510  -0.53836  -0.53404  -0.51204  -0.49298
 Alpha  occ. eigenvalues --   -0.48587  -0.47267  -0.46900  -0.45189  -0.44725
 Alpha  occ. eigenvalues --   -0.43794  -0.43517  -0.42576  -0.40934  -0.40498
 Alpha  occ. eigenvalues --   -0.40279  -0.39845  -0.39131  -0.37482  -0.36337
 Alpha  occ. eigenvalues --   -0.35897  -0.34204  -0.31605  -0.29642  -0.28243
 Alpha  occ. eigenvalues --   -0.28234  -0.27439  -0.26893  -0.25783  -0.24859
 Alpha  occ. eigenvalues --   -0.22340  -0.19524
 Alpha virt. eigenvalues --   -0.03414  -0.01718  -0.00522   0.02367   0.03662
 Alpha virt. eigenvalues --    0.07294   0.08769   0.09414   0.09941   0.10334
 Alpha virt. eigenvalues --    0.11653   0.13071   0.13699   0.14221   0.14714

 Mulliken charges:
               1
     1  C   -0.542089
     2  C    0.602419
     3  O   -0.562521
     4  N   -0.707383
     5  C    0.341965
     6  C   -0.276288
     7  C    0.106224
     8  C   -0.196809
     9  C   -0.165842
    10  C   -0.180177
    11  C    0.274535
    12  C   -0.429982
    13  S    0.180828
    14  C    0.304771
    15  N   -0.616773
    16  C    0.656302
    17  N   -0.779758
    18  N   -0.770749
    19  N   -0.583576
    20  H    0.194524
    21  H    0.188305
    22  H    0.175934
    23  H    0.392627
    24  H    0.157157
    25  H    0.154573
    26  H    0.150569
    27  H    0.168880
    28  H    0.196920
    29  H    0.401231
    30  H    0.391922
    31  H    0.383817
    32  H    0.388445
 Sum of Mulliken charges =  -0.00000

 Dipole moment (field-independent basis, Debye):
    X=              4.7195    Y=             -0.4921    Z=              0.6678  Tot=              4.7918
 Quadrupole moment (field-independent basis, Debye-Ang):
   XX=            -83.1162   YY=            -99.2484   ZZ=           -121.4352
   XY=            -53.4515   XZ=             -3.6703   YZ=             -0.4849

 Normal termination of Gaussian 16 at Tue Mar  1 08:48:27 2022.
