 Gaussian 16, Revision A.03,

 ----------------------------------------------------------------------
 #p b3lyp/6-31G(d) opt=(MaxStep=10,MaxCycles=1000) freq scf=(MaxCycle=2
 000,NoVarAcc,NoIncFock) scrf=(iefpcm,read,solvent=water)
 ----------------------------------------------------------------------

 -------------
 327.n.pdb.xyz
 -------------
 Symbolic Z-matrix:
 Charge =  0 Multiplicity = 1

 SCF Done:  E(RB3LYP) =  -1610.64662791     A.U. after   13 cycles
 SCF Done:  E(RB3LYP) =  -1610.65110306     A.U. after   10 cycles
 SCF Done:  E(RB3LYP) =  -1610.65151051     A.U. after   11 cycles
 SCF Done:  E(RB3LYP) =  -1610.65312493     A.U. after   10 cycles
 SCF Done:  E(RB3LYP) =  -1610.65298606     A.U. after   11 cycles
 SCF Done:  E(RB3LYP) =  -1610.65372449     A.U. after   10 cycles
 SCF Done:  E(RB3LYP) =  -1610.65395497     A.U. after   10 cycles
 SCF Done:  E(RB3LYP) =  -1610.65413577     A.U. after   11 cycles
 SCF Done:  E(RB3LYP) =  -1610.65427363     A.U. after   10 cycles
 SCF Done:  E(RB3LYP) =  -1610.65426809     A.U. after   13 cycles
 SCF Done:  E(RB3LYP) =  -1610.65447007     A.U. after    9 cycles
 SCF Done:  E(RB3LYP) =  -1610.65447425     A.U. after    9 cycles
 SCF Done:  E(RB3LYP) =  -1610.65448240     A.U. after    8 cycles
 SCF Done:  E(RB3LYP) =  -1610.65449129     A.U. after    9 cycles
 SCF Done:  E(RB3LYP) =  -1610.65449138     A.U. after    7 cycles
 SCF Done:  E(RB3LYP) =  -1610.65449159     A.U. after    7 cycles
 SCF Done:  E(RB3LYP) =  -1610.65449088     A.U. after    7 cycles
 Optimization completed.
    -- Stationary point found.
 Normal termination of Gaussian 16 at Wed Mar  2 05:38:30 2022.

 --------------------------------------------------------------------
 #P Geom=AllCheck Guess=TCheck SCRF=Check GenChk RB3LYP/6-31G(d) Freq
 --------------------------------------------------------------------

 Structure from the checkpoint file:  "327.n.pdb.xyz.mst.wat.chk"
 -------------
 327.n.pdb.xyz
 -------------
 Charge =  0 Multiplicity = 1

 SCF Done:  E(RB3LYP) =  -1610.65449088     A.U. after    1 cycles

  Exact polarizability: 313.477   3.979 352.464 -14.822   3.599 326.788
 Approx polarizability: 321.011   2.312 376.898 -16.613   4.616 385.226

                      1                      2                      3
                      A                      A                      A
 Frequencies --     19.4240                24.7653                28.6133
 Red. masses --      7.6753                 4.0938                 5.4656
 Frc consts  --      0.0017                 0.0015                 0.0026
 IR Inten    --      0.1825                 0.2902                 0.4452

                      4                      5                      6
                      A                      A                      A
 Frequencies --     34.6697                42.2549                43.7116
 Red. masses --      5.5177                 3.3044                 5.4692
 Frc consts  --      0.0039                 0.0035                 0.0062
 IR Inten    --      0.5695                 0.3483                 0.0785

                      7                      8                      9
                      A                      A                      A
 Frequencies --     53.8003                54.8794                66.7305
 Red. masses --      4.1885                 4.0185                 4.4315
 Frc consts  --      0.0071                 0.0071                 0.0116
 IR Inten    --      4.3746                 0.6041                 1.8695

                     10                     11                     12
                      A                      A                      A
 Frequencies --     72.7735                93.1743               110.0657
 Red. masses --      3.5139                 5.0928                 6.5120
 Frc consts  --      0.0110                 0.0260                 0.0465
 IR Inten    --      4.8943                 4.7019                 1.3512

                     13                     14                     15
                      A                      A                      A
 Frequencies --    125.2778               144.8524               158.3730
 Red. masses --      2.5910                 4.6376                 4.7834
 Frc consts  --      0.0240                 0.0573                 0.0707
 IR Inten    --      0.1713                 0.7686                 2.6784

                     16                     17                     18
                      A                      A                      A
 Frequencies --    186.3857               223.4480               229.0888
 Red. masses --      5.3948                 5.1578                 5.0550
 Frc consts  --      0.1104                 0.1517                 0.1563
 IR Inten    --      0.9827                 0.9574                 2.0613

                     19                     20                     21
                      A                      A                      A
 Frequencies --    246.8727               262.5376               292.2242
 Red. masses --      3.0418                 2.6463                 5.4435
 Frc consts  --      0.1092                 0.1075                 0.2739
 IR Inten    --      0.1508                 1.6413                 3.0872

                     22                     23                     24
                      A                      A                      A
 Frequencies --    295.9604               326.8794               344.4938
 Red. masses --      3.1711                 4.0591                 4.7388
 Frc consts  --      0.1637                 0.2555                 0.3313
 IR Inten    --      2.2461                 2.5859                 2.1394

                     25                     26                     27
                      A                      A                      A
 Frequencies --    349.7022               359.4625               410.2902
 Red. masses --      3.0315                 3.2054                 2.7508
 Frc consts  --      0.2184                 0.2440                 0.2728
 IR Inten    --     10.7335                 6.5238                 2.4340

                     28                     29                     30
                      A                      A                      A
 Frequencies --    418.4759               421.9433               437.6652
 Red. masses --      2.9652                 3.0172                 3.3376
 Frc consts  --      0.3059                 0.3165                 0.3767
 IR Inten    --      0.0148                 0.6338                 4.2699

                     31                     32                     33
                      A                      A                      A
 Frequencies --    459.0795               489.7764               499.9562
 Red. masses --      3.6990                 5.2553                 3.3856
 Frc consts  --      0.4593                 0.7428                 0.4986
 IR Inten    --      5.4187                10.4600                11.5574

                     34                     35                     36
                      A                      A                      A
 Frequencies --    512.9339               526.2957               537.1114
 Red. masses --      3.1889                 1.5691                 3.9096
 Frc consts  --      0.4943                 0.2561                 0.6645
 IR Inten    --      9.0969                44.7121                 8.5222

                     37                     38                     39
                      A                      A                      A
 Frequencies --    583.8480               623.1251               630.6644
 Red. masses --      4.2661                 3.6747                 5.4198
 Frc consts  --      0.8568                 0.8407                 1.2701
 IR Inten    --     17.2105                97.4859                 4.1053

                     40                     41                     42
                      A                      A                      A
 Frequencies --    635.8439               641.4683               664.3987
 Red. masses --      5.9729                 4.1403                 2.6696
 Frc consts  --      1.4228                 1.0038                 0.6943
 IR Inten    --      5.6867                 7.3680                 1.3523

                     43                     44                     45
                      A                      A                      A
 Frequencies --    670.5096               700.1531               714.9097
 Red. masses --      1.7221                 5.4323                 2.1054
 Frc consts  --      0.4562                 1.5690                 0.6340
 IR Inten    --    181.3536                 9.9084                25.6894

                     46                     47                     48
                      A                      A                      A
 Frequencies --    728.9647               776.3211               812.8193
 Red. masses --      2.7497                 2.3140                 2.3503
 Frc consts  --      0.8609                 0.8217                 0.9149
 IR Inten    --     27.3107                55.9496                27.1226

                     49                     50                     51
                      A                      A                      A
 Frequencies --    820.6395               832.6768               843.5004
 Red. masses --      2.0119                 1.4580                 1.2578
 Frc consts  --      0.7983                 0.5956                 0.5273
 IR Inten    --     29.9194                 1.7586                 0.2078

                     52                     53                     54
                      A                      A                      A
 Frequencies --    862.4185               865.5742               872.2643
 Red. masses --      2.9053                 1.2533                 2.6340
 Frc consts  --      1.2731                 0.5532                 1.1808
 IR Inten    --     32.2977                 0.1622                26.4643

                     55                     56                     57
                      A                      A                      A
 Frequencies --    872.5510               882.3910               889.4920
 Red. masses --      1.7275                 2.7067                 3.7045
 Frc consts  --      0.7749                 1.2417                 1.7269
 IR Inten    --     12.8176                40.1383                 4.5091

                     58                     59                     60
                      A                      A                      A
 Frequencies --    937.1986               968.5464               973.3295
 Red. masses --      1.4911                 1.4267                 1.8585
 Frc consts  --      0.7716                 0.7885                 1.0374
 IR Inten    --      7.3347                 6.6969                12.5721

                     61                     62                     63
                      A                      A                      A
 Frequencies --    974.4716               979.8776              1005.9405
 Red. masses --      1.3435                 1.3544                 1.2575
 Frc consts  --      0.7517                 0.7662                 0.7497
 IR Inten    --      0.1570                 0.0070                 1.6107

                     64                     65                     66
                      A                      A                      A
 Frequencies --   1016.9136              1023.0557              1027.4404
 Red. masses --      6.2039                 3.2748                 3.0001
 Frc consts  --      3.7799                 2.0194                 1.8659
 IR Inten    --      2.0968               122.1017                30.5459

                     67                     68                     69
                      A                      A                      A
 Frequencies --   1035.6905              1043.3788              1054.2008
 Red. masses --      3.1055                 2.0199                 3.4685
 Frc consts  --      1.9626                 1.2956                 2.2711
 IR Inten    --      9.5138                 0.5030                63.5095

                     70                     71                     72
                      A                      A                      A
 Frequencies --   1056.7203              1084.1600              1100.0151
 Red. masses --      2.1648                 2.2226                 2.8339
 Frc consts  --      1.4242                 1.5392                 2.0203
 IR Inten    --      7.7666                32.3352                77.2397

                     73                     74                     75
                      A                      A                      A
 Frequencies --   1100.4105              1106.0867              1114.4893
 Red. masses --      2.4390                 1.7017                 1.8628
 Frc consts  --      1.7401                 1.2267                 1.3632
 IR Inten    --     22.3012                21.7146                12.2614

                     76                     77                     78
                      A                      A                      A
 Frequencies --   1124.4040              1141.4553              1150.8087
 Red. masses --      1.5570                 2.0812                 2.6054
 Frc consts  --      1.1598                 1.5976                 2.0330
 IR Inten    --     29.6470                19.6321                39.9524

                     79                     80                     81
                      A                      A                      A
 Frequencies --   1168.7111              1169.5995              1183.9691
 Red. masses --      3.8051                 4.0182                 3.0520
 Frc consts  --      3.0622                 3.2386                 2.5207
 IR Inten    --     83.4031               142.5675               200.3453

                     82                     83                     84
                      A                      A                      A
 Frequencies --   1186.7196              1195.3410              1200.3764
 Red. masses --      1.1039                 1.1520                 2.0375
 Frc consts  --      0.9159                 0.9698                 1.7297
 IR Inten    --      0.2856                 0.1694               348.1935

                     85                     86                     87
                      A                      A                      A
 Frequencies --   1205.3028              1212.2619              1217.3451
 Red. masses --      1.2149                 2.5632                 2.3891
 Frc consts  --      1.0398                 2.2194                 2.0860
 IR Inten    --      1.4220                22.6079                 4.7705

                     88                     89                     90
                      A                      A                      A
 Frequencies --   1221.2709              1235.0025              1258.2232
 Red. masses --      1.6666                 1.3566                 1.0953
 Frc consts  --      1.4645                 1.2191                 1.0217
 IR Inten    --      2.3430                 2.6893                 5.2274

                     91                     92                     93
                      A                      A                      A
 Frequencies --   1265.6029              1290.8385              1305.3277
 Red. masses --      1.2865                 1.5670                 1.3123
 Frc consts  --      1.2141                 1.5384                 1.3174
 IR Inten    --      6.8504                11.3947                19.9607

                     94                     95                     96
                      A                      A                      A
 Frequencies --   1314.0201              1324.7763              1331.3478
 Red. masses --      1.5910                 1.4827                 2.1773
 Frc consts  --      1.6185                 1.5332                 2.2738
 IR Inten    --     41.3166                27.9875                 3.0873

                     97                     98                     99
                      A                      A                      A
 Frequencies --   1338.1592              1348.2304              1361.6212
 Red. masses --      1.3702                 1.2663                 2.6685
 Frc consts  --      1.4456                 1.3561                 2.9150
 IR Inten    --     33.7811                25.5805                 1.8556

                    100                    101                    102
                      A                      A                      A
 Frequencies --   1365.8884              1377.5758              1378.2973
 Red. masses --      1.3158                 1.2856                 1.7346
 Frc consts  --      1.4464                 1.4375                 1.9414
 IR Inten    --     96.1526                 2.4325                38.7147

                    103                    104                    105
                      A                      A                      A
 Frequencies --   1385.2189              1392.8771              1406.4582
 Red. masses --      1.4899                 1.4485                 1.5278
 Frc consts  --      1.6844                 1.6558                 1.7807
 IR Inten    --     47.6683                12.0618                 3.7442

                    106                    107                    108
                      A                      A                      A
 Frequencies --   1424.1532              1432.4847              1441.6560
 Red. masses --      2.1164                 1.4731                 1.7493
 Frc consts  --      2.5290                 1.7810                 2.1421
 IR Inten    --     85.8948                 9.8817                 9.0916

                    109                    110                    111
                      A                      A                      A
 Frequencies --   1450.6062              1468.3100              1500.0918
 Red. masses --      2.2863                 1.4965                 2.0824
 Frc consts  --      2.8346                 1.9010                 2.7609
 IR Inten    --      8.6523                 5.5887                14.6515

                    112                    113                    114
                      A                      A                      A
 Frequencies --   1505.9844              1508.6865              1512.6812
 Red. masses --      1.0829                 1.0964                 1.1092
 Frc consts  --      1.4470                 1.4703                 1.4953
 IR Inten    --      0.5048                 6.0362                 6.7282

                    115                    116                    117
                      A                      A                      A
 Frequencies --   1514.0436              1518.9800              1529.2595
 Red. masses --      1.1047                 1.0996                 1.1269
 Frc consts  --      1.4920                 1.4949                 1.5527
 IR Inten    --     19.9405                 2.5199                 9.8644

                    118                    119                    120
                      A                      A                      A
 Frequencies --   1529.5075              1540.7799              1560.2629
 Red. masses --      2.2495                 2.2042                 1.0858
 Frc consts  --      3.1006                 3.0831                 1.5574
 IR Inten    --     90.4586                13.6942                 2.2252

                    121                    122                    123
                      A                      A                      A
 Frequencies --   1631.6102              1643.4376              1646.6673
 Red. masses --      6.7997                 5.6215                 5.9085
 Frc consts  --     10.6653                 8.9455                 9.4392
 IR Inten    --      2.5036                 0.6185                 8.2569

                    124                    125                    126
                      A                      A                      A
 Frequencies --   1660.0291              1803.5351              2946.4753
 Red. masses --      5.6752                10.4372                 1.0728
 Frc consts  --      9.2143                20.0024                 5.4875
 IR Inten    --      7.0501               487.2135                75.5060

                    127                    128                    129
                      A                      A                      A
 Frequencies --   2951.7466              2955.4276              2959.4234
 Red. masses --      1.0729                 1.0809                 1.0733
 Frc consts  --      5.5078                 5.5627                 5.5383
 IR Inten    --    113.8214                30.2753                 8.0180

                    130                    131                    132
                      A                      A                      A
 Frequencies --   2962.3947              2969.8792              3017.2727
 Red. masses --      1.0721                 1.0712                 1.0564
 Frc consts  --      5.5434                 5.5667                 5.6664
 IR Inten    --    408.6061               156.5024                36.2608

                    133                    134                    135
                      A                      A                      A
 Frequencies --   3025.6322              3045.8659              3058.7343
 Red. masses --      1.0554                 1.1028                 1.1062
 Frc consts  --      5.6925                 6.0282                 6.0980
 IR Inten    --     82.5155                89.8917                38.4868

                    136                    137                    138
                      A                      A                      A
 Frequencies --   3095.7462              3099.1314              3115.0220
 Red. masses --      1.0910                 1.0895                 1.0881
 Frc consts  --      6.1604                 6.1656                 6.2206
 IR Inten    --      1.6778               138.2655                61.0275

                    139                    140                    141
                      A                      A                      A
 Frequencies --   3132.3022              3140.1211              3195.6741
 Red. masses --      1.0878                 1.0879                 1.0864
 Frc consts  --      6.2883                 6.3199                 6.5365
 IR Inten    --     52.1052                37.6991                12.3170

                    142                    143                    144
                      A                      A                      A
 Frequencies --   3201.2041              3205.5973              3210.7769
 Red. masses --      1.0870                 1.0893                 1.0909
 Frc consts  --      6.5632                 6.5952                 6.6261
 IR Inten    --      0.4357                14.6037                37.7885

                    145                    146                    147
                      A                      A                      A
 Frequencies --   3218.9339              3224.5643              3226.5762
 Red. masses --      1.0930                 1.0884                 1.0972
 Frc consts  --      6.6727                 6.6680                 6.7302
 IR Inten    --     52.7647                 6.5771                27.1398

                    148                    149                    150
                      A                      A                      A
 Frequencies --   3236.5719              3239.3016              3628.3578
 Red. masses --      1.0936                 1.0947                 1.0644
 Frc consts  --      6.7499                 6.7676                 8.2559
 IR Inten    --     11.8222                 6.1180               177.1422

 - Thermochemistry -
 -------------------
 Temperature   298.150 Kelvin.  Pressure   1.00000 Atm.
 Atom     1 has atomic number  8 and mass  15.99491

 Molecular mass:   388.15537 amu.
 Principal axes and moments of inertia in atomic units:
                           1         2         3
     Eigenvalues --  7626.84416********************
           X            0.99993  -0.01211  -0.00077
           Y            0.01211   0.99991  -0.00551
           Z            0.00083   0.00550   0.99998
 This molecule is an asymmetric top.
 Rotational symmetry number  1.
 Warning -- assumption of classical behavior for rotation
           may cause significant error
 Rotational temperatures (Kelvin)      0.01136     0.00290     0.00243
 Rotational constants (GHZ):           0.23663     0.06048     0.05056
 Zero-point vibrational energy    1138683.0 (Joules/Mol)
                                  272.15178 (Kcal/Mol)
 Warning -- explicit consideration of  37 degrees of freedom as
           vibrations may cause significant error
 Vibrational temperatures:     27.95    35.63    41.17    49.88    60.80
          (Kelvin)             62.89    77.41    78.96    96.01   104.70
                              134.06   158.36   180.25   208.41   227.86
                              268.17   321.49   329.61   355.19   377.73
                              420.45   425.82   470.31   495.65   503.14
                              517.19   590.32   602.09   607.08   629.70
                              660.51   704.68   719.33   738.00   757.22
                              772.78   840.03   896.54   907.39   914.84
                              922.93   955.92   964.71  1007.36  1028.60
                             1048.82  1116.95  1169.47  1180.72  1198.04
                             1213.61  1240.83  1245.37  1254.99  1255.41
                             1269.56  1279.78  1348.42  1393.52  1400.40
                             1402.05  1409.83  1447.32  1463.11  1471.95
                             1478.26  1490.13  1501.19  1516.76  1520.38
                             1559.86  1582.68  1583.25  1591.41  1603.50
                             1617.77  1642.30  1655.76  1681.51  1682.79
                             1703.47  1707.42  1719.83  1727.07  1734.16
                             1744.17  1751.49  1757.14  1776.89  1810.30
                             1820.92  1857.23  1878.08  1890.58  1906.06
                             1915.51  1925.31  1939.80  1959.07  1965.21
                             1982.02  1983.06  1993.02  2004.04  2023.58
                             2049.04  2061.03  2074.22  2087.10  2112.57
                             2158.30  2166.78  2170.66  2176.41  2178.37
                             2185.47  2200.26  2200.62  2216.84  2244.87
                             2347.52  2364.54  2369.19  2388.41  2594.88
                             4239.32  4246.90  4252.20  4257.95  4262.23
                             4272.99  4341.18  4353.21  4382.32  4400.84
                             4454.09  4458.96  4481.82  4506.68  4517.93
                             4597.86  4605.82  4612.14  4619.59  4631.33
                             4639.43  4642.32  4656.71  4660.63  5220.40

 Zero-point correction=                           0.433701 (Hartree/Particle)
 Thermal correction to Energy=                    0.458961
 Thermal correction to Enthalpy=                  0.459905
 Thermal correction to Gibbs Free Energy=         0.373746
 Sum of electronic and zero-point Energies=          -1610.220789
 Sum of electronic and thermal Energies=             -1610.195530
 Sum of electronic and thermal Enthalpies=           -1610.194586
 Sum of electronic and thermal Free Energies=        -1610.280745

                     E (Thermal)             CV                S
                      KCal/Mol        Cal/Mol-Kelvin    Cal/Mol-Kelvin
 Total                  288.002             95.303            181.337
 Electronic               0.000              0.000              0.000
 Translational            0.889              2.981             43.761
 Rotational               0.889              2.981             37.338
 Vibrational            286.225             89.341            100.238
 Vibration     1          0.593              1.986              6.692
 Vibration     2          0.593              1.985              6.210
 Vibration     3          0.593              1.984              5.923
 Vibration     4          0.594              1.983              5.543
 Vibration     5          0.595              1.980              5.150
 Vibration     6          0.595              1.980              5.083
 Vibration     7          0.596              1.976              4.673
 Vibration     8          0.596              1.976              4.633
 Vibration     9          0.598              1.970              4.248
 Vibration    10          0.599              1.967              4.077
 Vibration    11          0.602              1.954              3.592
 Vibration    12          0.606              1.941              3.268
 Vibration    13          0.610              1.928              3.017
 Vibration    14          0.616              1.908              2.739
 Vibration    15          0.621              1.893              2.569
 Vibration    16          0.632              1.858              2.263
 Vibration    17          0.649              1.805              1.931
 Vibration    18          0.652              1.797              1.886
 Vibration    19          0.661              1.768              1.753
 Vibration    20          0.670              1.741              1.645
 Vibration    21          0.688              1.688              1.461
 Vibration    22          0.690              1.681              1.440
 Vibration    23          0.711              1.622              1.275
 Vibration    24          0.723              1.586              1.191
 Vibration    25          0.727              1.576              1.168
 Vibration    26          0.734              1.556              1.124
 Vibration    27          0.774              1.448              0.926
 Vibration    28          0.781              1.430              0.897
 Vibration    29          0.784              1.423              0.885
 Vibration    30          0.798              1.388              0.834
 Vibration    31          0.817              1.341              0.769
 Vibration    32          0.846              1.273              0.684
 Vibration    33          0.855              1.250              0.658
 Vibration    34          0.868              1.221              0.627
 Vibration    35          0.881              1.192              0.596
 Vibration    36          0.892              1.168              0.572
 Vibration    37          0.941              1.066              0.478

                           ! Non-Optimized Parameters !
 Normal termination of Gaussian 16 at Wed Mar  2 07:22:08 2022.

 ------------------------------------------
 #p b3lyp/6-31G(d) geom=allcheck guess=read
 ------------------------------------------

 Structure from the checkpoint file:  "327.n.pdb.xyz.mst.wat.chk"
 -------------
 327.n.pdb.xyz
 -------------
 Charge =  0 Multiplicity = 1

 SCF Done:  E(RB3LYP) =  -1610.63396047     A.U. after   11 cycles
 Normal termination of Gaussian 16 at Wed Mar  2 07:27:26 2022.
 Gaussian 16:  ES64L-G16RevA.03 25-Dec-2016

 ----------------------------------------------------------------------
 #p b3lyp/6-31G(d) scrf=(iefpcm,read,solvent=water) geom=allcheck guess
 =read
 ----------------------------------------------------------------------

 Structure from the checkpoint file:  "327.n.pdb.xyz.mst.wat.chk"
 -------------
 327.n.pdb.xyz
 -------------
 Charge =  0 Multiplicity = 1

                         Standard orientation:
 ---------------------------------------------------------------------
 Center     Atomic      Atomic             Coordinates (Angstroms)
 Number     Number       Type             X           Y           Z
 ---------------------------------------------------------------------
      1          8           0       -8.178723   -0.053373    1.117897
      2          6           0       -8.113520    0.811792    0.101343
      3          8           0       -9.053631    1.474525   -0.294363
      4          6           0       -6.743444    0.897660   -0.542213
      5          8           0       -5.798952    0.092126    0.117817
      6          6           0       -4.514263    0.172545   -0.489764
      7          6           0       -3.563339   -0.695209    0.329399
      8          7           0       -2.218848   -0.722892   -0.241531
      9          6           0       -1.440168   -1.856262    0.261841
     10          6           0       -0.069277   -1.907431   -0.404624
     11          7           0        0.673966   -0.666846   -0.145187
     12          6           0       -0.106065    0.461754   -0.669445
     13          6           0       -1.479265    0.519730   -0.010289
     14          6           0        2.032556   -0.702574   -0.713711
     15          6           0        2.823903   -1.914584   -0.223454
     16          6           0        2.942119   -2.216077    1.140269
     17          6           0        3.703796   -3.305116    1.562425
     18          6           0        4.366572   -4.106051    0.627848
     19          6           0        4.255491   -3.813024   -0.731521
     20          6           0        3.485493   -2.725422   -1.151020
     21          6           0        2.807988    0.575890   -0.400799
     22          6           0        2.770957    1.173659    0.865611
     23          6           0        3.528452    2.309335    1.147087
     24          6           0        4.335888    2.847506    0.146348
     25         17           0        5.299096    4.284430    0.493988
     26          6           0        4.392008    2.279001   -1.123083
     27          6           0        3.621072    1.145800   -1.385524
     28          1           0       -9.096529   -0.042456    1.462023
     29          1           0       -6.859733    0.603824   -1.596253
     30          1           0       -6.444610    1.955833   -0.539616
     31          1           0       -4.556860   -0.189316   -1.526640
     32          1           0       -4.183112    1.219917   -0.516061
     33          1           0       -3.563916   -0.344578    1.376727
     34          1           0       -3.951685   -1.718704    0.330825
     35          1           0       -1.985793   -2.779013    0.041940
     36          1           0       -1.304685   -1.800977    1.357708
     37          1           0        0.495812   -2.751053   -0.005980
     38          1           0       -0.199076   -2.071427   -1.489872
     39          1           0        0.427880    1.391716   -0.466847
     40          1           0       -0.231500    0.378412   -1.764015
     41          1           0       -2.038194    1.358245   -0.433479
     42          1           0       -1.356209    0.714299    1.071385
     43          1           0        1.986617   -0.782704   -1.814032
     44          1           0        2.428541   -1.601437    1.871527
     45          1           0        3.781660   -3.528502    2.621886
     46          1           0        4.961007   -4.951454    0.958074
     47          1           0        4.761673   -4.430912   -1.466308
     48          1           0        3.392839   -2.501175   -2.209743
     49          1           0        2.130938    0.756890    1.634795
     50          1           0        3.491965    2.770393    2.126903
     51          1           0        5.018316    2.714417   -1.892465
     52          1           0        3.652921    0.698870   -2.374408
 ---------------------------------------------------------------------

 SCF Done:  E(RB3LYP) =  -1610.65218472     A.U. after   11 cycles

 The electronic state is 1-A.
 Alpha  occ. eigenvalues -- -101.55363 -19.19903 -19.16111 -19.14352 -14.33046
 Alpha  occ. eigenvalues --  -14.32730 -10.32906 -10.25466 -10.24934 -10.23268
 Alpha  occ. eigenvalues --  -10.22736 -10.20798 -10.20517 -10.20488 -10.20475
 Alpha  occ. eigenvalues --  -10.20475 -10.20462 -10.20374 -10.20313 -10.20021
 Alpha  occ. eigenvalues --  -10.19924 -10.19872 -10.19173 -10.19160 -10.19059
 Alpha  occ. eigenvalues --  -10.19045 -10.18950  -9.46992  -7.23371  -7.22430
 Alpha  occ. eigenvalues --   -7.22398  -1.11026  -1.04555  -1.01909  -0.94656
 Alpha  occ. eigenvalues --   -0.91119  -0.89159  -0.85592  -0.84038  -0.78495
 Alpha  occ. eigenvalues --   -0.76942  -0.76081  -0.75891  -0.74554  -0.73741
 Alpha  occ. eigenvalues --   -0.72254  -0.68318  -0.64813  -0.63814  -0.62450
 Alpha  occ. eigenvalues --   -0.61630  -0.60521  -0.60015  -0.59528  -0.57430
 Alpha  occ. eigenvalues --   -0.55311  -0.52165  -0.51838  -0.50948  -0.50299
 Alpha  occ. eigenvalues --   -0.49553  -0.49219  -0.47810  -0.47344  -0.47147
 Alpha  occ. eigenvalues --   -0.46333  -0.46100  -0.45553  -0.44987  -0.44852
 Alpha  occ. eigenvalues --   -0.44142  -0.43410  -0.43157  -0.42177  -0.41959
 Alpha  occ. eigenvalues --   -0.41170  -0.40908  -0.40196  -0.39698  -0.38904
 Alpha  occ. eigenvalues --   -0.38629  -0.37778  -0.37084  -0.36146  -0.35839
 Alpha  occ. eigenvalues --   -0.35574  -0.35037  -0.34506  -0.34223  -0.33637
 Alpha  occ. eigenvalues --   -0.33139  -0.32598  -0.32312  -0.31782  -0.31757
 Alpha  occ. eigenvalues --   -0.28322  -0.26715  -0.26435  -0.25636  -0.25339
 Alpha  occ. eigenvalues --   -0.23667  -0.22392  -0.22082
 Alpha virt. eigenvalues --   -0.02399  -0.01742  -0.00135   0.00538   0.00623
 Alpha virt. eigenvalues --    0.02576   0.07966   0.08975   0.09388   0.10070
 Alpha virt. eigenvalues --    0.10962   0.11926   0.12146   0.12320   0.12909

 Mulliken charges:
               1
     1  O   -0.567145
     2  C    0.579697
     3  O   -0.520836
     4  C   -0.089032
     5  O   -0.502388
     6  C   -0.021458
     7  C   -0.132871
     8  N   -0.433562
     9  C   -0.125487
    10  C   -0.130989
    11  N   -0.432320
    12  C   -0.131265
    13  C   -0.134579
    14  C   -0.076894
    15  C    0.133003
    16  C   -0.178887
    17  C   -0.150242
    18  C   -0.148254
    19  C   -0.149618
    20  C   -0.199959
    21  C    0.132666
    22  C   -0.176323
    23  C   -0.141995
    24  C   -0.073939
    25  Cl  -0.050760
    26  C   -0.141319
    27  C   -0.190947
    28  H    0.463228
    29  H    0.179964
    30  H    0.179108
    31  H    0.142215
    32  H    0.145058
    33  H    0.129631
    34  H    0.155318
    35  H    0.152106
    36  H    0.121881
    37  H    0.159553
    38  H    0.120190
    39  H    0.158182
    40  H    0.122200
    41  H    0.156200
    42  H    0.122719
    43  H    0.129335
    44  H    0.151378
    45  H    0.150547
    46  H    0.149827
    47  H    0.150721
    48  H    0.147142
    49  H    0.166352
    50  H    0.172033
    51  H    0.172472
    52  H    0.158345
 Sum of Mulliken charges =  -0.00000

 Dipole moment (field-independent basis, Debye):
    X=              0.2942    Y=             -2.8019    Z=             -0.4340  Tot=              2.8506
 Quadrupole moment (field-independent basis, Debye-Ang):
   XX=           -192.7702   YY=           -169.0427   ZZ=           -153.6615
   XY=             -3.9403   XZ=            -13.3867   YZ=             -0.6761

 Normal termination of Gaussian 16 at Wed Mar  2 07:34:21 2022.
