 Gaussian 16, Revision A.03,

 ----------------------------------------------------------------------
 #p b3lyp/6-31G(d) opt=(MaxStep=10,MaxCycles=1000) freq scf=(MaxCycle=2
 000,NoVarAcc,NoIncFock) scrf=(iefpcm,read,solvent=water)
 ----------------------------------------------------------------------

 ------------
 34.n.pdb.xyz
 ------------
 Symbolic Z-matrix:
 Charge =  0 Multiplicity = 1

 SCF Done:  E(RB3LYP) =  -235.878672127     A.U. after    9 cycles
 SCF Done:  E(RB3LYP) =  -235.879286189     A.U. after    8 cycles
 SCF Done:  E(RB3LYP) =  -235.879302160     A.U. after    7 cycles
 SCF Done:  E(RB3LYP) =  -235.879298073     A.U. after    6 cycles
 Optimization completed.
    -- Stationary point found.
 Normal termination of Gaussian 16 at Tue Mar  1 20:02:13 2022.

 --------------------------------------------------------------------
 #P Geom=AllCheck Guess=TCheck SCRF=Check GenChk RB3LYP/6-31G(d) Freq
 --------------------------------------------------------------------

 Structure from the checkpoint file:  "34.n.pdb.xyz.mst.wat.chk"
 ------------
 34.n.pdb.xyz
 ------------
 Charge =  0 Multiplicity = 1

 SCF Done:  E(RB3LYP) =  -235.879298073     A.U. after    1 cycles

  Exact polarizability:  82.059   0.008  82.034  -0.007   0.003  79.495
 Approx polarizability:  81.420   0.001  81.423   0.001  -0.001  84.985

                      1                      2                      3
                      A                      A                      A
 Frequencies --    232.8931               237.9792               383.3478
 Red. masses --      1.7655                 1.7691                 1.5482
 Frc consts  --      0.0564                 0.0590                 0.1340
 IR Inten    --      0.0401                 0.0375                 0.0000

                      4                      5                      6
                      A                      A                      A
 Frequencies --    430.5135               433.4004               525.5140
 Red. masses --      2.9741                 2.9930                 1.3154
 Frc consts  --      0.3248                 0.3312                 0.2140
 IR Inten    --      0.0001                 0.0000                 1.8341

                      7                      8                      9
                      A                      A                      A
 Frequencies --    799.0212               803.1240               812.2366
 Red. masses --      1.4453                 1.4460                 3.4716
 Frc consts  --      0.5437                 0.5495                 1.3494
 IR Inten    --      0.0008                 0.0004                 0.0000

                     10                     11                     12
                      A                      A                      A
 Frequencies --    872.6262               873.7495               922.0012
 Red. masses --      2.3668                 2.3643                 1.2938
 Frc consts  --      1.0619                 1.0635                 0.6480
 IR Inten    --      2.8366                 2.9518                 3.7582

                     13                     14                     15
                      A                      A                      A
 Frequencies --    924.6280              1038.0320              1039.8604
 Red. masses --      1.2823                 1.6866                 1.7080
 Frc consts  --      0.6459                 1.0707                 1.0882
 IR Inten    --      3.7803                 0.0016                 0.0062

                     16                     17                     18
                      A                      A                      A
 Frequencies --   1046.7962              1077.2281              1105.7253
 Red. masses --      2.5910                 1.0108                 1.9150
 Frc consts  --      1.6728                 0.6911                 1.3795
 IR Inten    --      3.5932                 0.0006                 0.0015

                     19                     20                     21
                      A                      A                      A
 Frequencies --   1131.1991              1190.7968              1290.5957
 Red. masses --      1.2419                 2.2404                 1.2900
 Frc consts  --      0.9363                 1.8717                 1.2660
 IR Inten    --      0.0009                 0.0001                 3.7611

                     22                     23                     24
                      A                      A                      A
 Frequencies --   1294.1578              1296.1341              1299.7414
 Red. masses --      1.2847                 1.2383                 1.2264
 Frc consts  --      1.2677                 1.2257                 1.2206
 IR Inten    --      3.6587                 0.3227                 0.1376

                     25                     26                     27
                      A                      A                      A
 Frequencies --   1359.7583              1390.1218              1392.1171
 Red. masses --      1.3049                 1.5174                 1.3981
 Frc consts  --      1.4215                 1.7277                 1.5964
 IR Inten    --      0.0013                 0.1183                 0.1391

                     28                     29                     30
                      A                      A                      A
 Frequencies --   1394.5642              1398.4914              1401.8714
 Red. masses --      1.5473                 1.4438                 1.4330
 Frc consts  --      1.7730                 1.6637                 1.6592
 IR Inten    --      0.1544                 4.4535                 4.5496

                     31                     32                     33
                      A                      A                      A
 Frequencies --   1501.0127              1504.7038              1508.1498
 Red. masses --      1.0907                 1.0896                 1.0944
 Frc consts  --      1.4479                 1.4535                 1.4666
 IR Inten    --      0.6802                 0.4163                 6.7317

                     34                     35                     36
                      A                      A                      A
 Frequencies --   1509.7498              1513.5081              1528.9543
 Red. masses --      1.0963                 1.0978                 1.1022
 Frc consts  --      1.4723                 1.4817                 1.5181
 IR Inten    --      4.2858                 5.0728                 0.0533

                     37                     38                     39
                      A                      A                      A
 Frequencies --   3026.7607              3027.9435              3030.3671
 Red. masses --      1.0677                 1.0673                 1.0643
 Frc consts  --      5.7631                 5.7654                 5.7585
 IR Inten    --     52.7809                60.3890                 1.8098

                     40                     41                     42
                      A                      A                      A
 Frequencies --   3030.8167              3031.9784              3033.1863
 Red. masses --      1.0650                 1.0665                 1.0598
 Frc consts  --      5.7642                 5.7767                 5.7445
 IR Inten    --     21.8633                 3.2352               135.5293

                     43                     44                     45
                      A                      A                      A
 Frequencies --   3072.7349              3073.6081              3076.6180
 Red. masses --      1.0951                 1.0952                 1.1033
 Frc consts  --      6.0918                 6.0957                 6.1533
 IR Inten    --    202.9088               204.6922                 7.4925

                     46                     47                     48
                      A                      A                      A
 Frequencies --   3077.2395              3078.5197              3082.0828
 Red. masses --      1.0993                 1.0923                 1.1052
 Frc consts  --      6.1332                 6.0995                 6.1857
 IR Inten    --      4.0514                 2.8251               311.6686

 - Thermochemistry -
 -------------------
 Temperature   298.150 Kelvin.  Pressure   1.00000 Atm.
 Atom     1 has atomic number  6 and mass  12.00000

 Molecular mass:    84.09390 amu.
 Principal axes and moments of inertia in atomic units:
                           1         2         3
     Eigenvalues --   420.54826 420.57539 737.23616
           X            0.99620   0.08709   0.00000
           Y           -0.08709   0.99620  -0.00000
           Z           -0.00000   0.00000   1.00000
 This molecule is an asymmetric top.
 Rotational symmetry number  1.
 Rotational temperatures (Kelvin)      0.20595     0.20594     0.11748
 Rotational constants (GHZ):           4.29140     4.29112     2.44798
 Zero-point vibrational energy     449234.6 (Joules/Mol)
                                  107.36965 (Kcal/Mol)
 Warning -- explicit consideration of   6 degrees of freedom as
           vibrations may cause significant error
 Vibrational temperatures:    335.08   342.40   551.55   619.41   623.57
          (Kelvin)            756.10  1149.61  1155.52  1168.63  1255.51
                             1257.13  1326.55  1330.33  1493.50  1496.13
                             1506.11  1549.89  1590.89  1627.54  1713.29
                             1856.88  1862.00  1864.85  1870.04  1956.39
                             2000.08  2002.95  2006.47  2012.12  2016.98
                             2159.62  2164.93  2169.89  2172.19  2177.60
                             2199.82  4354.83  4356.54  4360.02  4360.67
                             4362.34  4364.08  4420.98  4422.24  4426.57
                             4427.46  4429.30  4434.43

 Zero-point correction=                           0.171104 (Hartree/Particle)
 Thermal correction to Energy=                    0.176798
 Thermal correction to Enthalpy=                  0.177742
 Thermal correction to Gibbs Free Energy=         0.142342
 Sum of electronic and zero-point Energies=           -235.708194
 Sum of electronic and thermal Energies=              -235.702500
 Sum of electronic and thermal Enthalpies=            -235.701556
 Sum of electronic and thermal Free Energies=         -235.736956

                     E (Thermal)             CV                S
                      KCal/Mol        Cal/Mol-Kelvin    Cal/Mol-Kelvin
 Total                  110.942             22.714             74.505
 Electronic               0.000              0.000              0.000
 Translational            0.889              2.981             39.202
 Rotational               0.889              2.981             26.369
 Vibrational            109.165             16.753              8.934
 Vibration     1          0.654              1.791              1.857
 Vibration     2          0.656              1.782              1.818
 Vibration     3          0.753              1.506              1.026
 Vibration     4          0.792              1.404              0.857
 Vibration     5          0.794              1.397              0.848
 Vibration     6          0.880              1.194              0.597

 Optimization completed.
    -- Stationary point found.
 Normal termination of Gaussian 16 at Tue Mar  1 20:05:59 2022.

 ------------------------------------------
 #p b3lyp/6-31G(d) geom=allcheck guess=read
 ------------------------------------------

 Structure from the checkpoint file:  "34.n.pdb.xyz.mst.wat.chk"
 ------------
 34.n.pdb.xyz
 ------------
 Charge =  0 Multiplicity = 1

 SCF Done:  E(RB3LYP) =  -235.880416076     A.U. after    6 cycles
 Normal termination of Gaussian 16 at Tue Mar  1 20:06:13 2022.
 Gaussian 16:  ES64L-G16RevA.03 25-Dec-2016

 ----------------------------------------------------------------------
 #p b3lyp/6-31G(d) scrf=(iefpcm,read,solvent=water) geom=allcheck guess
 =read
 ----------------------------------------------------------------------

 Structure from the checkpoint file:  "34.n.pdb.xyz.mst.wat.chk"
 ------------
 34.n.pdb.xyz
 ------------
 Charge =  0 Multiplicity = 1

                         Standard orientation:
 ---------------------------------------------------------------------
 Center     Atomic      Atomic             Coordinates (Angstroms)
 Number     Number       Type             X           Y           Z
 ---------------------------------------------------------------------
      1          6           0       -1.372350    0.514055   -0.229191
      2          6           0       -1.131162   -0.931304    0.229238
      3          6           0        0.240844   -1.445292   -0.229253
      4          6           0        1.372266   -0.514139    0.229171
      5          6           0        1.131342    0.931396   -0.229202
      6          6           0       -0.240916    1.445331    0.229212
      7          1           0       -1.434754    0.537430   -1.326102
      8          1           0       -2.337044    0.875466    0.146308
      9          1           0       -1.926365   -1.586132   -0.146076
     10          1           0       -1.182596   -0.973744    1.326060
     11          1           0        0.410011   -2.461446    0.146146
     12          1           0        0.251609   -1.511043   -1.326154
     13          1           0        2.336771   -0.875673   -0.146278
     14          1           0        1.434665   -0.537693    1.326034
     15          1           0        1.182946    0.973904   -1.326092
     16          1           0        1.926549    1.586118    0.146416
     17          1           0       -0.410137    2.461355   -0.146224
     18          1           0       -0.251802    1.511175    1.326113
 ---------------------------------------------------------------------

 SCF Done:  E(RB3LYP) =  -235.879218183     A.U. after    6 cycles

 The electronic state is 1-A.
 Alpha  occ. eigenvalues --  -10.17164 -10.17155 -10.17154 -10.17134 -10.17133
 Alpha  occ. eigenvalues --  -10.17122  -0.81900  -0.73074  -0.73071  -0.59826
 Alpha  occ. eigenvalues --   -0.59822  -0.54206  -0.47020  -0.43403  -0.42714
 Alpha  occ. eigenvalues --   -0.42713  -0.36961  -0.36960  -0.36232  -0.33361
 Alpha  occ. eigenvalues --   -0.33359  -0.30844  -0.29073  -0.29068
 Alpha virt. eigenvalues --    0.08980   0.11539   0.13822   0.13823   0.16745
 Alpha virt. eigenvalues --    0.17592   0.17594   0.17656   0.18929   0.18930
 Alpha virt. eigenvalues --    0.19080   0.19081   0.24317   0.24319   0.25650

 Mulliken charges:
               1
     1  C   -0.257852
     2  C   -0.257796
     3  C   -0.257798
     4  C   -0.257851
     5  C   -0.257865
     6  C   -0.257814
     7  H    0.128452
     8  H    0.129367
     9  H    0.129354
    10  H    0.128461
    11  H    0.129359
    12  H    0.128444
    13  H    0.129391
    14  H    0.128464
    15  H    0.128460
    16  H    0.129386
    17  H    0.129385
    18  H    0.128452
 Sum of Mulliken charges =  -0.00000

 Dipole moment (field-independent basis, Debye):
    X=              0.0001    Y=             -0.0001    Z=              0.0002  Tot=              0.0002
 Quadrupole moment (field-independent basis, Debye-Ang):
   XX=            -40.0588   YY=            -40.0574   ZZ=            -39.3891
   XY=              0.0004   XZ=              0.0001   YZ=             -0.0004

 Normal termination of Gaussian 16 at Tue Mar  1 20:06:32 2022.
