 Gaussian 16, Revision A.03,

 ----------------------------------------------------------------------
 #p b3lyp/6-31G(d) opt=(MaxStep=10,MaxCycles=1000) freq scf=(MaxCycle=2
 000,NoVarAcc,NoIncFock) scrf=(iefpcm,read,solvent=water)
 ----------------------------------------------------------------------

 ------------
 36.n.pdb.xyz
 ------------
 Symbolic Z-matrix:
 Charge =  0 Multiplicity = 1

 SCF Done:  E(RB3LYP) =  -830.715471028     A.U. after   12 cycles
 SCF Done:  E(RB3LYP) =  -830.718239294     A.U. after   10 cycles
 SCF Done:  E(RB3LYP) =  -830.715191863     A.U. after   11 cycles
 SCF Done:  E(RB3LYP) =  -830.718896433     A.U. after   10 cycles
 SCF Done:  E(RB3LYP) =  -830.718949782     A.U. after   10 cycles
 SCF Done:  E(RB3LYP) =  -830.718949505     A.U. after    9 cycles
 SCF Done:  E(RB3LYP) =  -830.718961188     A.U. after    8 cycles
 SCF Done:  E(RB3LYP) =  -830.718968084     A.U. after    8 cycles
 SCF Done:  E(RB3LYP) =  -830.718971110     A.U. after    7 cycles
 SCF Done:  E(RB3LYP) =  -830.718970708     A.U. after    6 cycles
 SCF Done:  E(RB3LYP) =  -830.718970777     A.U. after    6 cycles
 Optimization completed.
    -- Stationary point found.
 Normal termination of Gaussian 16 at Wed Mar  2 01:01:05 2022.

 --------------------------------------------------------------------
 #P Geom=AllCheck Guess=TCheck SCRF=Check GenChk RB3LYP/6-31G(d) Freq
 --------------------------------------------------------------------

 Structure from the checkpoint file:  "36.n.pdb.xyz.mst.wat.chk"
 ------------
 36.n.pdb.xyz
 ------------
 Charge =  0 Multiplicity = 1

 SCF Done:  E(RB3LYP) =  -830.718970777     A.U. after    1 cycles

  Exact polarizability: 335.924   0.601 329.711 -31.666  14.327 218.118
 Approx polarizability: 354.785  -7.656 357.223 -37.845  18.053 247.282

                      1                      2                      3
                      A                      A                      A
 Frequencies --     27.8251                32.2441                39.1775
 Red. masses --      3.5577                 2.8281                 4.1180
 Frc consts  --      0.0016                 0.0017                 0.0037
 IR Inten    --      0.3005                 0.4756                 0.0537

                      4                      5                      6
                      A                      A                      A
 Frequencies --     49.5506                93.0680               107.1030
 Red. masses --      4.3756                 3.8737                 3.7968
 Frc consts  --      0.0063                 0.0198                 0.0257
 IR Inten    --      0.1946                 0.1729                 0.1891

                      7                      8                      9
                      A                      A                      A
 Frequencies --    115.9104               140.9938               164.1977
 Red. masses --      2.5456                 2.6683                 3.2548
 Frc consts  --      0.0202                 0.0313                 0.0517
 IR Inten    --      0.3411                 0.1670                 2.0110

                     10                     11                     12
                      A                      A                      A
 Frequencies --    191.0150               219.0363               247.3089
 Red. masses --      3.6172                 2.4734                 1.1395
 Frc consts  --      0.0778                 0.0699                 0.0411
 IR Inten    --      0.8788                 0.7341                 1.8937

                     13                     14                     15
                      A                      A                      A
 Frequencies --    254.0644               271.9060               275.6496
 Red. masses --      2.2727                 1.5559                 2.6279
 Frc consts  --      0.0864                 0.0678                 0.1176
 IR Inten    --      0.8251                 1.5538                 0.7147

                     16                     17                     18
                      A                      A                      A
 Frequencies --    316.7937               327.3138               342.7388
 Red. masses --      2.9222                 4.3626                 2.8394
 Frc consts  --      0.1728                 0.2754                 0.1965
 IR Inten    --      1.0345                 0.4048                 3.1222

                     19                     20                     21
                      A                      A                      A
 Frequencies --    371.0294               398.6029               423.4456
 Red. masses --      2.4196                 2.6800                 3.1794
 Frc consts  --      0.1963                 0.2509                 0.3359
 IR Inten    --     10.5121                 1.2340                 0.8888

                     22                     23                     24
                      A                      A                      A
 Frequencies --    442.6907               466.7406               472.7726
 Red. masses --      2.7915                 2.9947                 3.0735
 Frc consts  --      0.3223                 0.3844                 0.4048
 IR Inten    --      1.5166                 3.8504                 1.4604

                     25                     26                     27
                      A                      A                      A
 Frequencies --    482.1311               510.0532               539.4223
 Red. masses --      3.4803                 3.4361                 4.2654
 Frc consts  --      0.4766                 0.5267                 0.7313
 IR Inten    --      2.0552                 7.6152                 0.5065

                     28                     29                     30
                      A                      A                      A
 Frequencies --    545.6720               592.9561               610.8348
 Red. masses --      3.8305                 3.3392                 3.6339
 Frc consts  --      0.6720                 0.6917                 0.7989
 IR Inten    --      5.4686                 2.4238                13.0926

                     31                     32                     33
                      A                      A                      A
 Frequencies --    645.1756               671.5579               700.1276
 Red. masses --      5.1691                 4.8501                 4.6086
 Frc consts  --      1.2677                 1.2887                 1.3310
 IR Inten    --     14.3802                 1.0201                 2.5851

                     34                     35                     36
                      A                      A                      A
 Frequencies --    735.4591               760.1934               774.3699
 Red. masses --      3.2933                 1.9977                 1.4655
 Frc consts  --      1.0496                 0.6802                 0.5177
 IR Inten    --      3.4729                16.9186                42.8777

                     37                     38                     39
                      A                      A                      A
 Frequencies --    786.6506               790.8402               793.4805
 Red. masses --      2.1602                 1.7734                 2.3719
 Frc consts  --      0.7876                 0.6535                 0.8799
 IR Inten    --     34.3581                 3.9273                35.0631

                     40                     41                     42
                      A                      A                      A
 Frequencies --    816.4918               861.7935               884.8256
 Red. masses --      2.2421                 2.9374                 1.3993
 Frc consts  --      0.8807                 1.2854                 0.6455
 IR Inten    --      2.2650                30.5742                 5.9414

                     43                     44                     45
                      A                      A                      A
 Frequencies --    896.8057               910.6380               919.9238
 Red. masses --      1.5060                 2.2797                 1.5002
 Frc consts  --      0.7136                 1.1138                 0.7480
 IR Inten    --      1.3649                 5.2148                27.3698

                     46                     47                     48
                      A                      A                      A
 Frequencies --    936.4735               960.6968               964.0654
 Red. masses --      2.7822                 1.4481                 1.4096
 Frc consts  --      1.4376                 0.7874                 0.7719
 IR Inten    --      0.6982                 3.9735                 2.3282

                     49                     50                     51
                      A                      A                      A
 Frequencies --    982.2497               993.7744               994.1737
 Red. masses --      2.1447                 1.2652                 1.2570
 Frc consts  --      1.2191                 0.7362                 0.7320
 IR Inten    --      2.3815                 0.0629                 0.0829

                     52                     53                     54
                      A                      A                      A
 Frequencies --   1023.1964              1038.1781              1049.0970
 Red. masses --      2.2696                 2.9550                 2.5618
 Frc consts  --      1.4000                 1.8765                 1.6612
 IR Inten    --      4.9354                22.9557                 5.1445

                     55                     56                     57
                      A                      A                      A
 Frequencies --   1063.7578              1066.0845              1074.4982
 Red. masses --      1.9314                 2.1974                 2.0542
 Frc consts  --      1.2877                 1.4714                 1.3974
 IR Inten    --     43.3569                11.6032                45.9809

                     58                     59                     60
                      A                      A                      A
 Frequencies --   1081.3296              1110.5853              1127.9526
 Red. masses --      2.2276                 2.3385                 1.6601
 Frc consts  --      1.5346                 1.6994                 1.2444
 IR Inten    --      5.5016                 3.2837                 6.6407

                     61                     62                     63
                      A                      A                      A
 Frequencies --   1130.9721              1135.2757              1178.0969
 Red. masses --      1.5952                 1.8162                 1.4890
 Frc consts  --      1.2022                 1.3792                 1.2176
 IR Inten    --     13.4244                 4.0702                 7.3248

                     64                     65                     66
                      A                      A                      A
 Frequencies --   1184.2766              1188.3341              1188.9448
 Red. masses --      1.3396                 1.5443                 1.1005
 Frc consts  --      1.1070                 1.2849                 0.9166
 IR Inten    --      2.1239                 1.4298                 1.4963

                     67                     68                     69
                      A                      A                      A
 Frequencies --   1196.2399              1205.9213              1208.4000
 Red. masses --      1.2361                 1.9598                 1.7773
 Frc consts  --      1.0422                 1.6792                 1.5291
 IR Inten    --      4.0722                 1.1878                21.3890

                     70                     71                     72
                      A                      A                      A
 Frequencies --   1234.8000              1247.5390              1260.7215
 Red. masses --      2.3464                 1.3749                 1.6011
 Frc consts  --      2.1079                 1.2608                 1.4994
 IR Inten    --      1.3601                 5.7112                10.6952

                     73                     74                     75
                      A                      A                      A
 Frequencies --   1281.8658              1301.5474              1309.0935
 Red. masses --      1.6360                 2.3043                 1.6366
 Frc consts  --      1.5839                 2.2999                 1.6524
 IR Inten    --      1.8491                20.9574                 5.5675

                     76                     77                     78
                      A                      A                      A
 Frequencies --   1315.0207              1321.2942              1339.4902
 Red. masses --      1.6647                 1.4897                 5.8486
 Frc consts  --      1.6961                 1.5323                 6.1828
 IR Inten    --      3.3357                 7.9199                 1.3504

                     79                     80                     81
                      A                      A                      A
 Frequencies --   1352.9535              1357.2785              1377.4644
 Red. masses --      1.2859                 3.6175                 1.5226
 Frc consts  --      1.3868                 3.9264                 1.7021
 IR Inten    --     12.7846                 2.2819                 6.5917

                     82                     83                     84
                      A                      A                      A
 Frequencies --   1395.2887              1403.8592              1422.3913
 Red. masses --      1.4903                 1.6384                 1.4007
 Frc consts  --      1.7095                 1.9025                 1.6697
 IR Inten    --      7.0216                24.9753                32.3769

                     85                     86                     87
                      A                      A                      A
 Frequencies --   1459.7718              1483.9242              1484.7461
 Red. masses --      1.1616                 1.7852                 1.3069
 Frc consts  --      1.4584                 2.3161                 1.6975
 IR Inten    --      3.8839                10.4861                 1.2187

                     88                     89                     90
                      A                      A                      A
 Frequencies --   1489.4547              1491.6139              1496.3861
 Red. masses --      1.1528                 1.5717                 1.1170
 Frc consts  --      1.5069                 2.0603                 1.4736
 IR Inten    --      3.1618                 3.4007                 2.9219

                     91                     92                     93
                      A                      A                      A
 Frequencies --   1500.1327              1503.9707              1510.9222
 Red. masses --      1.4675                 1.0459                 1.0543
 Frc consts  --      1.9457                 1.3938                 1.4180
 IR Inten    --      8.2503                13.4274                10.6863

                     94                     95                     96
                      A                      A                      A
 Frequencies --   1518.3092              1523.5285              1528.4501
 Red. masses --      1.0556                 1.0988                 2.3201
 Frc consts  --      1.4338                 1.5027                 3.1934
 IR Inten    --     13.8062                 6.2375                35.4190

                     97                     98                     99
                      A                      A                      A
 Frequencies --   1529.1942              1531.8904              1622.3319
 Red. masses --      2.6892                 1.0558                 5.8717
 Frc consts  --      3.7051                 1.4598                 9.1053
 IR Inten    --      7.3520                 8.0590                 2.5946

                    100                    101                    102
                      A                      A                      A
 Frequencies --   1631.0172              1653.4634              1656.9936
 Red. masses --      6.0160                 5.6378                 5.9752
 Frc consts  --      9.4292                 9.0813                 9.6660
 IR Inten    --      0.4748                 1.3708                 2.1934

                    103                    104                    105
                      A                      A                      A
 Frequencies --   1698.6960              2935.4753              2946.7234
 Red. masses --      7.5795                 1.0720                 1.0615
 Frc consts  --     12.8860                 5.4424                 5.4307
 IR Inten    --      2.7255                95.3348               126.0189

                    106                    107                    108
                      A                      A                      A
 Frequencies --   2962.7373              3035.8694              3046.5994
 Red. masses --      1.0609                 1.0655                 1.0676
 Frc consts  --      5.4868                 5.7861                 5.8383
 IR Inten    --    222.5224                46.8937                34.4585

                    109                    110                    111
                      A                      A                      A
 Frequencies --   3058.7256              3077.4868              3085.0262
 Red. masses --      1.0653                 1.0942                 1.0854
 Frc consts  --      5.8720                 6.1055                 6.0862
 IR Inten    --     29.0569                80.4413                47.5854

                    112                    113                    114
                      A                      A                      A
 Frequencies --   3088.0113              3099.2327              3109.5294
 Red. masses --      1.0723                 1.0701                 1.1012
 Frc consts  --      6.0247                 6.0560                 6.2734
 IR Inten    --     73.7252                60.9322                57.0949

                    115                    116                    117
                      A                      A                      A
 Frequencies --   3125.2799              3133.0594              3144.2381
 Red. masses --      1.0946                 1.1044                 1.1029
 Frc consts  --      6.2991                 6.3873                 6.4244
 IR Inten    --     28.7771                58.2965                57.2804

                    118                    119                    120
                      A                      A                      A
 Frequencies --   3167.0686              3189.8730              3191.0577
 Red. masses --      1.0876                 1.0873                 1.0872
 Frc consts  --      6.4273                 6.5183                 6.5228
 IR Inten    --     46.5184                22.8368                19.5301

                    121                    122                    123
                      A                      A                      A
 Frequencies --   3200.2480              3204.1187              3210.4867
 Red. masses --      1.0874                 1.0872                 1.0923
 Frc consts  --      6.5618                 6.5760                 6.6331
 IR Inten    --      4.2538                 8.7064                50.7679

                    124                    125                    126
                      A                      A                      A
 Frequencies --   3215.3786              3222.4901              3225.9202
 Red. masses --      1.0918                 1.0974                 1.0972
 Frc consts  --      6.6504                 6.7140                 6.7271
 IR Inten    --     48.1988                48.1938                43.4496

 - Thermochemistry -
 -------------------
 Temperature   298.150 Kelvin.  Pressure   1.00000 Atm.
 Atom     1 has atomic number  6 and mass  12.00000

 Molecular mass:   277.18305 amu.
 Principal axes and moments of inertia in atomic units:
                           1         2         3
     Eigenvalues --  4495.161508919.60722**********
           X            0.99976  -0.02151  -0.00340
           Y            0.02153   0.99975   0.00519
           Z            0.00328  -0.00527   0.99998
 This molecule is an asymmetric top.
 Rotational symmetry number  1.
 Warning -- assumption of classical behavior for rotation
           may cause significant error
 Rotational temperatures (Kelvin)      0.01927     0.00971     0.00733
 Rotational constants (GHZ):           0.40149     0.20233     0.15278
 Zero-point vibrational energy    1004942.1 (Joules/Mol)
                                  240.18692 (Kcal/Mol)
 Warning -- explicit consideration of  30 degrees of freedom as
           vibrations may cause significant error
 Vibrational temperatures:     40.03    46.39    56.37    71.29   133.90
          (Kelvin)            154.10   166.77   202.86   236.24   274.83
                              315.14   355.82   365.54   391.21   396.60
                              455.80   470.93   493.12   533.83   573.50
                              609.24   636.93   671.54   680.21   693.68
                              733.85   776.11   785.10   853.13   878.86
                              928.26   966.22  1007.33  1058.16  1093.75
                             1114.15  1131.81  1137.84  1141.64  1174.75
                             1239.93  1273.07  1290.30  1310.21  1323.57
                             1347.38  1382.23  1387.08  1413.24  1429.82
                             1430.39  1472.15  1493.71  1509.42  1530.51
                             1533.86  1545.96  1555.79  1597.88  1622.87
                             1627.22  1633.41  1695.02  1703.91  1709.75
                             1710.63  1721.12  1735.05  1738.62  1776.60
                             1794.93  1813.90  1844.32  1872.64  1883.49
                             1892.02  1901.05  1927.23  1946.60  1952.82
                             1981.86  2007.51  2019.84  2046.50  2100.29
                             2135.04  2136.22  2142.99  2146.10  2152.97
                             2158.36  2163.88  2173.88  2184.51  2192.02
                             2199.10  2200.17  2204.05  2334.17  2346.67
                             2378.97  2384.04  2444.04  4223.49  4239.68
                             4262.72  4367.94  4383.38  4400.82  4427.82
                             4438.66  4442.96  4459.10  4473.92  4496.58
                             4507.77  4523.86  4556.71  4589.52  4591.22
                             4604.44  4610.01  4619.17  4626.21  4636.44
                             4641.38

 Zero-point correction=                           0.382762 (Hartree/Particle)
 Thermal correction to Energy=                    0.401643
 Thermal correction to Enthalpy=                  0.402587
 Thermal correction to Gibbs Free Energy=         0.334568
 Sum of electronic and zero-point Energies=           -830.336209
 Sum of electronic and thermal Energies=              -830.317328
 Sum of electronic and thermal Enthalpies=            -830.316383
 Sum of electronic and thermal Free Energies=         -830.384403

                     E (Thermal)             CV                S
                      KCal/Mol        Cal/Mol-Kelvin    Cal/Mol-Kelvin
 Total                  252.035             74.825            143.159
 Electronic               0.000              0.000              0.000
 Translational            0.889              2.981             42.757
 Rotational               0.889              2.981             34.515
 Vibrational            250.257             68.864             65.887
 Vibration     1          0.593              1.984              5.979
 Vibration     2          0.594              1.983              5.686
 Vibration     3          0.594              1.981              5.300
 Vibration     4          0.595              1.978              4.835
 Vibration     5          0.602              1.954              3.595
 Vibration     6          0.606              1.944              3.321
 Vibration     7          0.608              1.936              3.167
 Vibration     8          0.615              1.912              2.790
 Vibration     9          0.623              1.886              2.501
 Vibration    10          0.634              1.852              2.218
 Vibration    11          0.647              1.812              1.967
 Vibration    12          0.661              1.767              1.750
 Vibration    13          0.665              1.756              1.702
 Vibration    14          0.675              1.725              1.584
 Vibration    15          0.677              1.718              1.561
 Vibration    16          0.704              1.642              1.327
 Vibration    17          0.711              1.621              1.273
 Vibration    18          0.722              1.590              1.199
 Vibration    19          0.743              1.532              1.076
 Vibration    20          0.765              1.473              0.968
 Vibration    21          0.786              1.419              0.880
 Vibration    22          0.802              1.377              0.818
 Vibration    23          0.824              1.324              0.747
 Vibration    24          0.830              1.310              0.730
 Vibration    25          0.838              1.290              0.704
 Vibration    26          0.865              1.228              0.633
 Vibration    27          0.894              1.163              0.567
 Vibration    28          0.901              1.149              0.553
 Vibration    29          0.951              1.047              0.462
 Vibration    30          0.970              1.009              0.431

 Optimization completed.
    -- Stationary point found.
 Normal termination of Gaussian 16 at Wed Mar  2 02:06:42 2022.

 ------------------------------------------
 #p b3lyp/6-31G(d) geom=allcheck guess=read
 ------------------------------------------

 Structure from the checkpoint file:  "36.n.pdb.xyz.mst.wat.chk"
 ------------
 36.n.pdb.xyz
 ------------
 Charge =  0 Multiplicity = 1

 SCF Done:  E(RB3LYP) =  -830.713760204     A.U. after   11 cycles
 Normal termination of Gaussian 16 at Wed Mar  2 02:10:45 2022.
 Gaussian 16:  ES64L-G16RevA.03 25-Dec-2016

 ----------------------------------------------------------------------
 #p b3lyp/6-31G(d) scrf=(iefpcm,read,solvent=water) geom=allcheck guess
 =read
 ----------------------------------------------------------------------

 Structure from the checkpoint file:  "36.n.pdb.xyz.mst.wat.chk"
 ------------
 36.n.pdb.xyz
 ------------
 Charge =  0 Multiplicity = 1

                         Standard orientation:
 ---------------------------------------------------------------------
 Center     Atomic      Atomic             Coordinates (Angstroms)
 Number     Number       Type             X           Y           Z
 ---------------------------------------------------------------------
      1          6           0        5.032343   -0.938403    1.427883
      2          7           0        4.491135   -0.492032    0.148224
      3          6           0        5.399539   -0.859797   -0.932823
      4          6           0        3.150301   -1.026261   -0.101775
      5          6           0        2.073289   -0.387173    0.789156
      6          6           0        0.713793   -0.971231    0.541881
      7          6           0       -0.388699   -0.326303    0.110273
      8          6           0       -0.376871    1.128989   -0.223322
      9          6           0        0.418572    1.627281   -1.263913
     10          6           0        0.427245    2.989931   -1.568205
     11          6           0       -0.365503    3.869866   -0.830844
     12          6           0       -1.164352    3.378829    0.203724
     13          6           0       -1.181875    2.015884    0.514864
     14          6           0       -2.066149    1.465773    1.603297
     15          6           0       -3.244312    0.657885    1.040843
     16          6           0       -2.938547   -0.647248    0.318833
     17          6           0       -4.045289   -1.474760    0.068450
     18          6           0       -3.929363   -2.705007   -0.569914
     19          6           0       -2.668748   -3.143176   -0.978019
     20          6           0       -1.559534   -2.339724   -0.739831
     21          6           0       -1.660041   -1.091221   -0.091371
     22          1           0        5.128352   -2.039151    1.488938
     23          1           0        6.025029   -0.503131    1.571844
     24          1           0        4.394995   -0.607579    2.251215
     25          1           0        5.015932   -0.480028   -1.884530
     26          1           0        5.535361   -1.952457   -1.029940
     27          1           0        6.382647   -0.414392   -0.752045
     28          1           0        2.905276   -0.820784   -1.149135
     29          1           0        3.128346   -2.126522    0.018758
     30          1           0        2.067132    0.692617    0.624608
     31          1           0        2.335365   -0.555948    1.841461
     32          1           0        0.615928   -2.032666    0.764000
     33          1           0        1.026465    0.939530   -1.842988
     34          1           0        1.048463    3.358919   -2.377837
     35          1           0       -0.363750    4.930861   -1.059012
     36          1           0       -1.782356    4.059009    0.783325
     37          1           0       -2.469336    2.289894    2.198879
     38          1           0       -1.480559    0.834225    2.281318
     39          1           0       -3.930792    0.426300    1.863417
     40          1           0       -3.811246    1.307454    0.360480
     41          1           0       -5.022736   -1.134895    0.399267
     42          1           0       -4.810491   -3.313038   -0.746289
     43          1           0       -2.551088   -4.095348   -1.484920
     44          1           0       -0.579691   -2.663450   -1.073515
 ---------------------------------------------------------------------

 SCF Done:  E(RB3LYP) =  -830.718521814     A.U. after   10 cycles

 The electronic state is 1-A.
 Alpha  occ. eigenvalues --  -14.32549 -10.20547 -10.20051 -10.19925 -10.19737
 Alpha  occ. eigenvalues --  -10.19727 -10.19675 -10.19607 -10.19387 -10.18948
 Alpha  occ. eigenvalues --  -10.18898 -10.18890 -10.18815 -10.18808 -10.18799
 Alpha  occ. eigenvalues --  -10.18738 -10.18726 -10.18668 -10.18552 -10.18522
 Alpha  occ. eigenvalues --  -10.18199  -0.91819  -0.87308  -0.85209  -0.80997
 Alpha  occ. eigenvalues --   -0.79701  -0.76255  -0.75477  -0.74347  -0.71842
 Alpha  occ. eigenvalues --   -0.70053  -0.69894  -0.65332  -0.64089  -0.61492
 Alpha  occ. eigenvalues --   -0.59662  -0.58654  -0.57575  -0.56587  -0.53979
 Alpha  occ. eigenvalues --   -0.50536  -0.49500  -0.47838  -0.47128  -0.46974
 Alpha  occ. eigenvalues --   -0.45978  -0.45511  -0.44918  -0.44654  -0.43255
 Alpha  occ. eigenvalues --   -0.42618  -0.41916  -0.41348  -0.40567  -0.39108
 Alpha  occ. eigenvalues --   -0.38855  -0.38614  -0.38120  -0.37738  -0.36622
 Alpha  occ. eigenvalues --   -0.36328  -0.35592  -0.35257  -0.34669  -0.33903
 Alpha  occ. eigenvalues --   -0.33709  -0.32991  -0.32853  -0.31949  -0.28158
 Alpha  occ. eigenvalues --   -0.24791  -0.24412  -0.23761  -0.22402  -0.21552
 Alpha virt. eigenvalues --   -0.02578  -0.00693   0.00174   0.00276   0.03995
 Alpha virt. eigenvalues --    0.08333   0.10032   0.10953   0.11148   0.12048
 Alpha virt. eigenvalues --    0.12746   0.13621   0.13998   0.14804   0.15139

 Mulliken charges:
               1
     1  C   -0.312004
     2  N   -0.404591
     3  C   -0.303805
     4  C   -0.117382
     5  C   -0.315297
     6  C   -0.156617
     7  C   -0.012826
     8  C    0.033060
     9  C   -0.186355
    10  C   -0.158674
    11  C   -0.143640
    12  C   -0.221090
    13  C    0.137960
    14  C   -0.359049
    15  C   -0.341702
    16  C    0.121313
    17  C   -0.208430
    18  C   -0.145053
    19  C   -0.158693
    20  C   -0.191480
    21  C    0.041446
    22  H    0.124659
    23  H    0.156502
    24  H    0.161368
    25  H    0.156115
    26  H    0.124900
    27  H    0.154951
    28  H    0.148011
    29  H    0.119039
    30  H    0.152317
    31  H    0.157766
    32  H    0.141544
    33  H    0.148083
    34  H    0.147796
    35  H    0.147256
    36  H    0.143935
    37  H    0.154145
    38  H    0.158373
    39  H    0.162378
    40  H    0.163293
    41  H    0.141664
    42  H    0.147187
    43  H    0.147081
    44  H    0.144545
 Sum of Mulliken charges =  -0.00000

 Dipole moment (field-independent basis, Debye):
    X=              0.0633    Y=             -0.5892    Z=              0.5300  Tot=              0.7950
 Quadrupole moment (field-independent basis, Debye-Ang):
   XX=           -113.8975   YY=           -117.3906   ZZ=           -122.4084
   XY=             -5.8076   XZ=             -4.7363   YZ=              1.7471

 Normal termination of Gaussian 16 at Wed Mar  2 02:15:27 2022.
