 Gaussian 16, Revision A.03,

 ----------------------------------------------------------------------
 #p b3lyp/6-31G(d) opt=(MaxStep=10,MaxCycles=1000) freq scf=(MaxCycle=2
 000,NoVarAcc,NoIncFock) scrf=(iefpcm,read,solvent=water)
 ----------------------------------------------------------------------

 ------------
 37.n.pdb.xyz
 ------------
 Symbolic Z-matrix:
 Charge =  0 Multiplicity = 1

 SCF Done:  E(RB3LYP) =  -806.700914021     A.U. after   13 cycles
 SCF Done:  E(RB3LYP) =  -806.704005832     A.U. after   10 cycles
 SCF Done:  E(RB3LYP) =  -806.702611014     A.U. after   10 cycles
 SCF Done:  E(RB3LYP) =  -806.704483368     A.U. after   10 cycles
 SCF Done:  E(RB3LYP) =  -806.704984374     A.U. after   10 cycles
 SCF Done:  E(RB3LYP) =  -806.704926074     A.U. after   10 cycles
 SCF Done:  E(RB3LYP) =  -806.705148919     A.U. after    9 cycles
 SCF Done:  E(RB3LYP) =  -806.705088439     A.U. after   10 cycles
 SCF Done:  E(RB3LYP) =  -806.705174214     A.U. after    9 cycles
 SCF Done:  E(RB3LYP) =  -806.705166864     A.U. after    9 cycles
 SCF Done:  E(RB3LYP) =  -806.705275304     A.U. after    8 cycles
 SCF Done:  E(RB3LYP) =  -806.705279741     A.U. after    7 cycles
 SCF Done:  E(RB3LYP) =  -806.705285401     A.U. after    9 cycles
 SCF Done:  E(RB3LYP) =  -806.705273571     A.U. after    9 cycles
 SCF Done:  E(RB3LYP) =  -806.705272150     A.U. after   10 cycles
 SCF Done:  E(RB3LYP) =  -806.705284759     A.U. after    8 cycles
 SCF Done:  E(RB3LYP) =  -806.705284547     A.U. after    6 cycles
 Optimization completed.
    -- Stationary point found.
 Normal termination of Gaussian 16 at Wed Mar  2 05:31:17 2022.

 --------------------------------------------------------------------
 #P Geom=AllCheck Guess=TCheck SCRF=Check GenChk RB3LYP/6-31G(d) Freq
 --------------------------------------------------------------------

 Structure from the checkpoint file:  "37.n.pdb.xyz.mst.wat.chk"
 ------------
 37.n.pdb.xyz
 ------------
 Charge =  0 Multiplicity = 1

 SCF Done:  E(RB3LYP) =  -806.705284547     A.U. after    1 cycles

  Exact polarizability: 262.634  -6.797 226.871 -14.673  -7.968 165.322
 Approx polarizability: 265.545 -10.628 251.951 -18.184  -6.898 184.114

                      1                      2                      3
                      A                      A                      A
 Frequencies --     17.7424                23.0343                35.2524
 Red. masses --      4.3447                 3.3405                 3.5814
 Frc consts  --      0.0008                 0.0010                 0.0026
 IR Inten    --      0.2592                 0.6517                 4.6484

                      4                      5                      6
                      A                      A                      A
 Frequencies --     50.4586                73.6772                75.3412
 Red. masses --      1.8772                 2.2950                 2.3826
 Frc consts  --      0.0028                 0.0073                 0.0080
 IR Inten    --      1.4232                 0.3495                 0.8656

                      7                      8                      9
                      A                      A                      A
 Frequencies --     89.4518                96.4488               117.5514
 Red. masses --      2.4658                 3.6824                 3.8226
 Frc consts  --      0.0116                 0.0202                 0.0311
 IR Inten    --      3.3916                 3.6322                 1.1210

                     10                     11                     12
                      A                      A                      A
 Frequencies --    167.3038               182.6305               221.1454
 Red. masses --      3.4155                 3.3729                 1.5564
 Frc consts  --      0.0563                 0.0663                 0.0448
 IR Inten    --      1.5789                 2.0510                 0.5247

                     13                     14                     15
                      A                      A                      A
 Frequencies --    223.1075               244.4145               250.5966
 Red. masses --      1.1831                 1.4461                 1.3221
 Frc consts  --      0.0347                 0.0509                 0.0489
 IR Inten    --      0.4768                 1.3760                 0.2727

                     16                     17                     18
                      A                      A                      A
 Frequencies --    257.4629               264.5559               272.9282
 Red. masses --      1.4697                 2.6210                 2.0688
 Frc consts  --      0.0574                 0.1081                 0.0908
 IR Inten    --      0.7584                 2.6254                 0.4071

                     19                     20                     21
                      A                      A                      A
 Frequencies --    299.6254               346.4298               349.8715
 Red. masses --      2.2304                 3.4150                 3.2283
 Frc consts  --      0.1180                 0.2415                 0.2328
 IR Inten    --      2.5321                 3.3990                 3.2284

                     22                     23                     24
                      A                      A                      A
 Frequencies --    372.3174               412.9690               420.2108
 Red. masses --      3.7309                 2.7609                 2.6231
 Frc consts  --      0.3047                 0.2774                 0.2729
 IR Inten    --     12.8553                 5.1531                20.9372

                     25                     26                     27
                      A                      A                      A
 Frequencies --    451.2103               477.8655               494.6547
 Red. masses --      3.4686                 3.4160                 3.1418
 Frc consts  --      0.4161                 0.4596                 0.4529
 IR Inten    --      6.3000                 2.0634                 5.7789

                     28                     29                     30
                      A                      A                      A
 Frequencies --    520.3798               556.5096               614.9715
 Red. masses --      2.9453                 4.4014                 5.8320
 Frc consts  --      0.4699                 0.8031                 1.2995
 IR Inten    --     12.3847                12.6781                 5.8391

                     31                     32                     33
                      A                      A                      A
 Frequencies --    641.4849               662.9945               710.1848
 Red. masses --      4.2426                 4.9579                 2.4659
 Frc consts  --      1.0286                 1.2840                 0.7328
 IR Inten    --      0.8442                 0.2101                17.4988

                     34                     35                     36
                      A                      A                      A
 Frequencies --    745.5754               757.4920               795.1372
 Red. masses --     10.6704                 2.6552                 1.8988
 Frc consts  --      3.4947                 0.8976                 0.7073
 IR Inten    --     47.2125                18.9924                10.1797

                     37                     38                     39
                      A                      A                      A
 Frequencies --    800.7887               809.4006               846.8999
 Red. masses --      1.3684                 2.1581                 2.8467
 Frc consts  --      0.5170                 0.8330                 1.2030
 IR Inten    --     27.4071                 5.8971                14.7389

                     40                     41                     42
                      A                      A                      A
 Frequencies --    898.7843               911.4257               927.6348
 Red. masses --      2.8768                 1.4146                 1.6788
 Frc consts  --      1.3692                 0.6924                 0.8511
 IR Inten    --     25.9149                15.6620                 8.7031

                     43                     44                     45
                      A                      A                      A
 Frequencies --    959.4167               981.1303               984.2786
 Red. masses --      2.5063                 2.2142                 1.2875
 Frc consts  --      1.3592                 1.2558                 0.7349
 IR Inten    --    108.7630                12.7189                 1.3830

                     46                     47                     48
                      A                      A                      A
 Frequencies --   1018.5170              1037.2198              1055.7387
 Red. masses --      6.1480                 1.8961                 2.4653
 Frc consts  --      3.7577                 1.2019                 1.6190
 IR Inten    --      9.2633                11.5831                21.1959

                     49                     50                     51
                      A                      A                      A
 Frequencies --   1068.0675              1082.5209              1097.3086
 Red. masses --      1.5406                 2.3009                 1.7772
 Frc consts  --      1.0355                 1.5886                 1.2608
 IR Inten    --     22.6741                37.4521                23.7310

                     52                     53                     54
                      A                      A                      A
 Frequencies --   1102.4030              1114.0876              1130.6729
 Red. masses --      1.7741                 1.6541                 1.2797
 Frc consts  --      1.2703                 1.2097                 0.9639
 IR Inten    --     46.1999               116.7323                16.9688

                     55                     56                     57
                      A                      A                      A
 Frequencies --   1131.8335              1152.3616              1167.9745
 Red. masses --      1.5035                 1.3416                 1.6552
 Frc consts  --      1.1348                 1.0497                 1.3303
 IR Inten    --      6.9356                90.3477                49.4222

                     58                     59                     60
                      A                      A                      A
 Frequencies --   1197.2773              1200.6023              1202.8983
 Red. masses --      1.8900                 1.6930                 1.3179
 Frc consts  --      1.5962                 1.4378                 1.1236
 IR Inten    --    300.9050               237.0997                11.8167

                     61                     62                     63
                      A                      A                      A
 Frequencies --   1225.8408              1260.6903              1275.7486
 Red. masses --      2.6878                 3.6158                 2.8044
 Frc consts  --      2.3797                 3.3859                 2.6891
 IR Inten    --     19.0681               348.0819                73.8135

                     64                     65                     66
                      A                      A                      A
 Frequencies --   1300.2679              1319.4978              1340.9715
 Red. masses --      2.3994                 1.6386                 1.7275
 Frc consts  --      2.3901                 1.6809                 1.8302
 IR Inten    --     20.6780                 8.9626               205.3450

                     67                     68                     69
                      A                      A                      A
 Frequencies --   1353.5873              1370.4449              1405.5903
 Red. masses --      2.1706                 2.2698                 1.3152
 Frc consts  --      2.3432                 2.5116                 1.5309
 IR Inten    --     10.0927                19.6222                22.8958

                     70                     71                     72
                      A                      A                      A
 Frequencies --   1405.9538              1415.6547              1432.1731
 Red. masses --      1.2560                 1.2655                 1.2825
 Frc consts  --      1.4628                 1.4943                 1.5499
 IR Inten    --      5.9706                 9.1359                12.9112

                     73                     74                     75
                      A                      A                      A
 Frequencies --   1438.5653              1455.0842              1478.5380
 Red. masses --      2.0236                 1.1572                 1.1722
 Frc consts  --      2.4673                 1.4436                 1.5097
 IR Inten    --    292.4467                 1.5503                 8.9256

                     76                     77                     78
                      A                      A                      A
 Frequencies --   1479.6533              1488.2823              1500.4059
 Red. masses --      1.8603                 1.6400                 1.0498
 Frc consts  --      2.3997                 2.1402                 1.3925
 IR Inten    --     75.3720                18.3098                18.1578

                     79                     80                     81
                      A                      A                      A
 Frequencies --   1502.3108              1508.0693              1510.4380
 Red. masses --      1.0835                 1.0580                 1.0567
 Frc consts  --      1.4408                 1.4177                 1.4205
 IR Inten    --     11.5028                23.2565                 2.6358

                     82                     83                     84
                      A                      A                      A
 Frequencies --   1512.2561              1514.3742              1518.8125
 Red. masses --      1.0582                 1.0458                 1.0705
 Frc consts  --      1.4259                 1.4131                 1.4549
 IR Inten    --      3.8040                14.2497                17.7632

                     85                     86                     87
                      A                      A                      A
 Frequencies --   1524.2870              1527.4438              1530.7452
 Red. masses --      1.0701                 1.0532                 1.9775
 Frc consts  --      1.4649                 1.4478                 2.7301
 IR Inten    --      8.8736                 8.3215                77.0907

                     88                     89                     90
                      A                      A                      A
 Frequencies --   1540.4017              1540.9287              1642.0590
 Red. masses --      1.1857                 1.1451                 5.9596
 Frc consts  --      1.6577                 1.6020                 9.4678
 IR Inten    --     25.7540                41.9722                19.1401

                     91                     92                     93
                      A                      A                      A
 Frequencies --   1664.2854              1762.3999              2979.2612
 Red. masses --      6.4632                10.4889                 1.0572
 Frc consts  --     10.5476                19.1950                 5.5287
 IR Inten    --     36.6373               757.8901               103.7549

                     94                     95                     96
                      A                      A                      A
 Frequencies --   2989.7302              3037.5251              3064.3661
 Red. masses --      1.0581                 1.0831                 1.0416
 Frc consts  --      5.5724                 5.8881                 5.7626
 IR Inten    --    170.4017                40.1319                41.1309

                     97                     98                     99
                      A                      A                      A
 Frequencies --   3067.6525              3072.0197              3087.7759
 Red. masses --      1.0371                 1.0356                 1.0735
 Frc consts  --      5.7503                 5.7583                 6.0306
 IR Inten    --     53.7446                27.9854                63.6728

                    100                    101                    102
                      A                      A                      A
 Frequencies --   3088.9573              3094.1010              3132.7430
 Red. masses --      1.0663                 1.0756                 1.1042
 Frc consts  --      5.9947                 6.0670                 6.3850
 IR Inten    --     47.6046                64.5706                49.1837

                    103                    104                    105
                      A                      A                      A
 Frequencies --   3134.3695              3137.7729              3138.6340
 Red. masses --      1.1021                 1.1012                 1.0958
 Frc consts  --      6.3791                 6.3882                 6.3600
 IR Inten    --     22.6817                65.5181                26.3886

                    106                    107                    108
                      A                      A                      A
 Frequencies --   3139.8729              3141.5568              3144.1047
 Red. masses --      1.1026                 1.1029                 1.1023
 Frc consts  --      6.4049                 6.4131                 6.4201
 IR Inten    --     48.4640                40.1473                53.9351

                    109                    110                    111
                      A                      A                      A
 Frequencies --   3161.8613              3190.8460              3214.9944
 Red. masses --      1.1018                 1.1026                 1.0877
 Frc consts  --      6.4900                 6.6140                 6.6242
 IR Inten    --     41.2700                17.4082                14.5513

                    112                    113                    114
                      A                      A                      A
 Frequencies --   3233.6804              3236.1048              3241.6256
 Red. masses --      1.0909                 1.0913                 1.0948
 Frc consts  --      6.7207                 6.7334                 6.7780
 IR Inten    --      7.4144                18.9783                18.0430

 - Thermochemistry -
 -------------------
 Temperature   298.150 Kelvin.  Pressure   1.00000 Atm.
 Atom     1 has atomic number  6 and mass  12.00000

 Molecular mass:   250.16813 amu.
 Principal axes and moments of inertia in atomic units:
                           1         2         3
     Eigenvalues --  2068.29831********************
           X            0.99999   0.00161  -0.00372
           Y           -0.00160   0.99999   0.00378
           Z            0.00372  -0.00378   0.99999
 This molecule is an asymmetric top.
 Rotational symmetry number  1.
 Warning -- assumption of classical behavior for rotation
           may cause significant error
 Rotational temperatures (Kelvin)      0.04188     0.00858     0.00782
 Rotational constants (GHZ):           0.87257     0.17886     0.16290
 Zero-point vibrational energy     913035.1 (Joules/Mol)
                                  218.22062 (Kcal/Mol)
 Warning -- explicit consideration of  30 degrees of freedom as
           vibrations may cause significant error
 Vibrational temperatures:     25.53    33.14    50.72    72.60   106.00
          (Kelvin)            108.40   128.70   138.77   169.13   240.71
                              262.76   318.18   321.00   351.66   360.55
                              370.43   380.64   392.68   431.09   498.44
                              503.39   535.68   594.17   604.59   649.19
                              687.54   711.70   748.71   800.69   884.81
                              922.95   953.90  1021.80  1072.72  1089.86
                             1144.03  1152.16  1164.55  1218.50  1293.15
                             1311.34  1334.66  1380.39  1411.63  1416.16
                             1465.42  1492.33  1518.97  1536.71  1557.51
                             1578.78  1586.11  1602.92  1626.79  1628.46
                             1657.99  1680.45  1722.61  1727.40  1730.70
                             1763.71  1813.85  1835.52  1870.80  1898.46
                             1929.36  1947.51  1971.76  2022.33  2022.85
                             2036.81  2060.58  2069.77  2093.54  2127.29
                             2128.89  2141.31  2158.75  2161.49  2169.78
                             2173.18  2175.80  2178.85  2185.23  2193.11
                             2197.65  2202.40  2216.29  2217.05  2362.56
                             2394.54  2535.70  4286.49  4301.55  4370.32
                             4408.94  4413.67  4419.95  4442.62  4444.32
                             4451.72  4507.32  4509.66  4514.56  4515.79
                             4517.58  4520.00  4523.67  4549.21  4590.92
                             4625.66  4652.54  4656.03  4663.98

 Zero-point correction=                           0.347757 (Hartree/Particle)
 Thermal correction to Energy=                    0.367541
 Thermal correction to Enthalpy=                  0.368485
 Thermal correction to Gibbs Free Energy=         0.297198
 Sum of electronic and zero-point Energies=           -806.357528
 Sum of electronic and thermal Energies=              -806.337744
 Sum of electronic and thermal Enthalpies=            -806.336799
 Sum of electronic and thermal Free Energies=         -806.408087

                     E (Thermal)             CV                S
                      KCal/Mol        Cal/Mol-Kelvin    Cal/Mol-Kelvin
 Total                  230.635             72.556            150.037
 Electronic               0.000              0.000              0.000
 Translational            0.889              2.981             42.451
 Rotational               0.889              2.981             33.802
 Vibrational            228.858             66.594             73.784
 Vibration     1          0.593              1.986              6.872
 Vibration     2          0.593              1.985              6.354
 Vibration     3          0.594              1.982              5.509
 Vibration     4          0.595              1.977              4.799
 Vibration     5          0.599              1.966              4.053
 Vibration     6          0.599              1.965              4.009
 Vibration     7          0.602              1.957              3.672
 Vibration     8          0.603              1.952              3.525
 Vibration     9          0.608              1.935              3.140
 Vibration    10          0.624              1.883              2.466
 Vibration    11          0.630              1.863              2.301
 Vibration    12          0.648              1.809              1.950
 Vibration    13          0.649              1.806              1.934
 Vibration    14          0.660              1.772              1.771
 Vibration    15          0.663              1.762              1.726
 Vibration    16          0.667              1.750              1.679
 Vibration    17          0.671              1.738              1.632
 Vibration    18          0.676              1.723              1.578
 Vibration    19          0.692              1.674              1.419
 Vibration    20          0.724              1.583              1.182
 Vibration    21          0.727              1.576              1.167
 Vibration    22          0.744              1.529              1.070
 Vibration    23          0.777              1.442              0.916
 Vibration    24          0.783              1.426              0.891
 Vibration    25          0.810              1.358              0.792
 Vibration    26          0.834              1.299              0.716
 Vibration    27          0.850              1.262              0.672
 Vibration    28          0.875              1.205              0.609
 Vibration    29          0.912              1.125              0.531
 Vibration    30          0.974              1.000              0.425

                           ! Non-Optimized Parameters !
 Normal termination of Gaussian 16 at Wed Mar  2 06:12:05 2022.

 ------------------------------------------
 #p b3lyp/6-31G(d) geom=allcheck guess=read
 ------------------------------------------

 Structure from the checkpoint file:  "37.n.pdb.xyz.mst.wat.chk"
 ------------
 37.n.pdb.xyz
 ------------
 Charge =  0 Multiplicity = 1

 SCF Done:  E(RB3LYP) =  -806.695873244     A.U. after   11 cycles
 Normal termination of Gaussian 16 at Wed Mar  2 06:14:45 2022.
 Gaussian 16:  ES64L-G16RevA.03 25-Dec-2016

 ----------------------------------------------------------------------
 #p b3lyp/6-31G(d) scrf=(iefpcm,read,solvent=water) geom=allcheck guess
 =read
 ----------------------------------------------------------------------

 Structure from the checkpoint file:  "37.n.pdb.xyz.mst.wat.chk"
 ------------
 37.n.pdb.xyz
 ------------
 Charge =  0 Multiplicity = 1

                         Standard orientation:
 ---------------------------------------------------------------------
 Center     Atomic      Atomic             Coordinates (Angstroms)
 Number     Number       Type             X           Y           Z
 ---------------------------------------------------------------------
      1          6           0        5.783887    0.268670    0.264559
      2          6           0        4.779545   -0.734713    0.830940
      3          7           0        3.561577   -0.859496    0.025342
      4          6           0        3.618795   -1.669659   -1.188602
      5          6           0        2.519085   -0.047456    0.317201
      6          8           0        2.454274    0.721081    1.268900
      7          8           0        1.496595   -0.202229   -0.590642
      8          6           0        0.347915    0.571041   -0.403409
      9          6           0       -0.799110   -0.057881    0.060249
     10          6           0       -1.998101    0.660116    0.180463
     11          6           0       -2.001448    2.013456   -0.172299
     12          6           0       -0.839123    2.636179   -0.638615
     13          6           0        0.347939    1.918845   -0.761290
     14          6           0       -3.234578   -0.055896    0.722684
     15          6           0       -4.478471    0.841939    0.804935
     16          7           0       -3.439886   -1.323889   -0.009389
     17          6           0       -3.881901   -1.135810   -1.386168
     18          6           0       -4.319196   -2.241675    0.702466
     19          1           0        6.674041    0.305668    0.900244
     20          1           0        6.101356   -0.008512   -0.744777
     21          1           0        5.348189    1.271454    0.226732
     22          1           0        4.476594   -0.441342    1.836321
     23          1           0        5.227289   -1.730829    0.890251
     24          1           0        2.631879   -2.064196   -1.423262
     25          1           0        4.300629   -2.502619   -1.008070
     26          1           0        3.984702   -1.098689   -2.048796
     27          1           0       -0.767238   -1.110669    0.314756
     28          1           0       -2.915063    2.588405   -0.086199
     29          1           0       -0.862736    3.685269   -0.912411
     30          1           0        1.254910    2.383425   -1.129063
     31          1           0       -2.993936   -0.366398    1.747887
     32          1           0       -5.325122    0.273309    1.198141
     33          1           0       -4.761867    1.239444   -0.173579
     34          1           0       -4.304088    1.688147    1.474827
     35          1           0       -3.869926   -2.101252   -1.900696
     36          1           0       -3.196009   -0.461279   -1.904627
     37          1           0       -4.900511   -0.722521   -1.471572
     38          1           0       -5.362891   -1.891877    0.778762
     39          1           0       -4.329880   -3.204185    0.182300
     40          1           0       -3.940541   -2.400807    1.716417
 ---------------------------------------------------------------------

 SCF Done:  E(RB3LYP) =  -806.704023069     A.U. after   11 cycles

 The electronic state is 1-A.
 Alpha  occ. eigenvalues --  -19.19685 -19.12363 -14.36851 -14.32422 -10.33714
 Alpha  occ. eigenvalues --  -10.25175 -10.21858 -10.21795 -10.21465 -10.19937
 Alpha  occ. eigenvalues --  -10.19673 -10.19495 -10.19495 -10.19361 -10.18974
 Alpha  occ. eigenvalues --  -10.18910 -10.17615 -10.17148  -1.11010  -1.01641
 Alpha  occ. eigenvalues --   -0.94318  -0.92000  -0.85736  -0.78006  -0.76538
 Alpha  occ. eigenvalues --   -0.74650  -0.72556  -0.70769  -0.70001  -0.66433
 Alpha  occ. eigenvalues --   -0.65317  -0.61484  -0.60716  -0.57588  -0.53778
 Alpha  occ. eigenvalues --   -0.52979  -0.50724  -0.49279  -0.48380  -0.47901
 Alpha  occ. eigenvalues --   -0.46606  -0.46400  -0.45041  -0.44384  -0.43822
 Alpha  occ. eigenvalues --   -0.42938  -0.41869  -0.41624  -0.40814  -0.39994
 Alpha  occ. eigenvalues --   -0.39628  -0.38719  -0.38522  -0.37748  -0.37155
 Alpha  occ. eigenvalues --   -0.36932  -0.36353  -0.35883  -0.35305  -0.34813
 Alpha  occ. eigenvalues --   -0.34297  -0.33540  -0.30693  -0.28104  -0.25266
 Alpha  occ. eigenvalues --   -0.24755  -0.24365  -0.21129
 Alpha virt. eigenvalues --   -0.01007  -0.00225   0.04547   0.08587   0.09398
 Alpha virt. eigenvalues --    0.10272   0.11788   0.12504   0.13324   0.13988
 Alpha virt. eigenvalues --    0.14376   0.14603   0.15220   0.15601   0.16486

 Mulliken charges:
               1
     1  C   -0.450446
     2  C   -0.143636
     3  N   -0.438208
     4  C   -0.315016
     5  C    0.798698
     6  O   -0.580947
     7  O   -0.565656
     8  C    0.348566
     9  C   -0.205902
    10  C    0.129305
    11  C   -0.191859
    12  C   -0.167991
    13  C   -0.164776
    14  C   -0.027429
    15  C   -0.484148
    16  N   -0.388660
    17  C   -0.312475
    18  C   -0.307812
    19  H    0.158785
    20  H    0.158393
    21  H    0.159113
    22  H    0.173495
    23  H    0.162759
    24  H    0.188724
    25  H    0.174705
    26  H    0.172465
    27  H    0.147379
    28  H    0.148888
    29  H    0.155461
    30  H    0.155782
    31  H    0.153848
    32  H    0.158147
    33  H    0.159358
    34  H    0.159207
    35  H    0.153850
    36  H    0.156232
    37  H    0.131321
    38  H    0.130182
    39  H    0.154834
    40  H    0.155464
 Sum of Mulliken charges =  -0.00000

 Dipole moment (field-independent basis, Debye):
    X=             -0.0143    Y=             -1.8902    Z=             -2.0614  Tot=              2.7969
 Quadrupole moment (field-independent basis, Debye-Ang):
   XX=            -80.8228   YY=           -101.7126   ZZ=           -110.3574
   XY=             -8.7397   XZ=             -7.7184   YZ=             -3.5711

 Normal termination of Gaussian 16 at Wed Mar  2 06:18:13 2022.
