 Gaussian 16, Revision A.03,

 ----------------------------------------------------------------------
 #p b3lyp/6-31G(d) opt=(MaxStep=10,MaxCycles=1000) freq scf=(MaxCycle=2
 000,NoVarAcc,NoIncFock) scrf=(iefpcm,read,solvent=water)
 ----------------------------------------------------------------------

 ------------
 38.n.pdb.xyz
 ------------
 Symbolic Z-matrix:
 Charge =  0 Multiplicity = 1

 SCF Done:  E(RB3LYP) =  -947.627118734     A.U. after   12 cycles
 SCF Done:  E(RB3LYP) =  -947.630544484     A.U. after    9 cycles
 SCF Done:  E(RB3LYP) =  -947.629291457     A.U. after   10 cycles
 SCF Done:  E(RB3LYP) =  -947.631648252     A.U. after   10 cycles
 SCF Done:  E(RB3LYP) =  -947.632113921     A.U. after   10 cycles
 SCF Done:  E(RB3LYP) =  -947.632063416     A.U. after    9 cycles
 SCF Done:  E(RB3LYP) =  -947.632102935     A.U. after    9 cycles
 SCF Done:  E(RB3LYP) =  -947.632163087     A.U. after    9 cycles
 SCF Done:  E(RB3LYP) =  -947.632162660     A.U. after    8 cycles
 SCF Done:  E(RB3LYP) =  -947.632160853     A.U. after    8 cycles
 SCF Done:  E(RB3LYP) =  -947.632171339     A.U. after    8 cycles
 SCF Done:  E(RB3LYP) =  -947.632176876     A.U. after    8 cycles
 SCF Done:  E(RB3LYP) =  -947.632169316     A.U. after    7 cycles
 SCF Done:  E(RB3LYP) =  -947.632169762     A.U. after    6 cycles
 SCF Done:  E(RB3LYP) =  -947.632170012     A.U. after    6 cycles
 SCF Done:  E(RB3LYP) =  -947.632170258     A.U. after    5 cycles
 Optimization completed.
    -- Stationary point found.
 Normal termination of Gaussian 16 at Wed Mar  2 05:31:58 2022.

 --------------------------------------------------------------------
 #P Geom=AllCheck Guess=TCheck SCRF=Check GenChk RB3LYP/6-31G(d) Freq
 --------------------------------------------------------------------

 Structure from the checkpoint file:  "38.n.pdb.xyz.mst.wat.chk"
 ------------
 38.n.pdb.xyz
 ------------
 Charge =  0 Multiplicity = 1

 SCF Done:  E(RB3LYP) =  -947.632170258     A.U. after    1 cycles

  Exact polarizability: 268.619   3.930 324.746  -4.223   5.793 290.482
 Approx polarizability: 275.658  10.298 341.900  -5.021   6.751 331.121

                      1                      2                      3
                      A                      A                      A
 Frequencies --     16.6649                35.5227                44.5301
 Red. masses --      2.9969                 4.0045                 3.9830
 Frc consts  --      0.0005                 0.0030                 0.0047
 IR Inten    --      0.2510                 0.1856                 0.4914

                      4                      5                      6
                      A                      A                      A
 Frequencies --     47.9807                63.8060                80.8260
 Red. masses --      3.4983                 4.2771                 3.5624
 Frc consts  --      0.0047                 0.0103                 0.0137
 IR Inten    --      0.3406                 0.0753                 0.1005

                      7                      8                      9
                      A                      A                      A
 Frequencies --    105.0558               132.4489               163.1045
 Red. masses --      3.4137                 3.1938                 2.8348
 Frc consts  --      0.0222                 0.0330                 0.0444
 IR Inten    --      0.0376                 0.2037                 1.4595

                     10                     11                     12
                      A                      A                      A
 Frequencies --    187.8288               192.0001               234.5505
 Red. masses --      4.2847                 2.8555                 2.8912
 Frc consts  --      0.0891                 0.0620                 0.0937
 IR Inten    --      0.2051                 1.5200                 0.8605

                     13                     14                     15
                      A                      A                      A
 Frequencies --    244.0321               252.7797               277.7488
 Red. masses --      3.2905                 2.3033                 4.5376
 Frc consts  --      0.1155                 0.0867                 0.2062
 IR Inten    --      7.0454                 0.5401                 2.2953

                     16                     17                     18
                      A                      A                      A
 Frequencies --    309.8559               317.3288               343.6212
 Red. masses --      2.1407                 5.4321                 2.9779
 Frc consts  --      0.1211                 0.3223                 0.2072
 IR Inten    --      2.0952                 4.5238                 4.3321

                     19                     20                     21
                      A                      A                      A
 Frequencies --    376.9725               391.9480               417.3447
 Red. masses --      2.3275                 2.0747                 2.7235
 Frc consts  --      0.1949                 0.1878                 0.2795
 IR Inten    --      1.2469                 1.3532                13.2768

                     22                     23                     24
                      A                      A                      A
 Frequencies --    424.0260               443.0025               465.1003
 Red. masses --      3.1236                 2.8981                 2.4761
 Frc consts  --      0.3309                 0.3351                 0.3156
 IR Inten    --     10.7720                 2.9642                22.2563

                     25                     26                     27
                      A                      A                      A
 Frequencies --    469.2906               472.6286               498.7743
 Red. masses --      2.0548                 3.4744                 2.6471
 Frc consts  --      0.2666                 0.4573                 0.3880
 IR Inten    --     52.9001                 4.6942                13.8430

                     28                     29                     30
                      A                      A                      A
 Frequencies --    520.1675               550.2508               572.1257
 Red. masses --      2.9069                 1.1968                 1.9491
 Frc consts  --      0.4634                 0.2135                 0.3759
 IR Inten    --      3.1121               210.7859                 8.1782

                     31                     32                     33
                      A                      A                      A
 Frequencies --    622.4001               633.9681               670.3050
 Red. masses --      3.6028                 6.2134                 3.0087
 Frc consts  --      0.8223                 1.4713                 0.7965
 IR Inten    --     21.1920                 0.8539                13.5345

                     34                     35                     36
                      A                      A                      A
 Frequencies --    682.3349               718.8717               726.0483
 Red. masses --      3.7787                 2.2500                 1.6356
 Frc consts  --      1.0366                 0.6851                 0.5080
 IR Inten    --      3.0841                34.9028                69.8294

                     37                     38                     39
                      A                      A                      A
 Frequencies --    753.3922               773.3874               789.8190
 Red. masses --      2.2086                 2.6747                 3.2849
 Frc consts  --      0.7386                 0.9426                 1.2073
 IR Inten    --     29.8992                19.6370                16.0737

                     40                     41                     42
                      A                      A                      A
 Frequencies --    793.2361               801.5812               817.4334
 Red. masses --      1.7299                 2.9560                 2.8972
 Frc consts  --      0.6413                 1.1190                 1.1406
 IR Inten    --      3.9016                 4.7737                14.6740

                     43                     44                     45
                      A                      A                      A
 Frequencies --    826.7701               860.5446               867.4719
 Red. masses --      1.4991                 2.8068                 2.3461
 Frc consts  --      0.6037                 1.2246                 1.0402
 IR Inten    --      0.5572                 1.9769                 3.1416

                     46                     47                     48
                      A                      A                      A
 Frequencies --    872.5945               874.9436               881.1624
 Red. masses --      1.2743                 1.4556                 2.6198
 Frc consts  --      0.5717                 0.6565                 1.1985
 IR Inten    --      1.1189                 7.5797                 8.5765

                     49                     50                     51
                      A                      A                      A
 Frequencies --    914.2003               917.7209               924.1502
 Red. masses --      2.2156                 2.3097                 1.8998
 Frc consts  --      1.0910                 1.1461                 0.9559
 IR Inten    --      4.0134                 0.5578                11.7362

                     52                     53                     54
                      A                      A                      A
 Frequencies --    938.3951               945.8593               948.1011
 Red. masses --      1.6176                 2.0712                 1.9183
 Frc consts  --      0.8393                 1.0918                 1.0160
 IR Inten    --      3.1426                 1.7831                13.4672

                     55                     56                     57
                      A                      A                      A
 Frequencies --    955.6376               966.0672               984.3113
 Red. masses --      1.8600                 2.3422                 1.2906
 Frc consts  --      1.0008                 1.2879                 0.7367
 IR Inten    --      5.3084                12.5957                 2.5546

                     58                     59                     60
                      A                      A                      A
 Frequencies --    986.2393              1001.5968              1007.4407
 Red. masses --      1.3364                 2.3096                 1.3227
 Frc consts  --      0.7659                 1.3651                 0.7909
 IR Inten    --      0.9461                36.1643                 2.6150

                     61                     62                     63
                      A                      A                      A
 Frequencies --   1010.3943              1014.2971              1016.9846
 Red. masses --      2.0839                 2.4463                 2.8100
 Frc consts  --      1.2535                 1.4828                 1.7123
 IR Inten    --     34.9283                 3.7557                 0.6500

                     64                     65                     66
                      A                      A                      A
 Frequencies --   1036.8376              1054.5381              1058.0894
 Red. masses --      1.7370                 2.1962                 2.2632
 Frc consts  --      1.1002                 1.4390                 1.4928
 IR Inten    --     12.8575                 5.8674                12.6392

                     67                     68                     69
                      A                      A                      A
 Frequencies --   1064.0447              1066.3008              1074.8866
 Red. masses --      2.1081                 1.7628                 1.9532
 Frc consts  --      1.4063                 1.1809                 1.3296
 IR Inten    --      1.8989                 8.2681                33.4588

                     70                     71                     72
                      A                      A                      A
 Frequencies --   1102.7447              1106.1558              1125.1175
 Red. masses --      2.1287                 1.8723                 1.4783
 Frc consts  --      1.5252                 1.3497                 1.1026
 IR Inten    --      6.3530                21.4170                23.8003

                     73                     74                     75
                      A                      A                      A
 Frequencies --   1130.4404              1139.6724              1144.5105
 Red. masses --      1.8313                 2.2488                 1.1964
 Frc consts  --      1.3788                 1.7209                 0.9233
 IR Inten    --     33.0471                27.3136                 1.8994

                     76                     77                     78
                      A                      A                      A
 Frequencies --   1152.3636              1177.0654              1183.4350
 Red. masses --      2.0692                 1.7048                 1.2794
 Frc consts  --      1.6189                 1.3917                 1.0557
 IR Inten    --     15.2443                61.9600                 7.7359

                     79                     80                     81
                      A                      A                      A
 Frequencies --   1183.8268              1184.3540              1197.1504
 Red. masses --      1.6960                 1.2737                 2.1022
 Frc consts  --      1.4004                 1.0527                 1.7751
 IR Inten    --     21.0948                 7.0657                10.8742

                     82                     83                     84
                      A                      A                      A
 Frequencies --   1201.8373              1214.5173              1224.0570
 Red. masses --      1.9191                 1.1691                 1.4355
 Frc consts  --      1.6332                 1.0161                 1.2672
 IR Inten    --      9.2898                 6.0950                 5.4538

                     85                     86                     87
                      A                      A                      A
 Frequencies --   1237.9806              1272.4506              1278.8527
 Red. masses --      1.4978                 1.5898                 1.4785
 Frc consts  --      1.3525                 1.5166                 1.4246
 IR Inten    --     18.3505                31.9561                13.1509

                     88                     89                     90
                      A                      A                      A
 Frequencies --   1294.9639              1296.2093              1304.1423
 Red. masses --      1.3607                 1.2795                 1.1797
 Frc consts  --      1.3444                 1.2666                 1.1821
 IR Inten    --      4.3334                27.8284                13.5654

                     91                     92                     93
                      A                      A                      A
 Frequencies --   1309.2618              1317.1310              1327.6863
 Red. masses --      1.4117                 1.5214                 1.3912
 Frc consts  --      1.4258                 1.5551                 1.4449
 IR Inten    --      2.5072                 7.0541                23.4210

                     94                     95                     96
                      A                      A                      A
 Frequencies --   1334.2418              1341.0182              1347.8114
 Red. masses --      1.4124                 1.7395                 2.4320
 Frc consts  --      1.4814                 1.8430                 2.6030
 IR Inten    --      3.6462                10.3566                 0.7987

                     97                     98                     99
                      A                      A                      A
 Frequencies --   1354.3564              1361.1617              1366.3233
 Red. masses --      1.4005                 1.2823                 1.5019
 Frc consts  --      1.5135                 1.3998                 1.6519
 IR Inten    --      7.1387                58.1211                 7.3910

                    100                    101                    102
                      A                      A                      A
 Frequencies --   1371.3475              1375.2019              1388.0498
 Red. masses --      1.2904                 1.7383                 1.5053
 Frc consts  --      1.4298                 1.9368                 1.7088
 IR Inten    --     27.6337                19.9831                11.5244

                    103                    104                    105
                      A                      A                      A
 Frequencies --   1396.3404              1398.6820              1404.3557
 Red. masses --      1.4922                 1.4211                 1.5094
 Frc consts  --      1.7141                 1.6380                 1.7539
 IR Inten    --     12.2372                15.9669                 1.1757

                    106                    107                    108
                      A                      A                      A
 Frequencies --   1437.4545              1440.8804              1488.7934
 Red. masses --      1.3717                 1.4828                 2.2084
 Frc consts  --      1.6700                 1.8138                 2.8840
 IR Inten    --     27.9271                 8.7295                11.5447

                    109                    110                    111
                      A                      A                      A
 Frequencies --   1498.3156              1501.9914              1505.1821
 Red. masses --      1.0909                 1.0977                 1.0867
 Frc consts  --      1.4429                 1.4591                 1.4505
 IR Inten    --      4.8924                 2.3599                 7.0675

                    112                    113                    114
                      A                      A                      A
 Frequencies --   1508.1733              1515.1950              1517.6312
 Red. masses --      1.0934                 1.1134                 1.1035
 Frc consts  --      1.4653                 1.5060                 1.4974
 IR Inten    --      1.0569                 1.8072                 3.3535

                    115                    116                    117
                      A                      A                      A
 Frequencies --   1524.6399              1536.4376              1539.6085
 Red. masses --      1.0958                 1.0971                 1.1353
 Frc consts  --      1.5008                 1.5259                 1.5855
 IR Inten    --      4.6256                 4.4170                 7.6904

                    118                    119                    120
                      A                      A                      A
 Frequencies --   1541.6739              1637.3900              1653.4279
 Red. masses --      1.9726                 5.5953                 5.6177
 Frc consts  --      2.7623                 8.8384                 9.0485
 IR Inten    --     14.5286                 1.2588                 5.0096

                    121                    122                    123
                      A                      A                      A
 Frequencies --   1659.4289              2909.9049              2922.6873
 Red. masses --      5.5455                 1.0733                 1.0730
 Frc consts  --      8.9972                 5.3544                 5.4001
 IR Inten    --      6.4055               105.9213               193.6641

                    124                    125                    126
                      A                      A                      A
 Frequencies --   2977.5339              3037.1839              3048.1456
 Red. masses --      1.0705                 1.0663                 1.0627
 Frc consts  --      5.5919                 5.7951                 5.8176
 IR Inten    --    121.2690                54.5291                38.7038

                    127                    128                    129
                      A                      A                      A
 Frequencies --   3052.7672              3072.1743              3075.1096
 Red. masses --      1.0626                 1.0646                 1.0875
 Frc consts  --      5.8345                 5.9203                 6.0590
 IR Inten    --     51.1131                70.2372                81.5843

                    130                    131                    132
                      A                      A                      A
 Frequencies --   3085.8705              3087.6729              3092.0826
 Red. masses --      1.0643                 1.0933                 1.0671
 Frc consts  --      5.9710                 6.1411                 6.0112
 IR Inten    --     20.3767                95.4878               111.6977

                    133                    134                    135
                      A                      A                      A
 Frequencies --   3093.2691              3093.7381              3095.1574
 Red. masses --      1.1031                 1.0796                 1.0834
 Frc consts  --      6.2187                 6.0882                 6.1154
 IR Inten    --     68.5678                 9.6865                39.3647

                    136                    137                    138
                      A                      A                      A
 Frequencies --   3097.2606              3113.0147              3125.9051
 Red. masses --      1.1043                 1.0870                 1.0999
 Frc consts  --      6.2418                 6.2063                 6.3320
 IR Inten    --    127.0483                58.3767                64.6587

                    139                    140                    141
                      A                      A                      A
 Frequencies --   3128.5099              3133.3772              3147.5505
 Red. masses --      1.0884                 1.0981                 1.0923
 Frc consts  --      6.2762                 6.3523                 6.3758
 IR Inten    --    121.1602                51.0910               100.9738

                    142                    143                    144
                      A                      A                      A
 Frequencies --   3148.5379              3195.8685              3204.7760
 Red. masses --      1.1022                 1.0852                 1.0883
 Frc consts  --      6.4378                 6.5303                 6.5857
 IR Inten    --     60.8858                 0.5791                14.5593

                    145                    146                    147
                      A                      A                      A
 Frequencies --   3209.7563              3213.6590              3222.6470
 Red. masses --      1.0859                 1.0923                 1.0948
 Frc consts  --      6.5915                 6.6467                 6.6987
 IR Inten    --     22.6624                60.9257                44.1894

                    148                    149                    150
                      A                      A                      A
 Frequencies --   3231.1705              3233.9751              3728.1933
 Red. masses --      1.0928                 1.1054                 1.0656
 Frc consts  --      6.7224                 6.8118                 8.7269
 IR Inten    --     17.4158                41.2531                44.2211

 - Thermochemistry -
 -------------------
 Temperature   298.150 Kelvin.  Pressure   1.00000 Atm.
 Atom     1 has atomic number  8 and mass  15.99491

 Molecular mass:   311.22491 amu.
 Principal axes and moments of inertia in atomic units:
                           1         2         3
     Eigenvalues --  5449.96303********************
           X            0.99999   0.00506   0.00042
           Y           -0.00506   0.99999   0.00013
           Z           -0.00042  -0.00013   1.00000
 This molecule is an asymmetric top.
 Rotational symmetry number  1.
 Warning -- assumption of classical behavior for rotation
           may cause significant error
 Rotational temperatures (Kelvin)      0.01589     0.00785     0.00584
 Rotational constants (GHZ):           0.33115     0.16363     0.12178
 Zero-point vibrational energy    1222178.1 (Joules/Mol)
                                  292.10756 (Kcal/Mol)
 Warning -- explicit consideration of  30 degrees of freedom as
           vibrations may cause significant error
 Vibrational temperatures:     23.98    51.11    64.07    69.03    91.80
          (Kelvin)            116.29   151.15   190.56   234.67   270.24
                              276.25   337.47   351.11   363.69   399.62
                              445.81   456.57   494.39   542.38   563.93
                              600.47   610.08   637.38   669.18   675.20
                              680.01   717.62   748.41   791.69   823.16
                              895.49   912.14   964.42   981.73  1034.30
                             1044.62  1083.96  1112.73  1136.37  1141.29
                             1153.30  1176.10  1189.54  1238.13  1248.10
                             1255.47  1258.85  1267.80  1315.33  1320.40
                             1329.65  1350.14  1360.88  1364.11  1374.95
                             1389.96  1416.20  1418.98  1441.07  1449.48
                             1453.73  1459.35  1463.21  1491.78  1517.25
                             1522.35  1530.92  1534.17  1546.52  1586.60
                             1591.51  1618.79  1626.45  1639.73  1646.70
                             1657.99  1693.53  1702.70  1703.26  1704.02
                             1722.43  1729.18  1747.42  1761.14  1781.18
                             1830.77  1839.98  1863.16  1864.96  1876.37
                             1883.74  1895.06  1910.24  1919.68  1929.43
                             1939.20  1948.62  1958.41  1965.83  1973.06
                             1978.61  1997.09  2009.02  2012.39  2020.55
                             2068.18  2073.11  2142.04  2155.74  2161.03
                             2165.62  2169.92  2180.03  2183.53  2193.62
                             2210.59  2215.15  2218.12  2355.84  2378.91
                             2387.55  4186.70  4205.10  4284.01  4369.83
                             4385.60  4392.25  4420.17  4424.40  4439.88
                             4442.47  4448.82  4450.52  4451.20  4453.24
                             4456.27  4478.93  4497.48  4501.23  4508.23
                             4528.62  4530.04  4598.14  4610.96  4618.12
                             4623.74  4636.67  4648.93  4652.97  5364.04

 Zero-point correction=                           0.465503 (Hartree/Particle)
 Thermal correction to Energy=                    0.485681
 Thermal correction to Enthalpy=                  0.486625
 Thermal correction to Gibbs Free Energy=         0.415439
 Sum of electronic and zero-point Energies=           -947.166667
 Sum of electronic and thermal Energies=              -947.146490
 Sum of electronic and thermal Enthalpies=            -947.145545
 Sum of electronic and thermal Free Energies=         -947.216731

                     E (Thermal)             CV                S
                      KCal/Mol        Cal/Mol-Kelvin    Cal/Mol-Kelvin
 Total                  304.769             83.139            149.823
 Electronic               0.000              0.000              0.000
 Translational            0.889              2.981             43.102
 Rotational               0.889              2.981             35.142
 Vibrational            302.992             77.178             71.579
 Vibration     1          0.593              1.986              6.996
 Vibration     2          0.594              1.982              5.494
 Vibration     3          0.595              1.980              5.047
 Vibration     4          0.595              1.978              4.899
 Vibration     5          0.597              1.972              4.336
 Vibration     6          0.600              1.962              3.871
 Vibration     7          0.605              1.945              3.358
 Vibration     8          0.613              1.921              2.910
 Vibration     9          0.623              1.888              2.513
 Vibration    10          0.633              1.857              2.249
 Vibration    11          0.634              1.851              2.208
 Vibration    12          0.654              1.788              1.844
 Vibration    13          0.659              1.773              1.773
 Vibration    14          0.664              1.758              1.711
 Vibration    15          0.679              1.715              1.547
 Vibration    16          0.699              1.655              1.363
 Vibration    17          0.704              1.640              1.324
 Vibration    18          0.722              1.588              1.195
 Vibration    19          0.748              1.519              1.051
 Vibration    20          0.759              1.487              0.993
 Vibration    21          0.780              1.433              0.901
 Vibration    22          0.786              1.418              0.878
 Vibration    23          0.803              1.376              0.817
 Vibration    24          0.823              1.327              0.751
 Vibration    25          0.826              1.318              0.740
 Vibration    26          0.829              1.311              0.730
 Vibration    27          0.854              1.253              0.661
 Vibration    28          0.875              1.205              0.610
 Vibration    29          0.906              1.139              0.544
 Vibration    30          0.928              1.092              0.500

 Optimization completed.
    -- Stationary point found.
 Normal termination of Gaussian 16 at Wed Mar  2 07:06:08 2022.

 ------------------------------------------
 #p b3lyp/6-31G(d) geom=allcheck guess=read
 ------------------------------------------

 Structure from the checkpoint file:  "38.n.pdb.xyz.mst.wat.chk"
 ------------
 38.n.pdb.xyz
 ------------
 Charge =  0 Multiplicity = 1

 SCF Done:  E(RB3LYP) =  -947.621903433     A.U. after   11 cycles
 Normal termination of Gaussian 16 at Wed Mar  2 07:11:47 2022.
 Gaussian 16:  ES64L-G16RevA.03 25-Dec-2016

 ----------------------------------------------------------------------
 #p b3lyp/6-31G(d) scrf=(iefpcm,read,solvent=water) geom=allcheck guess
 =read
 ----------------------------------------------------------------------

 Structure from the checkpoint file:  "38.n.pdb.xyz.mst.wat.chk"
 ------------
 38.n.pdb.xyz
 ------------
 Charge =  0 Multiplicity = 1

                         Standard orientation:
 ---------------------------------------------------------------------
 Center     Atomic      Atomic             Coordinates (Angstroms)
 Number     Number       Type             X           Y           Z
 ---------------------------------------------------------------------
      1          8           0        0.865745   -0.196621    1.757208
      2          6           0        0.887549    0.073218    0.349075
      3          6           0       -0.473798   -0.435028   -0.177866
      4          6           0       -1.696736    0.266000    0.417848
      5          7           0       -2.957240   -0.234821   -0.143299
      6          6           0       -3.301309   -1.562111    0.381362
      7          6           0       -4.562872   -2.115028   -0.285413
      8          6           0       -5.741769   -1.151466   -0.111764
      9          6           0       -5.345698    0.255599   -0.572916
     10          6           0       -4.052584    0.710261    0.107257
     11          6           0        2.037892   -0.697297   -0.368555
     12          6           0        3.486084   -0.256923    0.026039
     13          6           0        4.208683   -1.607936    0.335923
     14          6           0        3.076614   -2.355151    1.074079
     15          6           0        2.098023   -2.256450   -0.119058
     16          6           0        2.991262   -2.785927   -1.235210
     17          6           0        4.245797   -2.396413   -0.966621
     18          6           0        1.025677    1.583634    0.080677
     19          6           0        0.985515    2.512822    1.127699
     20          6           0        1.102532    3.883257    0.880545
     21          6           0        1.256108    4.352398   -0.423569
     22          6           0        1.288676    3.437470   -1.478900
     23          6           0        1.175091    2.070413   -1.228148
     24          1           0        1.687373    0.139030    2.153538
     25          1           0       -0.528707   -1.507954    0.023170
     26          1           0       -0.493134   -0.315694   -1.265681
     27          1           0       -1.640701    1.334461    0.189632
     28          1           0       -1.682430    0.173217    1.517383
     29          1           0       -2.460777   -2.238096    0.204232
     30          1           0       -3.452506   -1.518021    1.478888
     31          1           0       -4.362169   -2.263664   -1.353430
     32          1           0       -4.796435   -3.097554    0.139763
     33          1           0       -6.026751   -1.117195    0.948440
     34          1           0       -6.618321   -1.507654   -0.663951
     35          1           0       -6.142601    0.975505   -0.356057
     36          1           0       -5.193178    0.257898   -1.659308
     37          1           0       -4.233554    0.829321    1.194447
     38          1           0       -3.748087    1.690861   -0.273780
     39          1           0        1.882256   -0.529244   -1.437185
     40          1           0        3.487487    0.375031    0.920232
     41          1           0        3.979153    0.309929   -0.766765
     42          1           0        5.159385   -1.494215    0.859696
     43          1           0        3.338218   -3.388094    1.318408
     44          1           0        2.719440   -1.841551    1.969065
     45          1           0        1.128460   -2.742395   -0.012627
     46          1           0        2.629962   -3.274135   -2.133909
     47          1           0        5.120873   -2.509028   -1.598183
     48          1           0        0.849781    2.161094    2.143373
     49          1           0        1.070051    4.581402    1.711109
     50          1           0        1.347088    5.416328   -0.617910
     51          1           0        1.404500    3.787145   -2.499897
     52          1           0        1.205621    1.377929   -2.062156
 ---------------------------------------------------------------------

 SCF Done:  E(RB3LYP) =  -947.629925759     A.U. after   10 cycles

 The electronic state is 1-A.
 Alpha  occ. eigenvalues --  -19.14841 -14.31815 -10.24797 -10.19856 -10.19788
 Alpha  occ. eigenvalues --  -10.19725 -10.19502 -10.19031 -10.18987 -10.18874
 Alpha  occ. eigenvalues --  -10.18853 -10.18697 -10.18678 -10.18627 -10.18624
 Alpha  occ. eigenvalues --  -10.17950 -10.17739 -10.17654 -10.17567 -10.17447
 Alpha  occ. eigenvalues --  -10.17424 -10.17413 -10.17358  -1.02262  -0.91775
 Alpha  occ. eigenvalues --   -0.87540  -0.85405  -0.79928  -0.78207  -0.74499
 Alpha  occ. eigenvalues --   -0.74358  -0.73660  -0.73569  -0.71240  -0.69349
 Alpha  occ. eigenvalues --   -0.66325  -0.62554  -0.61571  -0.60552  -0.59502
 Alpha  occ. eigenvalues --   -0.57477  -0.56118  -0.55527  -0.54500  -0.52797
 Alpha  occ. eigenvalues --   -0.51136  -0.51005  -0.48696  -0.48198  -0.47257
 Alpha  occ. eigenvalues --   -0.45979  -0.45173  -0.44708  -0.44289  -0.43890
 Alpha  occ. eigenvalues --   -0.43383  -0.41996  -0.41700  -0.40870  -0.39864
 Alpha  occ. eigenvalues --   -0.39358  -0.38892  -0.38062  -0.37452  -0.36482
 Alpha  occ. eigenvalues --   -0.36334  -0.35697  -0.34873  -0.34461  -0.34149
 Alpha  occ. eigenvalues --   -0.34146  -0.33893  -0.33543  -0.32956  -0.32320
 Alpha  occ. eigenvalues --   -0.31891  -0.31055  -0.30592  -0.30345  -0.29823
 Alpha  occ. eigenvalues --   -0.27066  -0.25184  -0.24687  -0.23132  -0.21237
 Alpha virt. eigenvalues --   -0.00551  -0.00188   0.02092   0.07321   0.09021
 Alpha virt. eigenvalues --    0.09677   0.10548   0.11134   0.11797   0.12435
 Alpha virt. eigenvalues --    0.12957   0.13812   0.14485   0.15311   0.15648

 Mulliken charges:
               1
     1  O   -0.687185
     2  C    0.232471
     3  C   -0.286030
     4  C   -0.114782
     5  N   -0.428026
     6  C   -0.127601
     7  C   -0.263850
     8  C   -0.265054
     9  C   -0.264655
    10  C   -0.119872
    11  C   -0.097776
    12  C   -0.292134
    13  C   -0.149380
    14  C   -0.266296
    15  C   -0.151890
    16  C   -0.129985
    17  C   -0.124227
    18  C    0.131425
    19  C   -0.206278
    20  C   -0.149635
    21  C   -0.149417
    22  C   -0.156506
    23  C   -0.200267
    24  H    0.429475
    25  H    0.154307
    26  H    0.143080
    27  H    0.141025
    28  H    0.122746
    29  H    0.146732
    30  H    0.109131
    31  H    0.134843
    32  H    0.136560
    33  H    0.132187
    34  H    0.136282
    35  H    0.136603
    36  H    0.134444
    37  H    0.108863
    38  H    0.141910
    39  H    0.137295
    40  H    0.136239
    41  H    0.146244
    42  H    0.125612
    43  H    0.135950
    44  H    0.133292
    45  H    0.130361
    46  H    0.138335
    47  H    0.138273
    48  H    0.142343
    49  H    0.147877
    50  H    0.147726
    51  H    0.148945
    52  H    0.150273
 Sum of Mulliken charges =  -0.00000

 Dipole moment (field-independent basis, Debye):
    X=              1.2270    Y=              0.9468    Z=             -0.0364  Tot=              1.5502
 Quadrupole moment (field-independent basis, Debye-Ang):
   XX=           -133.8454   YY=           -134.9569   ZZ=           -134.9550
   XY=              3.0549   XZ=             -0.1088   YZ=              1.8770

 Normal termination of Gaussian 16 at Wed Mar  2 07:18:06 2022.
