 Gaussian 16, Revision A.03,

 ----------------------------------------------------------------------
 #p b3lyp/6-31G(d) opt=(MaxStep=10,MaxCycles=1000) freq scf=(MaxCycle=2
 000,NoVarAcc,NoIncFock) scrf=(iefpcm,read,solvent=water)
 ----------------------------------------------------------------------

 -----------
 4.n.pdb.xyz
 -----------
 Symbolic Z-matrix:
 Charge =  0 Multiplicity = 1

 SCF Done:  E(RB3LYP) =  -1676.62448432     A.U. after   13 cycles
 SCF Done:  E(RB3LYP) =  -1676.62925283     A.U. after   10 cycles
 SCF Done:  E(RB3LYP) =  -1676.63256632     A.U. after   11 cycles
 SCF Done:  E(RB3LYP) =  -1676.63317633     A.U. after   10 cycles
 SCF Done:  E(RB3LYP) =  -1676.63154279     A.U. after   11 cycles
 SCF Done:  E(RB3LYP) =  -1676.63394256     A.U. after   10 cycles
 SCF Done:  E(RB3LYP) =  -1676.63399832     A.U. after    9 cycles
 SCF Done:  E(RB3LYP) =  -1676.63401388     A.U. after    9 cycles
 SCF Done:  E(RB3LYP) =  -1676.63401215     A.U. after    8 cycles
 SCF Done:  E(RB3LYP) =  -1676.63401432     A.U. after    7 cycles
 SCF Done:  E(RB3LYP) =  -1676.63401487     A.U. after    7 cycles
 SCF Done:  E(RB3LYP) =  -1676.63401965     A.U. after    7 cycles
 SCF Done:  E(RB3LYP) =  -1676.63401971     A.U. after    7 cycles
 SCF Done:  E(RB3LYP) =  -1676.63401979     A.U. after    6 cycles
 SCF Done:  E(RB3LYP) =  -1676.63401875     A.U. after    6 cycles
 Optimization completed.
    -- Stationary point found.
 Normal termination of Gaussian 16 at Tue Mar  1 21:50:00 2022.

 --------------------------------------------------------------------
 #P Geom=AllCheck Guess=TCheck SCRF=Check GenChk RB3LYP/6-31G(d) Freq
 --------------------------------------------------------------------

 Structure from the checkpoint file:  "4.n.pdb.xyz.mst.wat.chk"
 -----------
 4.n.pdb.xyz
 -----------
 Charge =  0 Multiplicity = 1

 SCF Done:  E(RB3LYP) =  -1676.63401875     A.U. after    1 cycles

  Exact polarizability: 399.081 -21.562 467.256 -20.103 -13.607 212.199
 Approx polarizability: 435.434 -17.933 496.488 -24.799 -13.210 245.302

                      1                      2                      3
                      A                      A                      A
 Frequencies --      9.9550                19.8399                24.1181
 Red. masses --      4.9811                 5.9373                 6.3948
 Frc consts  --      0.0003                 0.0014                 0.0022
 IR Inten    --      0.0352                 0.2803                 0.2651

                      4                      5                      6
                      A                      A                      A
 Frequencies --     27.9170                35.5368                47.1190
 Red. masses --      4.8805                 3.8051                 5.6246
 Frc consts  --      0.0022                 0.0028                 0.0074
 IR Inten    --      0.5101                 0.5054                 0.3880

                      7                      8                      9
                      A                      A                      A
 Frequencies --     77.4066                86.0580               109.9551
 Red. masses --      6.8484                 3.6536                 3.4080
 Frc consts  --      0.0242                 0.0159                 0.0243
 IR Inten    --      1.5980                 0.2114                 0.4153

                     10                     11                     12
                      A                      A                      A
 Frequencies --    119.1709               131.2127               148.3721
 Red. masses --      5.5893                 5.0165                 5.6961
 Frc consts  --      0.0468                 0.0509                 0.0739
 IR Inten    --      0.6089                 1.0447                 0.5216

                     13                     14                     15
                      A                      A                      A
 Frequencies --    171.9427               193.8775               221.1286
 Red. masses --      2.4556                 5.5755                 2.6227
 Frc consts  --      0.0428                 0.1235                 0.0756
 IR Inten    --      2.2084                 0.4501                 0.5713

                     16                     17                     18
                      A                      A                      A
 Frequencies --    233.3622               246.2220               252.0847
 Red. masses --      1.4665                 4.2578                 8.8159
 Frc consts  --      0.0471                 0.1521                 0.3301
 IR Inten    --      1.4874                 3.3994                 0.3746

                     19                     20                     21
                      A                      A                      A
 Frequencies --    267.7198               274.9291               289.5713
 Red. masses --      2.1881                 6.5442                 2.1974
 Frc consts  --      0.0924                 0.2914                 0.1086
 IR Inten    --      4.2399                 2.8950                 1.8564

                     22                     23                     24
                      A                      A                      A
 Frequencies --    314.2100               334.4333               349.1695
 Red. masses --      2.3392                 4.3528                 5.9429
 Frc consts  --      0.1361                 0.2868                 0.4269
 IR Inten    --     14.4651                 0.5429                 1.3194

                     25                     26                     27
                      A                      A                      A
 Frequencies --    361.5028               388.8752               408.2142
 Red. masses --      4.7657                 7.6134                 2.1960
 Frc consts  --      0.3669                 0.6783                 0.2156
 IR Inten    --      1.7438                 1.0167                 3.5875

                     28                     29                     30
                      A                      A                      A
 Frequencies --    419.1448               423.4387               433.4985
 Red. masses --      3.9310                 3.3275                 2.4510
 Frc consts  --      0.4069                 0.3515                 0.2714
 IR Inten    --     10.1768                 4.2426                10.5267

                     31                     32                     33
                      A                      A                      A
 Frequencies --    438.5444               459.1812               466.6259
 Red. masses --      5.6086                 3.9169                 4.1834
 Frc consts  --      0.6355                 0.4866                 0.5367
 IR Inten    --      1.9741                 2.9903                 2.6175

                     34                     35                     36
                      A                      A                      A
 Frequencies --    483.6909               499.9627               518.5856
 Red. masses --      4.9562                 3.9045                 4.8549
 Frc consts  --      0.6832                 0.5750                 0.7693
 IR Inten    --     13.6225                 2.6289                 6.9051

                     37                     38                     39
                      A                      A                      A
 Frequencies --    526.2791               532.7153               553.4104
 Red. masses --      5.2900                 7.4378                 4.1607
 Frc consts  --      0.8633                 1.2436                 0.7508
 IR Inten    --      6.7809                 9.2431                 0.4614

                     40                     41                     42
                      A                      A                      A
 Frequencies --    573.2305               581.3681               623.0358
 Red. masses --      3.0354                 3.1597                 5.8900
 Frc consts  --      0.5877                 0.6292                 1.3471
 IR Inten    --      0.4909                 0.6519                 1.8935

                     43                     44                     45
                      A                      A                      A
 Frequencies --    648.8444               665.7887               688.2101
 Red. masses --      6.1282                 5.9501                 6.4934
 Frc consts  --      1.5201                 1.5540                 1.8120
 IR Inten    --     16.7531                 8.6125                 3.7229

                     46                     47                     48
                      A                      A                      A
 Frequencies --    707.8646               727.6591               735.8001
 Red. masses --      7.4322                 4.8123                 4.6106
 Frc consts  --      2.1942                 1.5013                 1.4707
 IR Inten    --     10.2236                 0.2127                10.6421

                     49                     50                     51
                      A                      A                      A
 Frequencies --    745.0481               762.1001               763.4258
 Red. masses --      4.5014                 1.3407                 1.1566
 Frc consts  --      1.4722                 0.4588                 0.3972
 IR Inten    --     18.8422                71.2354                26.7770

                     52                     53                     54
                      A                      A                      A
 Frequencies --    774.7015               791.5624               820.0021
 Red. masses --      3.7011                 3.6534                 4.5001
 Frc consts  --      1.3087                 1.3487                 1.7828
 IR Inten    --     12.8475                10.0546                 9.4021

                     55                     56                     57
                      A                      A                      A
 Frequencies --    835.3129               856.8094               864.1238
 Red. masses --      1.3711                 1.7067                 1.3692
 Frc consts  --      0.5637                 0.7382                 0.6024
 IR Inten    --     43.8333                 2.9758                 2.2461

                     58                     59                     60
                      A                      A                      A
 Frequencies --    876.7362               895.5217               915.5555
 Red. masses --      1.6034                 1.3821                 2.0633
 Frc consts  --      0.7262                 0.6530                 1.0190
 IR Inten    --     27.3748                45.4407                30.7323

                     61                     62                     63
                      A                      A                      A
 Frequencies --    939.6966               956.5757               958.8646
 Red. masses --      1.3518                 1.4606                 2.4688
 Frc consts  --      0.7033                 0.7874                 1.3374
 IR Inten    --      3.7760                15.3775                71.4061

                     64                     65                     66
                      A                      A                      A
 Frequencies --    980.9205               994.7866              1014.4605
 Red. masses --      1.2597                 2.4512                 2.6649
 Frc consts  --      0.7142                 1.4292                 1.6158
 IR Inten    --      0.1359                14.3322                39.6078

                     67                     68                     69
                      A                      A                      A
 Frequencies --   1031.9262              1063.0966              1067.8559
 Red. masses --      2.8016                 2.7928                 4.9187
 Frc consts  --      1.7577                 1.8597                 3.3046
 IR Inten    --     27.4451                 8.5790                44.3123

                     70                     71                     72
                      A                      A                      A
 Frequencies --   1068.6770              1079.7658              1083.6335
 Red. masses --      6.5647                 2.4324                 2.2922
 Frc consts  --      4.4173                 1.6709                 1.5859
 IR Inten    --     32.1608                 6.0621                52.6429

                     73                     74                     75
                      A                      A                      A
 Frequencies --   1095.8863              1106.7161              1111.0451
 Red. masses --      1.9359                 3.0472                 2.2534
 Frc consts  --      1.3698                 2.1990                 1.6389
 IR Inten    --      1.6878                28.6926                 8.3572

                     76                     77                     78
                      A                      A                      A
 Frequencies --   1121.6190              1128.6016              1135.4270
 Red. masses --      2.3681                 3.2006                10.9809
 Frc consts  --      1.7552                 2.4019                 8.3408
 IR Inten    --    110.8894               208.9837               362.8058

                     79                     80                     81
                      A                      A                      A
 Frequencies --   1140.4101              1158.1477              1161.4715
 Red. masses --      2.3557                 1.7553                 1.6988
 Frc consts  --      1.8051                 1.3872                 1.3502
 IR Inten    --     25.3072                28.2181               114.1330

                     82                     83                     84
                      A                      A                      A
 Frequencies --   1167.4879              1176.8017              1181.6729
 Red. masses --      1.8687                 1.9925                 2.4159
 Frc consts  --      1.5007                 1.6258                 1.9876
 IR Inten    --    100.1530                11.0691               165.5422

                     85                     86                     87
                      A                      A                      A
 Frequencies --   1188.2444              1201.6038              1224.1611
 Red. masses --      2.0058                 1.1969                 1.4194
 Frc consts  --      1.6686                 1.0182                 1.2532
 IR Inten    --      7.6496                 8.4206                71.7162

                     88                     89                     90
                      A                      A                      A
 Frequencies --   1255.8614              1260.1659              1277.6383
 Red. masses --      1.2465                 1.8665                 2.5699
 Frc consts  --      1.1583                 1.7463                 2.4716
 IR Inten    --     48.8760                41.7197               318.7806

                     91                     92                     93
                      A                      A                      A
 Frequencies --   1281.4978              1284.7571              1309.9462
 Red. masses --      1.5702                 1.5643                 1.4328
 Frc consts  --      1.5193                 1.5213                 1.4486
 IR Inten    --     31.0363                13.1966                37.9280

                     94                     95                     96
                      A                      A                      A
 Frequencies --   1321.8347              1329.5447              1331.0402
 Red. masses --      1.5123                 1.5907                 1.3483
 Frc consts  --      1.5568                 1.6567                 1.4074
 IR Inten    --     35.4197                24.9138                 1.3801

                     97                     98                     99
                      A                      A                      A
 Frequencies --   1339.3335              1341.3646              1346.8140
 Red. masses --      3.7240                 5.8810                 1.3639
 Frc consts  --      3.9359                 6.2344                 1.4577
 IR Inten    --    436.2468                53.1200                63.3932

                    100                    101                    102
                      A                      A                      A
 Frequencies --   1356.5803              1362.3053              1368.5291
 Red. masses --      1.1552                 9.7309                 1.2782
 Frc consts  --      1.2525                10.6403                 1.4105
 IR Inten    --     57.0622                 3.0014                 5.3610

                    103                    104                    105
                      A                      A                      A
 Frequencies --   1392.6236              1402.0688              1405.4219
 Red. masses --      1.7279                 1.3482                 1.3619
 Frc consts  --      1.9744                 1.5615                 1.5849
 IR Inten    --    116.3914                48.8675                19.2589

                    106                    107                    108
                      A                      A                      A
 Frequencies --   1417.1159              1422.8869              1443.6498
 Red. masses --      1.3873                 1.5053                 1.5068
 Frc consts  --      1.6414                 1.7956                 1.8502
 IR Inten    --     62.1629                20.9338                69.6469

                    109                    110                    111
                      A                      A                      A
 Frequencies --   1458.9462              1479.5176              1486.3997
 Red. masses --      3.4196                 1.1692                 2.2851
 Frc consts  --      4.2885                 1.5080                 2.9746
 IR Inten    --    467.5969                 1.8252                59.5811

                    112                    113                    114
                      A                      A                      A
 Frequencies --   1510.2682              1511.3445              1516.6857
 Red. masses --      1.0530                 1.0972                 1.7092
 Frc consts  --      1.4151                 1.4766                 2.3164
 IR Inten    --     13.7370                20.1231               157.3105

                    115                    116                    117
                      A                      A                      A
 Frequencies --   1517.6947              1521.2043              1527.1414
 Red. masses --      1.3409                 1.0862                 1.1310
 Frc consts  --      1.8198                 1.4810                 1.5540
 IR Inten    --     73.9114                 3.3347                 4.8112

                    118                    119                    120
                      A                      A                      A
 Frequencies --   1528.6440              1532.0865              1539.0829
 Red. masses --      1.1270                 1.1355                 1.0856
 Frc consts  --      1.5516                 1.5704                 1.5151
 IR Inten    --     21.9118                12.9613                 2.4669

                    121                    122                    123
                      A                      A                      A
 Frequencies --   1544.9633              1549.4721              1623.1331
 Red. masses --      1.0949                 2.0424                 6.0826
 Frc consts  --      1.5398                 2.8891                 9.4417
 IR Inten    --     18.3013                 9.6204                15.0304

                    124                    125                    126
                      A                      A                      A
 Frequencies --   1628.2086              1644.0651              1656.6659
 Red. masses --      5.8370                 6.2311                 5.6603
 Frc consts  --      9.1172                 9.9232                 9.1529
 IR Inten    --     43.2378                 2.0471                85.6512

                    127                    128                    129
                      A                      A                      A
 Frequencies --   2942.1577              2946.9531              2954.8414
 Red. masses --      1.0719                 1.0730                 1.0614
 Frc consts  --      5.4669                 5.4905                 5.4600
 IR Inten    --     89.2265                70.3877                58.8594

                    130                    131                    132
                      A                      A                      A
 Frequencies --   2962.3972              3033.4174              3042.1386
 Red. masses --      1.0732                 1.0706                 1.0706
 Frc consts  --      5.5491                 5.8042                 5.8376
 IR Inten    --    308.7835                49.4648               109.6396

                    133                    134                    135
                      A                      A                      A
 Frequencies --   3066.8291              3072.5985              3075.0334
 Red. masses --      1.0881                 1.0898                 1.0864
 Frc consts  --      6.0298                 6.0620                 6.0528
 IR Inten    --    150.2218                36.0256                54.6470

                    136                    137                    138
                      A                      A                      A
 Frequencies --   3082.6290              3086.1699              3092.9463
 Red. masses --      1.0602                 1.0719                 1.0605
 Frc consts  --      5.9358                 6.0149                 5.9771
 IR Inten    --      8.1153                73.6527                88.1746

                    139                    140                    141
                      A                      A                      A
 Frequencies --   3114.4024              3117.3364              3121.8790
 Red. masses --      1.0947                 1.0996                 1.0967
 Frc consts  --      6.2561                 6.2959                 6.2973
 IR Inten    --     54.1950                 6.5537                26.2758

                    142                    143                    144
                      A                      A                      A
 Frequencies --   3134.7652              3136.9306              3212.9368
 Red. masses --      1.1028                 1.1058                 1.0872
 Frc consts  --      6.3849                 6.4113                 6.6127
 IR Inten    --     61.0754                97.8961                 3.2501

                    145                    146                    147
                      A                      A                      A
 Frequencies --   3219.6154              3222.9762              3236.3458
 Red. masses --      1.0899                 1.0899                 1.0962
 Frc consts  --      6.6563                 6.6702                 6.7644
 IR Inten    --      9.2244                17.7599                47.2387

                    148                    149                    150
                      A                      A                      A
 Frequencies --   3248.0006              3266.9819              3285.9244
 Red. masses --      1.0934                 1.0905                 1.0886
 Frc consts  --      6.7964                 6.8578                 6.9253
 IR Inten    --      7.4820                14.3027                 1.5498

 - Thermochemistry -
 -------------------
 Temperature   298.150 Kelvin.  Pressure   1.00000 Atm.
 Atom     1 has atomic number  6 and mass  12.00000

 Molecular mass:   407.16430 amu.
 Principal axes and moments of inertia in atomic units:
                           1         2         3
     Eigenvalues --  ******************************
           X            0.99985   0.01706  -0.00359
           Y           -0.01708   0.99984  -0.00501
           Z            0.00350   0.00507   0.99998
 This molecule is an asymmetric top.
 Rotational symmetry number  1.
 Warning -- assumption of classical behavior for rotation
           may cause significant error
 Rotational temperatures (Kelvin)      0.00843     0.00458     0.00308
 Rotational constants (GHZ):           0.17564     0.09547     0.06411
 Zero-point vibrational energy    1118472.2 (Joules/Mol)
                                  267.32127 (Kcal/Mol)
 Warning -- explicit consideration of  41 degrees of freedom as
           vibrations may cause significant error
 Vibrational temperatures:     14.32    28.55    34.70    40.17    51.13
          (Kelvin)             67.79   111.37   123.82   158.20   171.46
                              188.79   213.47   247.39   278.95   318.15
                              335.76   354.26   362.69   385.19   395.56
                              416.63   452.08   481.17   502.38   520.12
                              559.50   587.33   603.06   609.23   623.71
                              630.97   660.66   671.37   695.92   719.33
                              746.13   757.20   766.46   796.23   824.75
                              836.46   896.41   933.54   957.92   990.18
                             1018.46  1046.94  1058.65  1071.96  1096.49
                             1098.40  1114.62  1138.88  1179.80  1201.83
                             1232.76  1243.28  1261.43  1288.46  1317.28
                             1352.01  1376.30  1379.59  1411.33  1431.28
                             1459.58  1484.71  1529.56  1536.41  1537.59
                             1553.54  1559.11  1576.74  1592.32  1598.55
                             1613.76  1623.81  1633.63  1640.80  1666.32
                             1671.10  1679.75  1693.16  1700.16  1709.62
                             1728.84  1761.29  1806.90  1813.10  1838.24
                             1843.79  1848.48  1884.72  1901.83  1912.92
                             1915.07  1927.00  1929.92  1937.77  1951.82
                             1960.05  1969.01  2003.67  2017.26  2022.09
                             2038.91  2047.22  2077.09  2099.10  2128.70
                             2138.60  2172.94  2174.49  2182.17  2183.62
                             2188.67  2197.22  2199.38  2204.33  2214.40
                             2222.86  2229.34  2335.33  2342.63  2365.44
                             2383.57  4233.11  4240.01  4251.36  4262.23
                             4364.41  4376.96  4412.48  4420.78  4424.29
                             4435.22  4440.31  4450.06  4480.93  4485.15
                             4491.69  4510.23  4513.34  4622.70  4632.31
                             4637.14  4656.38  4673.15  4700.46  4727.71

 Zero-point correction=                           0.426004 (Hartree/Particle)
 Thermal correction to Energy=                    0.451024
 Thermal correction to Enthalpy=                  0.451969
 Thermal correction to Gibbs Free Energy=         0.367423
 Sum of electronic and zero-point Energies=          -1676.208015
 Sum of electronic and thermal Energies=             -1676.182994
 Sum of electronic and thermal Enthalpies=           -1676.182050
 Sum of electronic and thermal Free Energies=        -1676.266596

                     E (Thermal)             CV                S
                      KCal/Mol        Cal/Mol-Kelvin    Cal/Mol-Kelvin
 Total                  283.022             97.693            177.942
 Electronic               0.000              0.000              0.000
 Translational            0.889              2.981             43.903
 Rotational               0.889              2.981             36.945
 Vibrational            281.245             91.731             97.093
 Vibration     1          0.593              1.987              8.020
 Vibration     2          0.593              1.986              6.650
 Vibration     3          0.593              1.985              6.262
 Vibration     4          0.593              1.984              5.972
 Vibration     5          0.594              1.982              5.494
 Vibration     6          0.595              1.979              4.935
 Vibration     7          0.599              1.964              3.956
 Vibration     8          0.601              1.959              3.748
 Vibration     9          0.606              1.941              3.270
 Vibration    10          0.609              1.933              3.114
 Vibration    11          0.612              1.922              2.928
 Vibration    12          0.618              1.904              2.693
 Vibration    13          0.626              1.877              2.414
 Vibration    14          0.635              1.848              2.190
 Vibration    15          0.648              1.809              1.950
 Vibration    16          0.654              1.790              1.853
 Vibration    17          0.661              1.769              1.757
 Vibration    18          0.664              1.759              1.716
 Vibration    19          0.673              1.732              1.611
 Vibration    20          0.677              1.720              1.565
 Vibration    21          0.686              1.693              1.476
 Vibration    22          0.702              1.647              1.340
 Vibration    23          0.716              1.607              1.239
 Vibration    24          0.726              1.577              1.170
 Vibration    25          0.736              1.552              1.116
 Vibration    26          0.757              1.494              1.004
 Vibration    27          0.773              1.452              0.933
 Vibration    28          0.782              1.429              0.895
 Vibration    29          0.786              1.419              0.880
 Vibration    30          0.794              1.397              0.847
 Vibration    31          0.799              1.386              0.831
 Vibration    32          0.817              1.341              0.768
 Vibration    33          0.824              1.324              0.747
 Vibration    34          0.840              1.286              0.700
 Vibration    35          0.855              1.250              0.658
 Vibration    36          0.874              1.209              0.613
 Vibration    37          0.881              1.192              0.596
 Vibration    38          0.888              1.178              0.581
 Vibration    39          0.909              1.132              0.537
 Vibration    40          0.929              1.089              0.498
 Vibration    41          0.938              1.072              0.483

                           ! Non-Optimized Parameters !
 Normal termination of Gaussian 16 at Tue Mar  1 23:33:26 2022.

 ------------------------------------------
 #p b3lyp/6-31G(d) geom=allcheck guess=read
 ------------------------------------------

 Structure from the checkpoint file:  "4.n.pdb.xyz.mst.wat.chk"
 -----------
 4.n.pdb.xyz
 -----------
 Charge =  0 Multiplicity = 1

 SCF Done:  E(RB3LYP) =  -1676.62906351     A.U. after   11 cycles
 Normal termination of Gaussian 16 at Tue Mar  1 23:38:26 2022.
 Gaussian 16:  ES64L-G16RevA.03 25-Dec-2016

 ----------------------------------------------------------------------
 #p b3lyp/6-31G(d) scrf=(iefpcm,read,solvent=water) geom=allcheck guess
 =read
 ----------------------------------------------------------------------

 Structure from the checkpoint file:  "4.n.pdb.xyz.mst.wat.chk"
 -----------
 4.n.pdb.xyz
 -----------
 Charge =  0 Multiplicity = 1

                         Standard orientation:
 ---------------------------------------------------------------------
 Center     Atomic      Atomic             Coordinates (Angstroms)
 Number     Number       Type             X           Y           Z
 ---------------------------------------------------------------------
      1          6           0       -7.620246    0.113954    0.213328
      2          7           0       -6.421477   -0.127236   -0.579976
      3          6           0       -5.457223    0.968896   -0.411041
      4          6           0       -4.071103    0.537843   -0.887365
      5          7           0       -3.513380   -0.584669   -0.095934
      6          6           0       -2.466801   -0.180374    0.844481
      7          6           0       -1.150464    0.177442    0.147921
      8          6           0       -0.071805    0.560731    1.175723
      9          7           0        1.228427    0.981621    0.635385
     10          6           0        2.156449   -0.012144    0.273120
     11          6           0        1.778106   -1.359780    0.169382
     12          6           0        2.707093   -2.346016   -0.166005
     13          6           0        4.032217   -2.022711   -0.442470
     14          6           0        4.421632   -0.688354   -0.353221
     15          6           0        3.512606    0.298656    0.026592
     16         16           0        4.127211    1.936106    0.330412
     17          6           0        2.656714    2.873738   -0.024897
     18          6           0        1.382049    2.325473    0.224996
     19          6           0        0.273683    3.176213    0.070490
     20          6           0        0.429902    4.507668   -0.317362
     21          6           0        1.693216    5.024233   -0.591654
     22          6           0        2.804781    4.192819   -0.451790
     23          6           0        2.268730   -3.779035   -0.184986
     24          9           0        0.964253   -3.911159   -0.517993
     25          9           0        2.415208   -4.373172    1.026516
     26          9           0        2.985877   -4.516827   -1.061786
     27          6           0       -4.571859   -1.343480    0.589257
     28          6           0       -5.802704   -1.443880   -0.307599
     29          1           0       -8.079272    1.058434   -0.097061
     30          1           0       -7.421919    0.180363    1.299210
     31          1           0       -8.344281   -0.687953    0.045735
     32          1           0       -5.392903    1.288805    0.645068
     33          1           0       -5.797172    1.840053   -0.983520
     34          1           0       -3.388920    1.389688   -0.834177
     35          1           0       -4.134189    0.249610   -1.944134
     36          1           0       -2.292954   -1.029320    1.515787
     37          1           0       -2.790455    0.661447    1.485893
     38          1           0       -0.825986   -0.675225   -0.454508
     39          1           0       -1.307312    1.004156   -0.550441
     40          1           0       -0.434175    1.377907    1.804385
     41          1           0        0.118325   -0.281891    1.845659
     42          1           0        0.754619   -1.656521    0.339097
     43          1           0        4.742587   -2.789641   -0.723564
     44          1           0        5.449073   -0.406925   -0.556254
     45          1           0       -0.724304    2.804012    0.251883
     46          1           0       -0.450894    5.131409   -0.414964
     47          1           0        1.818751    6.053820   -0.905902
     48          1           0        3.802120    4.570381   -0.648797
     49          1           0       -4.193266   -2.343724    0.827944
     50          1           0       -4.860502   -0.874522    1.546700
     51          1           0       -6.547491   -2.096182    0.155337
     52          1           0       -5.507726   -1.914825   -1.254327
 ---------------------------------------------------------------------

 SCF Done:  E(RB3LYP) =  -1676.63254591     A.U. after   10 cycles

 The electronic state is 1-A.
 Alpha  occ. eigenvalues --  -88.90100 -24.72993 -24.72955 -24.72367 -14.38154
 Alpha  occ. eigenvalues --  -14.32247 -14.32114 -10.43615 -10.25419 -10.24758
 Alpha  occ. eigenvalues --  -10.23628 -10.22887 -10.22785 -10.21709 -10.20903
 Alpha  occ. eigenvalues --  -10.20728 -10.20700 -10.20507 -10.20365 -10.20342
 Alpha  occ. eigenvalues --  -10.20329 -10.20297 -10.20018 -10.19723 -10.19637
 Alpha  occ. eigenvalues --  -10.19522 -10.19141 -10.18699  -7.96178  -5.92677
 Alpha  occ. eigenvalues --   -5.92315  -5.91684  -1.30506  -1.22001  -1.21438
 Alpha  occ. eigenvalues --   -0.97773  -0.93697  -0.89535  -0.87880  -0.86577
 Alpha  occ. eigenvalues --   -0.82250  -0.78656  -0.77632  -0.77206  -0.75614
 Alpha  occ. eigenvalues --   -0.74235  -0.72602  -0.71524  -0.68528  -0.67141
 Alpha  occ. eigenvalues --   -0.64861  -0.64152  -0.63360  -0.61826  -0.60425
 Alpha  occ. eigenvalues --   -0.59402  -0.59328  -0.58338  -0.58166  -0.56153
 Alpha  occ. eigenvalues --   -0.53368  -0.52637  -0.51038  -0.50175  -0.49363
 Alpha  occ. eigenvalues --   -0.49059  -0.48216  -0.47372  -0.46476  -0.46255
 Alpha  occ. eigenvalues --   -0.45918  -0.45537  -0.45247  -0.44899  -0.43920
 Alpha  occ. eigenvalues --   -0.43472  -0.42633  -0.42356  -0.42202  -0.41536
 Alpha  occ. eigenvalues --   -0.41346  -0.41175  -0.40267  -0.40156  -0.39006
 Alpha  occ. eigenvalues --   -0.38789  -0.38449  -0.38314  -0.37965  -0.37393
 Alpha  occ. eigenvalues --   -0.37024  -0.36807  -0.35529  -0.35456  -0.35021
 Alpha  occ. eigenvalues --   -0.34316  -0.33932  -0.33617  -0.32680  -0.31583
 Alpha  occ. eigenvalues --   -0.30941  -0.26764  -0.26596  -0.23525  -0.21080
 Alpha  occ. eigenvalues --   -0.20791  -0.19109
 Alpha virt. eigenvalues --   -0.03576  -0.02107  -0.01082   0.00933   0.02877
 Alpha virt. eigenvalues --    0.06155   0.07698   0.09471   0.10556   0.11868
 Alpha virt. eigenvalues --    0.12035   0.12256   0.12599   0.12884   0.12956

 Mulliken charges:
               1
     1  C   -0.310086
     2  N   -0.416888
     3  C   -0.129703
     4  C   -0.158278
     5  N   -0.429495
     6  C   -0.127594
     7  C   -0.292578
     8  C   -0.176248
     9  N   -0.606853
    10  C    0.339668
    11  C   -0.221103
    12  C   -0.023477
    13  C   -0.166927
    14  C   -0.195175
    15  C   -0.121202
    16  S    0.153380
    17  C   -0.137028
    18  C    0.331453
    19  C   -0.185615
    20  C   -0.164555
    21  C   -0.139482
    22  C   -0.192324
    23  C    0.784714
    24  F   -0.275205
    25  F   -0.271316
    26  F   -0.275595
    27  C   -0.131254
    28  C   -0.154102
    29  H    0.154704
    30  H    0.127746
    31  H    0.156666
    32  H    0.124535
    33  H    0.148331
    34  H    0.154933
    35  H    0.149206
    36  H    0.152847
    37  H    0.128202
    38  H    0.157424
    39  H    0.161329
    40  H    0.179182
    41  H    0.178404
    42  H    0.169113
    43  H    0.168510
    44  H    0.171691
    45  H    0.158951
    46  H    0.156242
    47  H    0.153586
    48  H    0.163093
    49  H    0.149685
    50  H    0.127654
    51  H    0.154559
    52  H    0.146278
 Sum of Mulliken charges =  -0.00000

 Dipole moment (field-independent basis, Debye):
    X=             -2.6206    Y=              3.1326    Z=              1.6789  Tot=              4.4158
 Quadrupole moment (field-independent basis, Debye-Ang):
   XX=           -163.0376   YY=           -170.4857   ZZ=           -174.8720
   XY=             -1.2277   XZ=            -13.5459   YZ=             -4.3006

 Normal termination of Gaussian 16 at Tue Mar  1 23:44:19 2022.
