 Gaussian 16, Revision A.03,

 ----------------------------------------------------------------------
 #p b3lyp/6-31G(d) opt=(MaxStep=10,MaxCycles=1000) freq scf=(MaxCycle=2
 000,NoVarAcc,NoIncFock) scrf=(iefpcm,read,solvent=water)
 ----------------------------------------------------------------------

 ------------
 40.n.pdb.xyz
 ------------
 Symbolic Z-matrix:
 Charge =  0 Multiplicity = 1

 SCF Done:  E(RB3LYP) =  -847.954527523     A.U. after   12 cycles
 SCF Done:  E(RB3LYP) =  -847.959536930     A.U. after   10 cycles
 SCF Done:  E(RB3LYP) =  -847.960415872     A.U. after   10 cycles
 SCF Done:  E(RB3LYP) =  -847.962150475     A.U. after   10 cycles
 SCF Done:  E(RB3LYP) =  -847.962101409     A.U. after   10 cycles
 SCF Done:  E(RB3LYP) =  -847.961177256     A.U. after   11 cycles
 SCF Done:  E(RB3LYP) =  -847.960778371     A.U. after   10 cycles
 SCF Done:  E(RB3LYP) =  -847.962514597     A.U. after    8 cycles
 SCF Done:  E(RB3LYP) =  -847.963017916     A.U. after   10 cycles
 SCF Done:  E(RB3LYP) =  -847.963031767     A.U. after    9 cycles
 SCF Done:  E(RB3LYP) =  -847.964527510     A.U. after    9 cycles
 SCF Done:  E(RB3LYP) =  -847.964568894     A.U. after    8 cycles
 SCF Done:  E(RB3LYP) =  -847.964590601     A.U. after    8 cycles
 SCF Done:  E(RB3LYP) =  -847.964598942     A.U. after    8 cycles
 SCF Done:  E(RB3LYP) =  -847.964600154     A.U. after    7 cycles
 SCF Done:  E(RB3LYP) =  -847.964598251     A.U. after    7 cycles
 SCF Done:  E(RB3LYP) =  -847.964601189     A.U. after    6 cycles
 Optimization completed.
    -- Stationary point found.
 Normal termination of Gaussian 16 at Tue Mar  1 08:00:32 2022.

 --------------------------------------------------------------------
 #P Geom=AllCheck Guess=TCheck SCRF=Check GenChk RB3LYP/6-31G(d) Freq
 --------------------------------------------------------------------

 Structure from the checkpoint file:  "40.n.pdb.xyz.mst.wat.chk"
 ------------
 40.n.pdb.xyz
 ------------
 Charge =  0 Multiplicity = 1

 SCF Done:  E(RB3LYP) =  -847.964601189     A.U. after    1 cycles

  Exact polarizability: 319.859 -10.226 356.898  27.443   6.744 189.808
 Approx polarizability: 345.689 -11.150 376.879  33.505   8.911 213.682

                      1                      2                      3
                      A                      A                      A
 Frequencies --     18.6697                32.5971                36.9096
 Red. masses --      4.1748                 2.5640                 3.8755
 Frc consts  --      0.0009                 0.0016                 0.0031
 IR Inten    --      0.0164                 0.8713                 0.2722

                      4                      5                      6
                      A                      A                      A
 Frequencies --     56.3579                92.2548                96.9135
 Red. masses --      4.2311                 3.4744                 3.5615
 Frc consts  --      0.0079                 0.0174                 0.0197
 IR Inten    --      0.3231                 1.2993                 1.0407

                      7                      8                      9
                      A                      A                      A
 Frequencies --    133.0808               143.5465               163.2060
 Red. masses --      2.3495                 3.5717                 3.1612
 Frc consts  --      0.0245                 0.0434                 0.0496
 IR Inten    --      1.0381                 0.1475                 2.5026

                     10                     11                     12
                      A                      A                      A
 Frequencies --    183.0311               198.4150               249.0770
 Red. masses --      2.6334                 3.4626                 1.1267
 Frc consts  --      0.0520                 0.0803                 0.0412
 IR Inten    --      1.3362                 0.2919                 1.7236

                     13                     14                     15
                      A                      A                      A
 Frequencies --    267.5901               273.5857               304.3070
 Red. masses --      2.8537                 1.2594                 2.8920
 Frc consts  --      0.1204                 0.0555                 0.1578
 IR Inten    --      1.1406                 0.2109                 2.8196

                     16                     17                     18
                      A                      A                      A
 Frequencies --    308.0608               335.2918               340.1997
 Red. masses --      2.9457                 3.9088                 3.6449
 Frc consts  --      0.1647                 0.2589                 0.2485
 IR Inten    --      2.5923                 2.0329                 1.7857

                     19                     20                     21
                      A                      A                      A
 Frequencies --    360.6809               367.1766               374.2725
 Red. masses --      3.1714                 2.3737                 2.9851
 Frc consts  --      0.2431                 0.1885                 0.2464
 IR Inten    --     10.0352                 7.8065                 2.5609

                     22                     23                     24
                      A                      A                      A
 Frequencies --    438.6472               452.5333               479.6335
 Red. masses --      2.2793                 2.7808                 3.0320
 Frc consts  --      0.2584                 0.3355                 0.4110
 IR Inten    --      0.7993                 4.0486                 4.8359

                     25                     26                     27
                      A                      A                      A
 Frequencies --    483.0338               504.7330               533.8651
 Red. masses --      3.7277                 3.7287                 3.6423
 Frc consts  --      0.5124                 0.5597                 0.6116
 IR Inten    --      2.6805                 7.4729                 5.3994

                     28                     29                     30
                      A                      A                      A
 Frequencies --    560.8425               568.1013               597.1292
 Red. masses --      3.7472                 4.2355                 3.1274
 Frc consts  --      0.6944                 0.8054                 0.6570
 IR Inten    --      1.3634                 1.1789                 2.9090

                     31                     32                     33
                      A                      A                      A
 Frequencies --    625.4305               634.3579               697.6601
 Red. masses --      5.3653                 4.5757                 5.0092
 Frc consts  --      1.2365                 1.0849                 1.4365
 IR Inten    --      6.1236                25.3108                 0.3185

                     34                     35                     36
                      A                      A                      A
 Frequencies --    731.1754               758.8894               766.5539
 Red. masses --      3.3649                 1.5651                 1.5468
 Frc consts  --      1.0599                 0.5311                 0.5355
 IR Inten    --      0.2186                24.9793                18.8344

                     37                     38                     39
                      A                      A                      A
 Frequencies --    767.7773               780.3160               786.9951
 Red. masses --      1.8329                 1.5279                 2.2572
 Frc consts  --      0.6366                 0.5481                 0.8237
 IR Inten    --     25.8969                86.3630                 1.8831

                     40                     41                     42
                      A                      A                      A
 Frequencies --    810.7555               854.1986               863.5373
 Red. masses --      4.0194                 1.7823                 3.4920
 Frc consts  --      1.5566                 0.7662                 1.5342
 IR Inten    --      0.5663                 3.6897                43.4277

                     43                     44                     45
                      A                      A                      A
 Frequencies --    870.6774               890.9636               916.7728
 Red. masses --      1.3835                 1.4275                 1.8736
 Frc consts  --      0.6179                 0.6677                 0.9278
 IR Inten    --      5.1551                 3.7416                14.6273

                     46                     47                     48
                      A                      A                      A
 Frequencies --    944.3910               949.7512               957.1518
 Red. masses --      1.7828                 1.7768                 1.4094
 Frc consts  --      0.9368                 0.9443                 0.7608
 IR Inten    --      7.4004                12.5148                 5.5168

                     49                     50                     51
                      A                      A                      A
 Frequencies --    976.2159               978.8245               990.3817
 Red. masses --      2.1709                 1.2481                 1.2606
 Frc consts  --      1.2190                 0.7045                 0.7285
 IR Inten    --      1.0812                 0.2341                 0.4189

                     52                     53                     54
                      A                      A                      A
 Frequencies --   1010.7975              1052.3696              1058.0289
 Red. masses --      3.5244                 2.9409                 2.5666
 Frc consts  --      2.1216                 1.9189                 1.6928
 IR Inten    --      8.8007                35.1215                 9.9027

                     55                     56                     57
                      A                      A                      A
 Frequencies --   1067.6272              1070.1311              1078.1828
 Red. masses --      1.8649                 2.7051                 2.4455
 Frc consts  --      1.2524                 1.8252                 1.6750
 IR Inten    --     21.8616                 6.7234                17.6938

                     58                     59                     60
                      A                      A                      A
 Frequencies --   1083.0343              1097.2226              1127.6251
 Red. masses --      2.4835                 2.3188                 1.8796
 Frc consts  --      1.7163                 1.6448                 1.4081
 IR Inten    --     26.1923                37.5170                48.8172

                     61                     62                     63
                      A                      A                      A
 Frequencies --   1130.4899              1136.9206              1154.3524
 Red. masses --      1.3071                 1.7369                 1.9244
 Frc consts  --      0.9842                 1.3227                 1.5109
 IR Inten    --     15.4219                23.9522                29.0481

                     64                     65                     66
                      A                      A                      A
 Frequencies --   1187.4470              1189.5117              1191.1408
 Red. masses --      1.2409                 1.2448                 1.2674
 Frc consts  --      1.0309                 1.0378                 1.0594
 IR Inten    --      5.8846                 1.8872                 5.3689

                     67                     68                     69
                      A                      A                      A
 Frequencies --   1194.1571              1212.1400              1217.6085
 Red. masses --      1.1812                 1.7777                 1.7600
 Frc consts  --      0.9924                 1.5389                 1.5374
 IR Inten    --      4.6750                49.3278                 3.7246

                     70                     71                     72
                      A                      A                      A
 Frequencies --   1230.5065              1244.5287              1255.4012
 Red. masses --      2.3372                 1.9054                 1.6953
 Frc consts  --      2.0850                 1.7388                 1.5742
 IR Inten    --     38.6384                51.1709                60.6758

                     73                     74                     75
                      A                      A                      A
 Frequencies --   1265.9489              1295.6246              1302.9452
 Red. masses --      1.7933                 1.5952                 2.1933
 Frc consts  --      1.6933                 1.5777                 2.1938
 IR Inten    --    146.1234                71.8960                 9.6231

                     76                     77                     78
                      A                      A                      A
 Frequencies --   1313.1739              1323.7372              1332.0869
 Red. masses --      1.4162                 1.5723                 1.6675
 Frc consts  --      1.4388                 1.6232                 1.7433
 IR Inten    --     15.0155                29.3790                 6.4674

                     79                     80                     81
                      A                      A                      A
 Frequencies --   1341.6317              1346.9822              1360.0513
 Red. masses --      7.0275                 1.1891                 2.9720
 Frc consts  --      7.4527                 1.2712                 3.2390
 IR Inten    --     37.3626                44.3760                 4.7739

                     82                     83                     84
                      A                      A                      A
 Frequencies --   1369.5098              1403.0431              1407.2698
 Red. masses --      1.6247                 1.4519                 1.6073
 Frc consts  --      1.7954                 1.6840                 1.8755
 IR Inten    --      7.7105                 7.7426               110.4103

                     85                     86                     87
                      A                      A                      A
 Frequencies --   1413.8415              1430.3413              1459.9152
 Red. masses --      1.3714                 1.4138                 1.1631
 Frc consts  --      1.6152                 1.7042                 1.4606
 IR Inten    --     36.1372                88.3883                 2.0245

                     88                     89                     90
                      A                      A                      A
 Frequencies --   1487.2153              1488.5278              1495.0061
 Red. masses --      1.2323                 1.9511                 1.5756
 Frc consts  --      1.6058                 2.5471                 2.0749
 IR Inten    --      4.4431                42.7744                68.9112

                     91                     92                     93
                      A                      A                      A
 Frequencies --   1500.0898              1503.9472              1506.3360
 Red. masses --      1.2755                 1.0497                 1.3249
 Frc consts  --      1.6911                 1.3989                 1.7712
 IR Inten    --      2.1428                10.3128                39.6368

                     94                     95                     96
                      A                      A                      A
 Frequencies --   1508.9635              1511.6051              1516.5169
 Red. masses --      1.0985                 1.0880                 1.0905
 Frc consts  --      1.4737                 1.4647                 1.4777
 IR Inten    --     18.8837                 6.1667                 2.9782

                     97                     98                     99
                      A                      A                      A
 Frequencies --   1519.2342              1531.8412              1533.8404
 Red. masses --      1.0557                 1.1831                 1.3501
 Frc consts  --      1.4357                 1.6357                 1.8714
 IR Inten    --     13.0675                71.5292               131.7628

                    100                    101                    102
                      A                      A                      A
 Frequencies --   1536.9742              1546.9876              1622.8718
 Red. masses --      1.5190                 2.1201                 5.7868
 Frc consts  --      2.1142                 2.9893                 8.9797
 IR Inten    --    102.3281                47.9033                28.6763

                    103                    104                    105
                      A                      A                      A
 Frequencies --   1636.0397              1651.4112              1659.9971
 Red. masses --      6.3737                 5.6461                 5.6564
 Frc consts  --     10.0515                 9.0722                 9.1834
 IR Inten    --     11.3198                64.4334                23.4268

                    106                    107                    108
                      A                      A                      A
 Frequencies --   2926.3916              2950.1204              2957.8419
 Red. masses --      1.0721                 1.0606                 1.0624
 Frc consts  --      5.4094                 5.4384                 5.4762
 IR Inten    --    109.7657                70.5973               255.8790

                    109                    110                    111
                      A                      A                      A
 Frequencies --   3037.1579              3058.3862              3059.8429
 Red. masses --      1.0666                 1.0602                 1.0630
 Frc consts  --      5.7968                 5.8426                 5.8636
 IR Inten    --     52.9545                39.4099                48.8400

                    112                    113                    114
                      A                      A                      A
 Frequencies --   3067.9602              3082.4743              3083.8935
 Red. masses --      1.0854                 1.0604                 1.0960
 Frc consts  --      6.0194                 5.9361                 6.1414
 IR Inten    --     42.1067                46.2181                79.6896

                    115                    116                    117
                      A                      A                      A
 Frequencies --   3091.8874              3098.5485              3102.8420
 Red. masses --      1.0703                 1.0721                 1.1016
 Frc consts  --      6.0285                 6.0645                 6.2485
 IR Inten    --     59.2631                62.2460                22.8309

                    118                    119                    120
                      A                      A                      A
 Frequencies --   3110.2420              3127.7122              3138.3332
 Red. masses --      1.1013                 1.1059                 1.1046
 Frc consts  --      6.2769                 6.3742                 6.4100
 IR Inten    --     55.0249                99.9867                57.4797

                    121                    122                    123
                      A                      A                      A
 Frequencies --   3145.0029              3183.3183              3193.7279
 Red. masses --      1.1028                 1.0876                 1.0875
 Frc consts  --      6.4270                 6.4934                 6.5352
 IR Inten    --     60.3139                26.6729                17.6404

                    124                    125                    126
                      A                      A                      A
 Frequencies --   3200.0144              3204.2307              3219.1580
 Red. masses --      1.0883                 1.0891                 1.0959
 Frc consts  --      6.5661                 6.5879                 6.6912
 IR Inten    --     24.1383                24.8373                55.6167

                    127                    128                    129
                      A                      A                      A
 Frequencies --   3222.4752              3250.6890              3253.8873
 Red. masses --      1.0956                 1.0913                 1.0899
 Frc consts  --      6.7034                 6.7940                 6.7987
 IR Inten    --     51.3607                17.6343                19.0578

 - Thermochemistry -
 -------------------
 Temperature   298.150 Kelvin.  Pressure   1.00000 Atm.
 Atom     1 has atomic number  6 and mass  12.00000

 Molecular mass:   280.19395 amu.
 Principal axes and moments of inertia in atomic units:
                           1         2         3
     Eigenvalues --  4819.298318523.31066**********
           X            1.00000  -0.00256   0.00176
           Y            0.00256   1.00000  -0.00125
           Z           -0.00175   0.00125   1.00000
 This molecule is an asymmetric top.
 Rotational symmetry number  1.
 Warning -- assumption of classical behavior for rotation
           may cause significant error
 Rotational temperatures (Kelvin)      0.01797     0.01016     0.00703
 Rotational constants (GHZ):           0.37448     0.21174     0.14656
 Zero-point vibrational energy    1037074.9 (Joules/Mol)
                                  247.86686 (Kcal/Mol)
 Warning -- explicit consideration of  30 degrees of freedom as
           vibrations may cause significant error
 Vibrational temperatures:     26.86    46.90    53.10    81.09   132.73
          (Kelvin)            139.44   191.47   206.53   234.82   263.34
                              285.47   358.37   385.00   393.63   437.83
                              443.23   482.41   489.47   518.94   528.29
                              538.49   631.12   651.09   690.09   694.98
                              726.20   768.11   806.93   817.37   859.14
                              899.85   912.70  1003.78  1052.00  1091.87
                             1102.90  1104.66  1122.70  1132.31  1166.50
                             1229.00  1242.44  1252.71  1281.90  1319.03
                             1358.77  1366.48  1377.13  1404.56  1408.31
                             1424.94  1454.31  1514.13  1522.27  1536.08
                             1539.68  1551.26  1558.24  1578.66  1622.40
                             1626.52  1635.78  1660.86  1708.47  1711.44
                             1713.79  1718.13  1744.00  1751.87  1770.42
                             1790.60  1806.24  1821.42  1864.11  1874.65
                             1889.36  1904.56  1916.58  1930.31  1938.01
                             1956.81  1970.42  2018.67  2024.75  2034.20
                             2057.94  2100.49  2139.77  2141.66  2150.98
                             2158.29  2163.84  2167.28  2171.06  2174.86
                             2181.93  2185.84  2203.98  2206.85  2211.36
                             2225.77  2334.95  2353.90  2376.01  2388.37
                             4210.42  4244.57  4255.67  4369.79  4400.34
                             4402.43  4414.11  4434.99  4437.03  4448.54
                             4458.12  4464.30  4474.94  4500.08  4515.36
                             4524.96  4580.09  4595.06  4604.11  4610.17
                             4631.65  4636.42  4677.02  4681.62

 Zero-point correction=                           0.395001 (Hartree/Particle)
 Thermal correction to Energy=                    0.414074
 Thermal correction to Enthalpy=                  0.415018
 Thermal correction to Gibbs Free Energy=         0.346363
 Sum of electronic and zero-point Energies=           -847.569600
 Sum of electronic and thermal Energies=              -847.550528
 Sum of electronic and thermal Enthalpies=            -847.549583
 Sum of electronic and thermal Free Energies=         -847.618238

                     E (Thermal)             CV                S
                      KCal/Mol        Cal/Mol-Kelvin    Cal/Mol-Kelvin
 Total                  259.835             75.693            144.496
 Electronic               0.000              0.000              0.000
 Translational            0.889              2.981             42.789
 Rotational               0.889              2.981             34.580
 Vibrational            258.058             69.732             67.127
 Vibration     1          0.593              1.986              6.771
 Vibration     2          0.594              1.983              5.665
 Vibration     3          0.594              1.982              5.418
 Vibration     4          0.596              1.975              4.581
 Vibration     5          0.602              1.955              3.612
 Vibration     6          0.603              1.951              3.515
 Vibration     7          0.613              1.920              2.901
 Vibration     8          0.616              1.910              2.756
 Vibration     9          0.623              1.888              2.512
 Vibration    10          0.631              1.863              2.297
 Vibration    11          0.637              1.842              2.148
 Vibration    12          0.662              1.764              1.737
 Vibration    13          0.673              1.733              1.612
 Vibration    14          0.676              1.722              1.573
 Vibration    15          0.695              1.666              1.393
 Vibration    16          0.698              1.658              1.373
 Vibration    17          0.716              1.605              1.234
 Vibration    18          0.720              1.595              1.211
 Vibration    19          0.735              1.553              1.119
 Vibration    20          0.740              1.540              1.092
 Vibration    21          0.745              1.525              1.062
 Vibration    22          0.799              1.386              0.831
 Vibration    23          0.811              1.355              0.788
 Vibration    24          0.836              1.295              0.711
 Vibration    25          0.839              1.288              0.702
 Vibration    26          0.860              1.240              0.646
 Vibration    27          0.889              1.175              0.579
 Vibration    28          0.916              1.116              0.522
 Vibration    29          0.924              1.100              0.508
 Vibration    30          0.955              1.038              0.455

 Optimization completed.
    -- Stationary point found.
 Normal termination of Gaussian 16 at Tue Mar  1 09:03:05 2022.

 ------------------------------------------
 #p b3lyp/6-31G(d) geom=allcheck guess=read
 ------------------------------------------

 Structure from the checkpoint file:  "40.n.pdb.xyz.mst.wat.chk"
 ------------
 40.n.pdb.xyz
 ------------
 Charge =  0 Multiplicity = 1

 SCF Done:  E(RB3LYP) =  -847.959094045     A.U. after   11 cycles
 Normal termination of Gaussian 16 at Tue Mar  1 09:06:49 2022.
 Gaussian 16:  ES64L-G16RevA.03 25-Dec-2016

 ----------------------------------------------------------------------
 #p b3lyp/6-31G(d) scrf=(iefpcm,read,solvent=water) geom=allcheck guess
 =read
 ----------------------------------------------------------------------

 Structure from the checkpoint file:  "40.n.pdb.xyz.mst.wat.chk"
 ------------
 40.n.pdb.xyz
 ------------
 Charge =  0 Multiplicity = 1

                         Standard orientation:
 ---------------------------------------------------------------------
 Center     Atomic      Atomic             Coordinates (Angstroms)
 Number     Number       Type             X           Y           Z
 ---------------------------------------------------------------------
      1          6           0       -4.871030    0.449402   -1.084222
      2          7           0       -4.611907   -0.500731   -0.006913
      3          6           0       -5.765190   -0.578022    0.884530
      4          6           0       -3.400940   -0.165242    0.745306
      5          6           0       -2.111107   -0.349671   -0.060195
      6          6           0       -0.882836   -0.159213    0.851581
      7          7           0        0.442404   -0.019149    0.223296
      8          6           0        0.945240    1.279835   -0.021656
      9          6           0        0.006821    2.296317   -0.314295
     10          6           0        0.383446    3.612039   -0.557737
     11          6           0        1.731717    3.965174   -0.529120
     12          6           0        2.664265    2.978031   -0.225615
     13          6           0        2.316436    1.645700    0.044045
     14          6           0        3.463557    0.733109    0.439893
     15          6           0        3.083397   -0.473948    1.309798
     16          6           0        2.389578   -1.512790    0.478497
     17          6           0        3.005878   -2.735485    0.193526
     18          6           0        2.394239   -3.686215   -0.623317
     19          6           0        1.150995   -3.401618   -1.187320
     20          6           0        0.533782   -2.177455   -0.929986
     21          6           0        1.135120   -1.226040   -0.090729
     22          1           0       -5.014881    1.482392   -0.716013
     23          1           0       -5.777393    0.151322   -1.618577
     24          1           0       -4.042401    0.455552   -1.796063
     25          1           0       -5.580351   -1.325672    1.661219
     26          1           0       -6.648427   -0.878783    0.313630
     27          1           0       -5.992846    0.383383    1.381776
     28          1           0       -3.446253    0.870085    1.136930
     29          1           0       -3.370534   -0.826375    1.619536
     30          1           0       -2.074131    0.359503   -0.892156
     31          1           0       -2.113705   -1.352530   -0.495789
     32          1           0       -1.036039    0.735392    1.463253
     33          1           0       -0.823967   -1.006816    1.542729
     34          1           0       -1.042512    2.040398   -0.371016
     35          1           0       -0.379640    4.350981   -0.781456
     36          1           0        2.049668    4.984473   -0.721170
     37          1           0        3.716630    3.242395   -0.161515
     38          1           0        3.977772    0.357952   -0.454564
     39          1           0        4.198896    1.346575    0.971365
     40          1           0        3.990127   -0.903441    1.745213
     41          1           0        2.446277   -0.145367    2.139065
     42          1           0        3.977124   -2.940984    0.634596
     43          1           0        2.885098   -4.633297   -0.820555
     44          1           0        0.664521   -4.121065   -1.838328
     45          1           0       -0.416722   -1.950366   -1.394689
 ---------------------------------------------------------------------

 SCF Done:  E(RB3LYP) =  -847.964061867     A.U. after   10 cycles

 The electronic state is 1-A.
 Alpha  occ. eigenvalues --  -14.35148 -14.32578 -10.23085 -10.22447 -10.21781
 Alpha  occ. eigenvalues --  -10.20531 -10.19718 -10.19687 -10.19344 -10.19337
 Alpha  occ. eigenvalues --  -10.18908 -10.18803 -10.18778 -10.18748 -10.18698
 Alpha  occ. eigenvalues --  -10.18562 -10.18483 -10.18383 -10.18208 -10.18042
 Alpha  occ. eigenvalues --  -10.17988  -0.94817  -0.91804  -0.85521  -0.84409
 Alpha  occ. eigenvalues --   -0.79846  -0.77672  -0.75442  -0.75294  -0.72510
 Alpha  occ. eigenvalues --   -0.70647  -0.70065  -0.67542  -0.64711  -0.62303
 Alpha  occ. eigenvalues --   -0.60572  -0.59460  -0.58256  -0.57391  -0.56402
 Alpha  occ. eigenvalues --   -0.51855  -0.50220  -0.48333  -0.47879  -0.47565
 Alpha  occ. eigenvalues --   -0.47087  -0.45835  -0.45530  -0.44831  -0.44427
 Alpha  occ. eigenvalues --   -0.43036  -0.42480  -0.41899  -0.41174  -0.40331
 Alpha  occ. eigenvalues --   -0.39280  -0.38751  -0.38540  -0.38252  -0.37466
 Alpha  occ. eigenvalues --   -0.36552  -0.36466  -0.35899  -0.35275  -0.34868
 Alpha  occ. eigenvalues --   -0.34383  -0.33333  -0.33252  -0.32954  -0.32509
 Alpha  occ. eigenvalues --   -0.28627  -0.24988  -0.24387  -0.24022  -0.21728
 Alpha  occ. eigenvalues --   -0.19245
 Alpha virt. eigenvalues --   -0.00747  -0.00234   0.00259   0.01127   0.08080
 Alpha virt. eigenvalues --    0.09401   0.10711   0.10777   0.11504   0.12250
 Alpha virt. eigenvalues --    0.12916   0.13794   0.14255   0.14630   0.14842

 Mulliken charges:
               1
     1  C   -0.312242
     2  N   -0.406446
     3  C   -0.303019
     4  C   -0.121400
     5  C   -0.287202
     6  C   -0.157738
     7  N   -0.590365
     8  C    0.248695
     9  C   -0.193904
    10  C   -0.167890
    11  C   -0.154405
    12  C   -0.229403
    13  C    0.144923
    14  C   -0.345628
    15  C   -0.350482
    16  C    0.152595
    17  C   -0.229783
    18  C   -0.142736
    19  C   -0.165424
    20  C   -0.168412
    21  C    0.205177
    22  H    0.124672
    23  H    0.156579
    24  H    0.161389
    25  H    0.156447
    26  H    0.154994
    27  H    0.124756
    28  H    0.118836
    29  H    0.147932
    30  H    0.158393
    31  H    0.151488
    32  H    0.162752
    33  H    0.162151
    34  H    0.146664
    35  H    0.144344
    36  H    0.140108
    37  H    0.138832
    38  H    0.160165
    39  H    0.158735
    40  H    0.153825
    41  H    0.158516
    42  H    0.144429
    43  H    0.146820
    44  H    0.148566
    45  H    0.153698
 Sum of Mulliken charges =  -0.00000

 Dipole moment (field-independent basis, Debye):
    X=             -0.5885    Y=             -0.2033    Z=              1.1209  Tot=              1.2823
 Quadrupole moment (field-independent basis, Debye-Ang):
   XX=           -111.8748   YY=           -122.9693   ZZ=           -126.2608
   XY=             -5.0302   XZ=              2.0004   YZ=             -0.0741

 Normal termination of Gaussian 16 at Tue Mar  1 09:11:03 2022.
