 Gaussian 16, Revision A.03,

 ----------------------------------------------------------------------
 #p b3lyp/6-31G(d) opt=(MaxStep=10,MaxCycles=1000) freq scf=(MaxCycle=2
 000,NoVarAcc,NoIncFock) scrf=(iefpcm,read,solvent=water)
 ----------------------------------------------------------------------

 ------------
 41.n.pdb.xyz
 ------------
 Symbolic Z-matrix:
 Charge =  0 Multiplicity = 1

 SCF Done:  E(RB3LYP) =  -941.853957483     A.U. after   13 cycles
 SCF Done:  E(RB3LYP) =  -941.857477883     A.U. after   10 cycles
 SCF Done:  E(RB3LYP) =  -941.858187957     A.U. after   10 cycles
 SCF Done:  E(RB3LYP) =  -941.859049918     A.U. after   10 cycles
 SCF Done:  E(RB3LYP) =  -941.859592931     A.U. after    9 cycles
 SCF Done:  E(RB3LYP) =  -941.859721273     A.U. after    9 cycles
 SCF Done:  E(RB3LYP) =  -941.859783536     A.U. after    8 cycles
 SCF Done:  E(RB3LYP) =  -941.859832892     A.U. after    8 cycles
 SCF Done:  E(RB3LYP) =  -941.859845482     A.U. after    8 cycles
 SCF Done:  E(RB3LYP) =  -941.859839710     A.U. after    8 cycles
 SCF Done:  E(RB3LYP) =  -941.859836976     A.U. after    7 cycles
 SCF Done:  E(RB3LYP) =  -941.859845069     A.U. after    8 cycles
 SCF Done:  E(RB3LYP) =  -941.859845518     A.U. after    7 cycles
 SCF Done:  E(RB3LYP) =  -941.859835813     A.U. after    8 cycles
 Optimization completed.
    -- Stationary point found.
 Normal termination of Gaussian 16 at Tue Mar  1 08:16:09 2022.

 --------------------------------------------------------------------
 #P Geom=AllCheck Guess=TCheck SCRF=Check GenChk RB3LYP/6-31G(d) Freq
 --------------------------------------------------------------------

 Structure from the checkpoint file:  "41.n.pdb.xyz.mst.wat.chk"
 ------------
 41.n.pdb.xyz
 ------------
 Charge =  0 Multiplicity = 1

 SCF Done:  E(RB3LYP) =  -941.859835813     A.U. after    1 cycles

  Exact polarizability: 341.755   2.678 313.806  -8.486  -1.580 186.283
 Approx polarizability: 364.087  -2.949 338.718 -13.722  -1.044 215.388

                      1                      2                      3
                      A                      A                      A
 Frequencies --     48.0304                64.7216                79.7705
 Red. masses --      4.3959                 4.0221                 3.9064
 Frc consts  --      0.0060                 0.0099                 0.0146
 IR Inten    --      0.6309                 0.3085                 1.0872

                      4                      5                      6
                      A                      A                      A
 Frequencies --    105.9528               108.0385               129.4537
 Red. masses --      3.4832                 3.5116                 1.0565
 Frc consts  --      0.0230                 0.0241                 0.0104
 IR Inten    --      1.1201                 1.6075                 0.1640

                      7                      8                      9
                      A                      A                      A
 Frequencies --    168.5160               204.8173               216.3101
 Red. masses --      3.7928                 3.7173                 2.6678
 Frc consts  --      0.0635                 0.0919                 0.0735
 IR Inten    --      0.8120                 0.5523                 1.1004

                     10                     11                     12
                      A                      A                      A
 Frequencies --    235.4528               248.3603               251.2089
 Red. masses --      1.9853                 3.0382                 2.3676
 Frc consts  --      0.0648                 0.1104                 0.0880
 IR Inten    --      1.2017                 0.5677                 1.6813

                     13                     14                     15
                      A                      A                      A
 Frequencies --    267.3511               298.5251               304.9876
 Red. masses --      3.3356                 4.0735                 2.6227
 Frc consts  --      0.1405                 0.2139                 0.1437
 IR Inten    --      5.4294                 5.1465                 2.5536

                     16                     17                     18
                      A                      A                      A
 Frequencies --    309.4581               328.4371               342.0756
 Red. masses --      3.5357                 3.3197                 4.1256
 Frc consts  --      0.1995                 0.2110                 0.2844
 IR Inten    --      2.1414                 4.2271                 5.8197

                     19                     20                     21
                      A                      A                      A
 Frequencies --    367.8939               392.1309               396.0273
 Red. masses --      2.4441                 1.9902                 2.1149
 Frc consts  --      0.1949                 0.1803                 0.1954
 IR Inten    --     10.7268                17.9303                80.7762

                     22                     23                     24
                      A                      A                      A
 Frequencies --    417.8618               449.1514               486.5105
 Red. masses --      1.6754                 3.9829                 3.7707
 Frc consts  --      0.1724                 0.4734                 0.5258
 IR Inten    --    142.4818                 6.0839                 4.3686

                     25                     26                     27
                      A                      A                      A
 Frequencies --    508.0682               520.1715               529.6552
 Red. masses --      4.2314                 3.4059                 3.6364
 Frc consts  --      0.6435                 0.5430                 0.6011
 IR Inten    --      8.0884                 3.9272                 4.5605

                     28                     29                     30
                      A                      A                      A
 Frequencies --    557.0608               566.9388               574.0131
 Red. masses --      4.4203                 4.1098                 4.3885
 Frc consts  --      0.8082                 0.7783                 0.8519
 IR Inten    --      9.9185                 4.1866                 6.2426

                     31                     32                     33
                      A                      A                      A
 Frequencies --    607.2400               619.8390               627.8722
 Red. masses --      4.5744                 5.6221                 4.6770
 Frc consts  --      0.9938                 1.2726                 1.0863
 IR Inten    --      8.2023                 4.8558                 2.3257

                     34                     35                     36
                      A                      A                      A
 Frequencies --    670.8614               731.3993               738.1809
 Red. masses --      5.3409                 3.9444                 4.4358
 Frc consts  --      1.4162                 1.2432                 1.4241
 IR Inten    --      1.9462                 0.8918                 5.7334

                     37                     38                     39
                      A                      A                      A
 Frequencies --    762.1785               768.0526               779.0009
 Red. masses --      3.3050                 2.9136                 1.5067
 Frc consts  --      1.1312                 1.0127                 0.5387
 IR Inten    --     15.8713                 6.1892                47.3554

                     40                     41                     42
                      A                      A                      A
 Frequencies --    800.3540               802.5867               822.1560
 Red. masses --      2.3393                 1.4445                 4.2987
 Frc consts  --      0.8829                 0.5482                 1.7120
 IR Inten    --     38.0677                46.8501                16.2583

                     43                     44                     45
                      A                      A                      A
 Frequencies --    878.6463               885.8811               901.8953
 Red. masses --      1.5623                 5.1398                 3.1263
 Frc consts  --      0.7106                 2.3766                 1.4983
 IR Inten    --      4.0331                36.0808                11.6519

                     46                     47                     48
                      A                      A                      A
 Frequencies --    919.5793               935.6531               952.1051
 Red. masses --      1.5658                 2.4156                 1.6941
 Frc consts  --      0.7801                 1.2460                 0.9048
 IR Inten    --      2.6624                13.9594                 6.9253

                     49                     50                     51
                      A                      A                      A
 Frequencies --    961.5370               967.7047               979.8157
 Red. masses --      1.6476                 3.2151                 1.3275
 Frc consts  --      0.8975                 1.7739                 0.7509
 IR Inten    --      2.6956                42.5080                13.1445

                     52                     53                     54
                      A                      A                      A
 Frequencies --    987.5207               988.4126              1026.7688
 Red. masses --      1.2596                 2.0666                 1.8626
 Frc consts  --      0.7237                 1.1896                 1.1570
 IR Inten    --      0.7817                37.6691                22.1701

                     55                     56                     57
                      A                      A                      A
 Frequencies --   1042.2077              1066.4236              1071.0387
 Red. masses --      2.1721                 2.2768                 1.5155
 Frc consts  --      1.3901                 1.5256                 1.0242
 IR Inten    --     34.3550                34.1722                 7.1845

                     58                     59                     60
                      A                      A                      A
 Frequencies --   1072.9482              1094.8425              1110.9431
 Red. masses --      2.1684                 1.7462                 2.2426
 Frc consts  --      1.4708                 1.2332                 1.6308
 IR Inten    --      5.6982                28.4380                42.8951

                     61                     62                     63
                      A                      A                      A
 Frequencies --   1120.1952              1125.2191              1136.1482
 Red. masses --      1.8480                 2.4134                 1.8819
 Frc consts  --      1.3663                 1.8003                 1.4312
 IR Inten    --    103.6905                11.4115                51.1104

                     64                     65                     66
                      A                      A                      A
 Frequencies --   1168.3546              1174.5898              1184.6882
 Red. masses --      2.1439                 1.6671                 1.1240
 Frc consts  --      1.7242                 1.3551                 0.9295
 IR Inten    --     41.0079                32.9242                 0.0472

                     67                     68                     69
                      A                      A                      A
 Frequencies --   1195.6048              1201.2095              1219.5170
 Red. masses --      1.2520                 3.2728                 2.0533
 Frc consts  --      1.0545                 2.7824                 1.7992
 IR Inten    --     18.0213                24.5364                30.4162

                     70                     71                     72
                      A                      A                      A
 Frequencies --   1229.0217              1235.0750              1247.9166
 Red. masses --      1.9105                 2.9250                 1.2906
 Frc consts  --      1.7002                 2.6288                 1.1842
 IR Inten    --     91.1604               250.2643                17.9008

                     73                     74                     75
                      A                      A                      A
 Frequencies --   1285.3259              1291.8628              1295.6872
 Red. masses --      2.0444                 2.0005                 1.7085
 Frc consts  --      1.9899                 1.9671                 1.6899
 IR Inten    --     84.1658                11.1145                29.0613

                     76                     77                     78
                      A                      A                      A
 Frequencies --   1303.6583              1321.2494              1334.6833
 Red. masses --      1.8060                 1.8626                 1.6807
 Frc consts  --      1.8084                 1.9158                 1.7640
 IR Inten    --    115.4549                61.6656                27.2882

                     79                     80                     81
                      A                      A                      A
 Frequencies --   1344.7871              1350.0611              1365.4777
 Red. masses --      3.0810                 2.7116                 1.6491
 Frc consts  --      3.2828                 2.9119                 1.8116
 IR Inten    --     33.1266                 9.1166                42.1037

                     82                     83                     84
                      A                      A                      A
 Frequencies --   1365.9105              1392.3564              1418.6390
 Red. masses --      2.2243                 1.3666                 1.6978
 Frc consts  --      2.4451                 1.5610                 2.0132
 IR Inten    --      9.9185                24.5834                93.0795

                     85                     86                     87
                      A                      A                      A
 Frequencies --   1427.6121              1431.9747              1472.6400
 Red. masses --      1.4502                 1.2607                 1.1893
 Frc consts  --      1.7414                 1.5231                 1.5196
 IR Inten    --     23.9666                 0.6320                 4.2060

                     88                     89                     90
                      A                      A                      A
 Frequencies --   1480.9471              1486.9459              1496.3153
 Red. masses --      2.0584                 2.0707                 1.1112
 Frc consts  --      2.6598                 2.6975                 1.4658
 IR Inten    --    126.8197                45.0233                 4.1345

                     91                     92                     93
                      A                      A                      A
 Frequencies --   1499.3628              1503.3887              1508.4643
 Red. masses --      1.0586                 1.0812                 1.5170
 Frc consts  --      1.4021                 1.4397                 2.0337
 IR Inten    --      7.2649                14.2691                66.0608

                     94                     95                     96
                      A                      A                      A
 Frequencies --   1509.3137              1522.6739              1527.0900
 Red. masses --      1.2492                 1.7754                 2.1553
 Frc consts  --      1.6767                 2.4253                 2.9613
 IR Inten    --     13.4021                81.6252                30.6596

                     97                     98                     99
                      A                      A                      A
 Frequencies --   1528.6495              1532.7538              1628.3124
 Red. masses --      1.0858                 1.1207                 6.1372
 Frc consts  --      1.4949                 1.5512                 9.5873
 IR Inten    --     12.5239                15.6311                29.0716

                    100                    101                    102
                      A                      A                      A
 Frequencies --   1641.8158              1658.5626              1659.7427
 Red. masses --      5.6362                 7.6892                 6.0831
 Frc consts  --      8.9513                12.4623                 9.8731
 IR Inten    --      2.7070                 1.0316                15.5906

                    103                    104                    105
                      A                      A                      A
 Frequencies --   2961.7526              2974.2893              2986.6574
 Red. masses --      1.0600                 1.0713                 1.0711
 Frc consts  --      5.4786                 5.5836                 5.6294
 IR Inten    --    118.6791               139.9097               167.4218

                    106                    107                    108
                      A                      A                      A
 Frequencies --   3042.1087              3063.7695              3080.6095
 Red. masses --      1.0836                 1.0367                 1.0811
 Frc consts  --      5.9086                 5.7337                 6.0447
 IR Inten    --     55.4717                45.1244                38.3065

                    109                    110                    111
                      A                      A                      A
 Frequencies --   3087.7886              3089.1361              3093.5622
 Red. masses --      1.0734                 1.0847                 1.0713
 Frc consts  --      6.0299                 6.0986                 6.0405
 IR Inten    --     43.5120                95.2854                57.9304

                    112                    113                    114
                      A                      A                      A
 Frequencies --   3118.0476              3132.8323              3133.0029
 Red. masses --      1.1012                 1.1043                 1.1044
 Frc consts  --      6.3076                 6.3855                 6.3868
 IR Inten    --     27.5351                26.9525                74.3994

                    115                    116                    117
                      A                      A                      A
 Frequencies --   3146.6132              3196.4428              3208.0520
 Red. masses --      1.1023                 1.0872                 1.0858
 Frc consts  --      6.4304                 6.5449                 6.5841
 IR Inten    --     35.9501                17.2600                 1.8654

                    118                    119                    120
                      A                      A                      A
 Frequencies --   3213.8088              3219.6180              3227.8329
 Red. masses --      1.0936                 1.0892                 1.0925
 Frc consts  --      6.6551                 6.6522                 6.7062
 IR Inten    --     44.7603                19.7347                42.3198

                    121                    122                    123
                      A                      A                      A
 Frequencies --   3235.2347              3243.4214              3711.4438
 Red. masses --      1.0969                 1.0919                 1.0665
 Frc consts  --      6.7645                 6.7678                 8.6552
 IR Inten    --     23.3718                10.9288                79.4823

 - Thermochemistry -
 -------------------
 Temperature   298.150 Kelvin.  Pressure   1.00000 Atm.
 Atom     1 has atomic number  6 and mass  12.00000

 Molecular mass:   295.15723 amu.
 Principal axes and moments of inertia in atomic units:
                           1         2         3
     Eigenvalues --  4775.800445999.154329729.37948
           X            0.99897  -0.04534   0.00155
           Y            0.04533   0.99897   0.00247
           Z           -0.00166  -0.00239   1.00000
 This molecule is an asymmetric top.
 Rotational symmetry number  1.
 Warning -- assumption of classical behavior for rotation
           may cause significant error
 Rotational temperatures (Kelvin)      0.01814     0.01444     0.00890
 Rotational constants (GHZ):           0.37789     0.30083     0.18549
 Zero-point vibrational energy     957254.3 (Joules/Mol)
                                  228.78927 (Kcal/Mol)
 Warning -- explicit consideration of  32 degrees of freedom as
           vibrations may cause significant error
 Vibrational temperatures:     69.11    93.12   114.77   152.44   155.44
          (Kelvin)            186.26   242.46   294.69   311.22   338.76
                              357.34   361.43   384.66   429.51   438.81
                              445.24   472.55   492.17   529.32   564.19
                              569.79   601.21   646.23   699.98   731.00
                              748.41   762.06   801.49   815.70   825.88
                              873.68   891.81   903.37   965.22  1052.32
                             1062.08  1096.60  1105.06  1120.81  1151.53
                             1154.74  1182.90  1264.18  1274.59  1297.63
                             1323.07  1346.20  1369.87  1383.44  1392.31
                             1409.74  1420.82  1422.11  1477.29  1499.50
                             1534.35  1540.99  1543.73  1575.23  1598.40
                             1611.71  1618.94  1634.66  1681.00  1689.97
                             1704.50  1720.21  1728.27  1754.61  1768.29
                             1777.00  1795.47  1849.30  1858.70  1864.20
                             1875.67  1900.98  1920.31  1934.85  1942.44
                             1964.62  1965.24  2003.29  2041.11  2054.02
                             2060.29  2118.80  2130.75  2139.38  2152.86
                             2157.25  2163.04  2170.34  2171.57  2190.79
                             2197.14  2199.39  2205.29  2342.78  2362.21
                             2386.30  2388.00  4261.30  4279.34  4297.13
                             4376.92  4408.08  4432.31  4442.64  4444.58
                             4450.95  4486.17  4507.45  4507.69  4527.27
                             4598.97  4615.67  4623.95  4632.31  4644.13
                             4654.78  4666.56  5339.94

 Zero-point correction=                           0.364599 (Hartree/Particle)
 Thermal correction to Energy=                    0.382937
 Thermal correction to Enthalpy=                  0.383882
 Thermal correction to Gibbs Free Energy=         0.319829
 Sum of electronic and zero-point Energies=           -941.495237
 Sum of electronic and thermal Energies=              -941.476898
 Sum of electronic and thermal Enthalpies=            -941.475954
 Sum of electronic and thermal Free Energies=         -941.540007

                     E (Thermal)             CV                S
                      KCal/Mol        Cal/Mol-Kelvin    Cal/Mol-Kelvin
 Total                  240.297             75.886            134.810
 Electronic               0.000              0.000              0.000
 Translational            0.889              2.981             42.944
 Rotational               0.889              2.981             33.988
 Vibrational            238.519             69.924             57.878
 Vibration     1          0.595              1.978              4.897
 Vibration     2          0.597              1.971              4.308
 Vibration     3          0.600              1.963              3.897
 Vibration     4          0.605              1.944              3.342
 Vibration     5          0.606              1.943              3.304
 Vibration     6          0.612              1.924              2.954
 Vibration     7          0.625              1.881              2.452
 Vibration     8          0.640              1.833              2.089
 Vibration     9          0.645              1.816              1.990
 Vibration    10          0.655              1.787              1.837
 Vibration    11          0.662              1.765              1.742
 Vibration    12          0.663              1.761              1.722
 Vibration    13          0.672              1.733              1.613
 Vibration    14          0.692              1.676              1.425
 Vibration    15          0.696              1.664              1.389
 Vibration    16          0.699              1.656              1.365
 Vibration    17          0.712              1.619              1.268
 Vibration    18          0.721              1.591              1.202
 Vibration    19          0.740              1.538              1.089
 Vibration    20          0.760              1.487              0.992
 Vibration    21          0.763              1.479              0.977
 Vibration    22          0.781              1.431              0.899
 Vibration    23          0.808              1.363              0.798
 Vibration    24          0.843              1.280              0.693
 Vibration    25          0.863              1.232              0.638
 Vibration    26          0.875              1.205              0.610
 Vibration    27          0.885              1.184              0.588
 Vibration    28          0.913              1.124              0.530
 Vibration    29          0.923              1.103              0.510
 Vibration    30          0.930              1.087              0.497
 Vibration    31          0.966              1.016              0.437
 Vibration    32          0.980              0.990              0.417

                           ! Non-Optimized Parameters !
 Normal termination of Gaussian 16 at Tue Mar  1 09:32:01 2022.

 ------------------------------------------
 #p b3lyp/6-31G(d) geom=allcheck guess=read
 ------------------------------------------

 Structure from the checkpoint file:  "41.n.pdb.xyz.mst.wat.chk"
 ------------
 41.n.pdb.xyz
 ------------
 Charge =  0 Multiplicity = 1

 SCF Done:  E(RB3LYP) =  -941.850254374     A.U. after   11 cycles
 Normal termination of Gaussian 16 at Tue Mar  1 09:36:39 2022.
 Gaussian 16:  ES64L-G16RevA.03 25-Dec-2016

 ----------------------------------------------------------------------
 #p b3lyp/6-31G(d) scrf=(iefpcm,read,solvent=water) geom=allcheck guess
 =read
 ----------------------------------------------------------------------

 Structure from the checkpoint file:  "41.n.pdb.xyz.mst.wat.chk"
 ------------
 41.n.pdb.xyz
 ------------
 Charge =  0 Multiplicity = 1

                         Standard orientation:
 ---------------------------------------------------------------------
 Center     Atomic      Atomic             Coordinates (Angstroms)
 Number     Number       Type             X           Y           Z
 ---------------------------------------------------------------------
      1          6           0        4.681502   -0.090047    0.041359
      2          7           0        3.243162   -0.140483   -0.172477
      3          6           0        2.858933   -1.350317   -0.900651
      4          6           0        1.350353   -1.396798   -1.143100
      5          6           0        0.567583   -1.314414    0.179331
      6          8           0        1.024013   -2.443659    0.949717
      7          6           0        0.996198   -0.009195    0.916992
      8          6           0        2.522927   -0.016105    1.095946
      9          6           0        0.459328    1.261637    0.281952
     10          6           0        1.258295    2.232570   -0.336613
     11          6           0        0.696552    3.417781   -0.808969
     12          6           0       -0.671828    3.651773   -0.668569
     13          6           0       -1.506040    2.702554   -0.068728
     14          6           0       -2.985146    2.941588    0.087394
     15          6           0       -0.909772    1.518624    0.383148
     16          8           0       -1.724363    0.591822    1.029781
     17          6           0       -1.958235   -0.624803    0.399401
     18          6           0       -3.310164   -0.965598    0.269030
     19          6           0       -3.683756   -2.172479   -0.309269
     20          6           0       -2.695550   -3.047998   -0.765245
     21          6           0       -1.356247   -2.705072   -0.617601
     22          6           0       -0.942631   -1.493590   -0.033451
     23          1           0        5.198271   -0.137949   -0.922019
     24          1           0        5.051868   -0.921097    0.668972
     25          1           0        4.948835    0.850186    0.533042
     26          1           0        3.387421   -1.350443   -1.859782
     27          1           0        3.166436   -2.261037   -0.358041
     28          1           0        1.097984   -2.323705   -1.664833
     29          1           0        1.047596   -0.565147   -1.785724
     30          1           0        0.516659   -2.453970    1.781006
     31          1           0        0.558505   -0.061623    1.921965
     32          1           0        2.784253   -0.836228    1.784770
     33          1           0        2.835626    0.920255    1.568933
     34          1           0        2.316485    2.033187   -0.448441
     35          1           0        1.327308    4.162638   -1.283563
     36          1           0       -1.109586    4.576691   -1.032076
     37          1           0       -3.250434    3.930002   -0.294607
     38          1           0       -3.573448    2.196532   -0.457840
     39          1           0       -3.294253    2.884911    1.135919
     40          1           0       -4.051077   -0.261633    0.630445
     41          1           0       -4.734220   -2.423685   -0.406933
     42          1           0       -2.965687   -3.994739   -1.220741
     43          1           0       -0.591697   -3.405737   -0.933231
 ---------------------------------------------------------------------

 SCF Done:  E(RB3LYP) =  -941.858222933     A.U. after   10 cycles

 The electronic state is 1-A.
 Alpha  occ. eigenvalues --  -19.18289 -19.14462 -14.32251 -10.25446 -10.25274
 Alpha  occ. eigenvalues --  -10.24170 -10.20246 -10.20087 -10.20077 -10.19813
 Alpha  occ. eigenvalues --  -10.19696 -10.19625 -10.19575 -10.19427 -10.19273
 Alpha  occ. eigenvalues --  -10.19103 -10.18952 -10.18746 -10.18621 -10.18336
 Alpha  occ. eigenvalues --  -10.18019 -10.18002  -1.07225  -1.02023  -0.92239
 Alpha  occ. eigenvalues --   -0.86425  -0.85242  -0.80664  -0.77728  -0.76457
 Alpha  occ. eigenvalues --   -0.74953  -0.74826  -0.71829  -0.68675  -0.67881
 Alpha  occ. eigenvalues --   -0.64896  -0.63244  -0.61146  -0.59692  -0.58761
 Alpha  occ. eigenvalues --   -0.57480  -0.55045  -0.53518  -0.50383  -0.49233
 Alpha  occ. eigenvalues --   -0.48803  -0.48545  -0.46436  -0.46010  -0.45741
 Alpha  occ. eigenvalues --   -0.45157  -0.44091  -0.43840  -0.42927  -0.42125
 Alpha  occ. eigenvalues --   -0.41407  -0.40771  -0.40423  -0.39456  -0.38591
 Alpha  occ. eigenvalues --   -0.38297  -0.37627  -0.36884  -0.36648  -0.36113
 Alpha  occ. eigenvalues --   -0.35623  -0.35189  -0.34890  -0.34495  -0.33311
 Alpha  occ. eigenvalues --   -0.32533  -0.31186  -0.30023  -0.28257  -0.25143
 Alpha  occ. eigenvalues --   -0.24511  -0.23918  -0.23038  -0.21013
 Alpha virt. eigenvalues --   -0.01416  -0.00161   0.00044   0.00210   0.08299
 Alpha virt. eigenvalues --    0.09359   0.10081   0.11165   0.11744   0.12601
 Alpha virt. eigenvalues --    0.12695   0.13926   0.14515   0.15039   0.15305

 Mulliken charges:
               1
     1  C   -0.299236
     2  N   -0.404535
     3  C   -0.114681
     4  C   -0.286241
     5  C    0.233495
     6  O   -0.672776
     7  C   -0.210588
     8  C   -0.132432
     9  C    0.146664
    10  C   -0.228174
    11  C   -0.144950
    12  C   -0.225620
    13  C    0.149272
    14  C   -0.528034
    15  C    0.194375
    16  O   -0.591607
    17  C    0.256362
    18  C   -0.185245
    19  C   -0.156510
    20  C   -0.148190
    21  C   -0.210478
    22  C    0.132906
    23  H    0.154423
    24  H    0.123172
    25  H    0.154620
    26  H    0.143717
    27  H    0.123728
    28  H    0.150983
    29  H    0.152303
    30  H    0.430084
    31  H    0.153333
    32  H    0.129162
    33  H    0.147062
    34  H    0.157556
    35  H    0.144476
    36  H    0.142949
    37  H    0.162324
    38  H    0.170687
    39  H    0.170107
    40  H    0.155533
    41  H    0.154823
    42  H    0.150186
    43  H    0.154995
 Sum of Mulliken charges =  -0.00000

 Dipole moment (field-independent basis, Debye):
    X=             -0.4333    Y=             -0.3685    Z=              0.2123  Tot=              0.6072
 Quadrupole moment (field-independent basis, Debye-Ang):
   XX=           -116.9382   YY=           -123.4809   ZZ=           -127.0515
   XY=              2.1263   XZ=              1.1088   YZ=             -0.6867

 Normal termination of Gaussian 16 at Tue Mar  1 09:41:58 2022.
