 Gaussian 16, Revision A.03,

 ----------------------------------------------------------------------
 #p b3lyp/6-31G(d) opt=(MaxStep=10,MaxCycles=1000) freq scf=(MaxCycle=2
 000,NoVarAcc,NoIncFock) scrf=(iefpcm,read,solvent=water)
 ----------------------------------------------------------------------

 ------------
 42.n.pdb.xyz
 ------------
 Symbolic Z-matrix:
 Charge =  0 Multiplicity = 1

 SCF Done:  E(RB3LYP) =  -276.396044013     A.U. after    9 cycles
 SCF Done:  E(RB3LYP) =  -276.397809837     A.U. after    8 cycles
 SCF Done:  E(RB3LYP) =  -276.397854438     A.U. after    7 cycles
 SCF Done:  E(RB3LYP) =  -276.397855261     A.U. after    7 cycles
 Optimization completed.
    -- Stationary point found.

 1\1\GINC-PIRINEUS2\FOpt\RB3LYP\6-31G(d)\C7H16\UBATOR01\01-Mar-2022\0\\
 #p b3lyp/6-31G(d) opt=(MaxStep=10,MaxCycles=1000) freq scf=(MaxCycle=2
 000,NoVarAcc,NoIncFock) scrf=(iefpcm,read,solvent=water)\\42.n.pdb.xyz
 \\0,1\C,3.8456023754,0.1683150036,-0.0772911477\C,2.5494751753,-0.1857
 817185,-0.809936353\C,1.2895117594,0.1426550206,-0.0026249088\C,-0.013
 2144836,-0.2084367846,-0.7283019964\C,-1.2726808149,0.1202740354,0.079
 4530557\C,-2.5757219562,-0.230423321,-0.6456495628\C,-3.8276224254,0.1
 018171579,0.1689356567\H,4.7262690418,-0.0779979314,-0.679344621\H,3.9

 Normal termination of Gaussian 16 at Tue Mar  1 15:30:40 2022.

 --------------------------------------------------------------------
 #P Geom=AllCheck Guess=TCheck SCRF=Check GenChk RB3LYP/6-31G(d) Freq
 --------------------------------------------------------------------

 Structure from the checkpoint file:  "42.n.pdb.xyz.mst.wat.chk"
 ------------
 42.n.pdb.xyz
 ------------
 Charge =  0 Multiplicity = 1

 SCF Done:  E(RB3LYP) =  -276.397855261     A.U. after    1 cycles

  Exact polarizability: 106.420   0.013  93.874   0.002  -0.004  94.060
 Approx polarizability:  98.129   0.012  97.628   0.002  -0.003  99.918

                      1                      2                      3
                      A                      A                      A
 Frequencies --     67.6097                84.5740               100.1440
 Red. masses --      2.7854                 1.5260                 2.9931
 Frc consts  --      0.0075                 0.0064                 0.0177
 IR Inten    --      0.0043                 0.0002                 0.0104

                      4                      5                      6
                      A                      A                      A
 Frequencies --    143.5595               149.8295               243.6832
 Red. masses --      2.2225                 1.7026                 2.6788
 Frc consts  --      0.0270                 0.0225                 0.0937
 IR Inten    --      0.0000                 0.0009                 0.0001

                      7                      8                      9
                      A                      A                      A
 Frequencies --    253.2912               255.4062               300.8193
 Red. masses --      1.1109                 1.1335                 3.6390
 Frc consts  --      0.0420                 0.0436                 0.1940
 IR Inten    --      0.0006                 0.0005                 0.0140

                     10                     11                     12
                      A                      A                      A
 Frequencies --    414.3626               477.2893               737.7979
 Red. masses --      2.6103                 2.8739                 1.0596
 Frc consts  --      0.2641                 0.3857                 0.3398
 IR Inten    --      0.1352                 0.0823                11.7850

                     13                     14                     15
                      A                      A                      A
 Frequencies --    745.9652               779.5371               850.5427
 Red. masses --      1.0807                 1.1278                 1.1690
 Frc consts  --      0.3543                 0.4038                 0.4983
 IR Inten    --      0.1577                 3.2764                 0.0007

                     16                     17                     18
                      A                      A                      A
 Frequencies --    889.5736               922.5654               942.0585
 Red. masses --      2.0551                 1.6485                 1.1718
 Frc consts  --      0.9582                 0.8267                 0.6127
 IR Inten    --      3.1881                 2.6878                 1.6331

                     19                     20                     21
                      A                      A                      A
 Frequencies --   1007.2343              1032.8500              1047.0643
 Red. masses --      3.9261                 1.1051                 3.0393
 Frc consts  --      2.3468                 0.6946                 1.9632
 IR Inten    --      0.0997                 0.0007                 0.2024

                     22                     23                     24
                      A                      A                      A
 Frequencies --   1074.8057              1075.7896              1097.6298
 Red. masses --      2.3600                 2.1048                 1.7471
 Frc consts  --      1.6063                 1.4352                 1.2402
 IR Inten    --      0.5100                 0.2546                 4.3754

                     25                     26                     27
                      A                      A                      A
 Frequencies --   1165.0687              1215.2726              1253.9528
 Red. masses --      2.5942                 1.8910                 1.4699
 Frc consts  --      2.0747                 1.6455                 1.3617
 IR Inten    --      1.7028                 0.2282                 0.0005

                     28                     29                     30
                      A                      A                      A
 Frequencies --   1267.9741              1304.2095              1329.0948
 Red. masses --      1.3034                 1.2735                 1.3330
 Frc consts  --      1.2346                 1.2763                 1.3874
 IR Inten    --      6.0815                 0.0128                 0.0167

                     31                     32                     33
                      A                      A                      A
 Frequencies --   1334.2872              1337.6671              1343.5656
 Red. masses --      1.1505                 1.0390                 1.0818
 Frc consts  --      1.2068                 1.0954                 1.1505
 IR Inten    --      0.0004                 0.0083                 0.4758

                     34                     35                     36
                      A                      A                      A
 Frequencies --   1379.3806              1413.0659              1422.2100
 Red. masses --      1.4346                 1.5739                 1.6872
 Frc consts  --      1.6082                 1.8516                 2.0107
 IR Inten    --      3.4656                 0.0296                 1.1180

                     37                     38                     39
                      A                      A                      A
 Frequencies --   1427.0604              1434.0650              1497.3424
 Red. masses --      1.2779                 1.2565                 1.0728
 Frc consts  --      1.5333                 1.5225                 1.4172
 IR Inten    --      0.8418                 0.9010                 0.1099

                     40                     41                     42
                      A                      A                      A
 Frequencies --   1502.1531              1507.2281              1514.8066
 Red. masses --      1.0644                 1.0592                 1.0417
 Frc consts  --      1.4151                 1.4177                 1.4083
 IR Inten    --      0.8132                 0.5072                 6.6017

                     43                     44                     45
                      A                      A                      A
 Frequencies --   1515.4504              1520.4313              1525.2749
 Red. masses --      1.0712                 1.0416                 1.0831
 Frc consts  --      1.4494                 1.4187                 1.4847
 IR Inten    --      0.8093                 6.6894                 0.9528

                     46                     47                     48
                      A                      A                      A
 Frequencies --   1533.5761              1538.2089              3022.0200
 Red. masses --      1.0919                 1.0955                 1.0582
 Frc consts  --      1.5130                 1.5272                 5.6938
 IR Inten    --      0.5785                 6.6785                 1.2999

                     49                     50                     51
                      A                      A                      A
 Frequencies --   3023.1677              3028.2320              3037.6089
 Red. masses --      1.0582                 1.0592                 1.0597
 Frc consts  --      5.6983                 5.7226                 5.7612
 IR Inten    --      1.4081                82.8362                 5.1201

                     52                     53                     54
                      A                      A                      A
 Frequencies --   3038.7737              3042.4013              3048.4961
 Red. masses --      1.0597                 1.0989                 1.0363
 Frc consts  --      5.7654                 5.9929                 5.6740
 IR Inten    --    247.0877                 0.4251                46.7428

                     55                     56                     57
                      A                      A                      A
 Frequencies --   3049.4421              3051.9931              3061.4942
 Red. masses --      1.1010                 1.0360                 1.1038
 Frc consts  --      6.0323                 5.6855                 6.0953
 IR Inten    --      0.5797                47.1379                 1.1166

                     58                     59                     60
                      A                      A                      A
 Frequencies --   3073.3350              3079.7315              3111.5136
 Red. masses --      1.1051                 1.1055                 1.1025
 Frc consts  --      6.1501                 6.1779                 6.2891
 IR Inten    --      0.3139               308.2249                82.6045

                     61                     62                     63
                      A                      A                      A
 Frequencies --   3114.5264              3115.4000              3120.1540
 Red. masses --      1.1030                 1.1029                 1.1020
 Frc consts  --      6.3039                 6.3071                 6.3210
 IR Inten    --    112.1511               107.1738                73.8599

 - Thermochemistry -
 -------------------
 Temperature   298.150 Kelvin.  Pressure   1.00000 Atm.
 Atom     1 has atomic number  6 and mass  12.00000

 Molecular mass:   100.12520 amu.
 Principal axes and moments of inertia in atomic units:
                           1         2         3
     Eigenvalues --   149.406882503.068602574.53406
           X            1.00000  -0.00000  -0.00000
           Y            0.00000   1.00000  -0.00001
           Z            0.00000   0.00001   1.00000
 This molecule is an asymmetric top.
 Rotational symmetry number  1.
 Rotational temperatures (Kelvin)      0.57972     0.03460     0.03364
 Rotational constants (GHZ):          12.07937     0.72101     0.70100
 Zero-point vibrational energy     574169.3 (Joules/Mol)
                                  137.22977 (Kcal/Mol)
 Warning -- explicit consideration of  11 degrees of freedom as
           vibrations may cause significant error
 Vibrational temperatures:     97.28   121.68   144.08   206.55   215.57
          (Kelvin)            350.61   364.43   367.47   432.81   596.18
                              686.71  1061.53  1073.28  1121.58  1223.74
                             1279.90  1327.37  1355.41  1449.19  1486.04
                             1506.49  1546.41  1547.82  1579.24  1676.27
                             1748.51  1804.16  1824.33  1876.47  1912.27
                             1919.74  1924.60  1933.09  1984.62  2033.09
                             2046.24  2053.22  2063.30  2154.34  2161.26
                             2168.57  2179.47  2180.40  2187.56  2194.53
                             2206.47  2213.14  4348.01  4349.66  4356.95
                             4370.44  4372.12  4377.34  4386.11  4387.47
                             4391.14  4404.81  4421.84  4431.05  4476.77
                             4481.11  4482.37  4489.21

 Zero-point correction=                           0.218690 (Hartree/Particle)
 Thermal correction to Energy=                    0.228392
 Thermal correction to Enthalpy=                  0.229336
 Thermal correction to Gibbs Free Energy=         0.184012
 Sum of electronic and zero-point Energies=           -276.179166
 Sum of electronic and thermal Energies=              -276.169464
 Sum of electronic and thermal Enthalpies=            -276.168519
 Sum of electronic and thermal Free Energies=         -276.213843

                     E (Thermal)             CV                S
                      KCal/Mol        Cal/Mol-Kelvin    Cal/Mol-Kelvin
 Total                  143.318             34.036             95.392
 Electronic               0.000              0.000              0.000
 Translational            0.889              2.981             39.722
 Rotational               0.889              2.981             28.356
 Vibrational            141.540             28.074             27.315
 Vibration     1          0.598              1.970              4.222
 Vibration     2          0.601              1.960              3.782
 Vibration     3          0.604              1.949              3.452
 Vibration     4          0.616              1.910              2.756
 Vibration     5          0.618              1.903              2.674
 Vibration     6          0.659              1.773              1.776
 Vibration     7          0.664              1.757              1.708
 Vibration     8          0.666              1.754              1.693
 Vibration     9          0.693              1.672              1.412
 Vibration    10          0.778              1.439              0.911
 Vibration    11          0.834              1.300              0.717

 Optimization completed.
    -- Stationary point found.

 1\1\GINC-PIRINEUS2\Freq\RB3LYP\6-31G(d)\C7H16\UBATOR01\01-Mar-2022\0\\
 #P Geom=AllCheck Guess=TCheck SCRF=Check GenChk RB3LYP/6-31G(d) Freq\\
 42.n.pdb.xyz\\0,1\C,3.8456023754,0.1683150036,-0.0772911477\C,2.549475
 1753,-0.1857817185,-0.809936353\C,1.2895117594,0.1426550206,-0.0026249
 088\C,-0.0132144836,-0.2084367846,-0.7283019964\C,-1.2726808149,0.1202
 740354,0.0794530557\C,-2.5757219562,-0.230423321,-0.6456495628\C,-3.82
 76224254,0.1018171579,0.1689356567\H,4.7262690418,-0.0779979314,-0.679
 344621\H,3.9256344807,-0.3775686401,0.8694681961\H,3.8885541836,1.2385

 Normal termination of Gaussian 16 at Tue Mar  1 15:36:10 2022.

 ------------------------------------------
 #p b3lyp/6-31G(d) geom=allcheck guess=read
 ------------------------------------------

 Structure from the checkpoint file:  "42.n.pdb.xyz.mst.wat.chk"
 ------------
 42.n.pdb.xyz
 ------------
 Charge =  0 Multiplicity = 1

 SCF Done:  E(RB3LYP) =  -276.399160549     A.U. after    7 cycles
 Normal termination of Gaussian 16 at Tue Mar  1 15:36:32 2022.
 Gaussian 16:  ES64L-G16RevA.03 25-Dec-2016

 ----------------------------------------------------------------------
 #p b3lyp/6-31G(d) scrf=(iefpcm,read,solvent=water) geom=allcheck guess
 =read
 ----------------------------------------------------------------------

 Structure from the checkpoint file:  "42.n.pdb.xyz.mst.wat.chk"
 ------------
 42.n.pdb.xyz
 ------------
 Charge =  0 Multiplicity = 1

                         Standard orientation:
 ---------------------------------------------------------------------
 Center     Atomic      Atomic             Coordinates (Angstroms)
 Number     Number       Type             X           Y           Z
 ---------------------------------------------------------------------
      1          6           0       -3.838965   -0.352381   -0.000111
      2          6           0       -2.563967    0.494070   -0.000048
      3          6           0       -1.281668   -0.344285    0.000098
      4          6           0        0.000123    0.494751    0.000096
      5          6           0        1.281937   -0.344133    0.000182
      6          6           0        2.564057    0.494226    0.000045
      7          6           0        3.838498   -0.352526   -0.000173
      8          1           0       -4.736309    0.274903   -0.000191
      9          1           0       -3.883866   -0.998469    0.883802
     10          1           0       -3.883765   -0.998493   -0.884029
     11          1           0       -2.563675    1.154149    0.877306
     12          1           0       -2.563522    1.154059   -0.877493
     13          1           0       -1.282640   -1.005306   -0.877817
     14          1           0       -1.282761   -1.005174    0.878128
     15          1           0        0.000109    1.155587    0.878060
     16          1           0        0.000146    1.155324   -0.877963
     17          1           0        1.283099   -1.004983    0.878172
     18          1           0        1.283074   -1.005167   -0.877702
     19          1           0        2.563722    1.153911   -0.877397
     20          1           0        2.563864    1.154422    0.877349
     21          1           0        3.883077   -0.998895    0.883525
     22          1           0        4.737195    0.274201   -0.000719
     23          1           0        3.882164   -0.998405   -0.883569
 ---------------------------------------------------------------------

 SCF Done:  E(RB3LYP) =  -276.397762158     A.U. after    7 cycles

 The electronic state is 1-A.
 Alpha  occ. eigenvalues --  -10.17398 -10.17394 -10.17165 -10.17149 -10.17135
 Alpha  occ. eigenvalues --  -10.16842 -10.16842  -0.80147  -0.77235  -0.72588
 Alpha  occ. eigenvalues --   -0.66699  -0.60599  -0.56987  -0.56933  -0.47525
 Alpha  occ. eigenvalues --   -0.44941  -0.42649  -0.41874  -0.41139  -0.39489
 Alpha  occ. eigenvalues --   -0.36991  -0.36387  -0.35354  -0.33630  -0.33014
 Alpha  occ. eigenvalues --   -0.31860  -0.31738  -0.31508  -0.29840
 Alpha virt. eigenvalues --    0.09393   0.10340   0.12178   0.12437   0.13201
 Alpha virt. eigenvalues --    0.15494   0.15685   0.17179   0.17501   0.18942
 Alpha virt. eigenvalues --    0.19120   0.19717   0.19814   0.20423   0.20943

 Mulliken charges:
               1
     1  C   -0.450958
     2  C   -0.249059
     3  C   -0.248937
     4  C   -0.255440
     5  C   -0.248958
     6  C   -0.249028
     7  C   -0.450948
     8  H    0.143409
     9  H    0.143414
    10  H    0.143400
    11  H    0.131474
    12  H    0.131484
    13  H    0.127738
    14  H    0.127729
    15  H    0.128013
    16  H    0.128033
    17  H    0.127750
    18  H    0.127743
    19  H    0.131519
    20  H    0.131465
    21  H    0.143394
    22  H    0.143190
    23  H    0.143572
 Sum of Mulliken charges =  -0.00000

 Dipole moment (field-independent basis, Debye):
    X=             -0.0010    Y=              0.0659    Z=             -0.0011  Tot=              0.0659
 Quadrupole moment (field-independent basis, Debye-Ang):
   XX=            -49.3053   YY=            -48.4687   ZZ=            -47.1735
   XY=             -0.0028   XZ=             -0.0030   YZ=             -0.0001

 Normal termination of Gaussian 16 at Tue Mar  1 15:37:04 2022.
