 Gaussian 16, Revision A.03,

 ----------------------------------------------------------------------
 #p b3lyp/6-31G(d) opt=(MaxStep=10,MaxCycles=1000) freq scf=(MaxCycle=2
 000,NoVarAcc,NoIncFock) scrf=(iefpcm,read,solvent=water)
 ----------------------------------------------------------------------

 ------------
 44.n.pdb.xyz
 ------------
 Symbolic Z-matrix:
 Charge =  0 Multiplicity = 1

 SCF Done:  E(RB3LYP) =  -1143.64645001     A.U. after   12 cycles
 SCF Done:  E(RB3LYP) =  -1143.65012439     A.U. after   10 cycles
 SCF Done:  E(RB3LYP) =  -1143.64915771     A.U. after   11 cycles
 SCF Done:  E(RB3LYP) =  -1143.65185647     A.U. after   10 cycles
 SCF Done:  E(RB3LYP) =  -1143.65252332     A.U. after   11 cycles
 SCF Done:  E(RB3LYP) =  -1143.64877833     A.U. after   13 cycles
 SCF Done:  E(RB3LYP) =  -1143.65304100     A.U. after   10 cycles
 SCF Done:  E(RB3LYP) =  -1143.65208487     A.U. after   13 cycles
 SCF Done:  E(RB3LYP) =  -1143.65303329     A.U. after   11 cycles
 SCF Done:  E(RB3LYP) =  -1143.65309632     A.U. after   10 cycles
 SCF Done:  E(RB3LYP) =  -1143.65311308     A.U. after    9 cycles
 SCF Done:  E(RB3LYP) =  -1143.65311283     A.U. after    6 cycles
 SCF Done:  E(RB3LYP) =  -1143.65311283     A.U. after    5 cycles
 SCF Done:  E(RB3LYP) =  -1143.65311283     A.U. after    5 cycles
 SCF Done:  E(RB3LYP) =  -1143.65311283     A.U. after    3 cycles
 SCF Done:  E(RB3LYP) =  -1143.65309018     A.U. after    9 cycles
 SCF Done:  E(RB3LYP) =  -1143.65309382     A.U. after    8 cycles
 Optimization completed on the basis of negligible forces.
    -- Stationary point found.
 Normal termination of Gaussian 16 at Tue Mar  1 22:59:20 2022.

 --------------------------------------------------------------------
 #P Geom=AllCheck Guess=TCheck SCRF=Check GenChk RB3LYP/6-31G(d) Freq
 --------------------------------------------------------------------

 Structure from the checkpoint file:  "44.n.pdb.xyz.mst.wat.chk"
 ------------
 44.n.pdb.xyz
 ------------
 Charge =  0 Multiplicity = 1

 SCF Done:  E(RB3LYP) =  -1143.65309382     A.U. after    1 cycles

  Exact polarizability: 278.269  20.337 248.803   7.943 -38.560 191.354
 Approx polarizability: 290.367  20.354 266.323   7.365 -47.844 219.924

                      1                      2                      3
                      A                      A                      A
 Frequencies --     12.2358                23.4306                27.8581
 Red. masses --     15.1015                 5.7468                 3.8684
 Frc consts  --      0.0013                 0.0019                 0.0018
 IR Inten    --      0.0145                 0.3371                 1.0880

                      4                      5                      6
                      A                      A                      A
 Frequencies --     31.8573                37.4025                45.6079
 Red. masses --      3.8306                 3.3481                 3.6481
 Frc consts  --      0.0023                 0.0028                 0.0045
 IR Inten    --      0.3849                 1.7342                 0.2681

                      7                      8                      9
                      A                      A                      A
 Frequencies --     52.2077                78.4051                93.1267
 Red. masses --      4.8775                 4.1589                 2.3361
 Frc consts  --      0.0078                 0.0151                 0.0119
 IR Inten    --      1.4375                 1.7589                 6.4360

                     10                     11                     12
                      A                      A                      A
 Frequencies --     98.5170               112.3173               118.2834
 Red. masses --      2.1244                 3.3523                 2.4464
 Frc consts  --      0.0121                 0.0249                 0.0202
 IR Inten    --      5.7904                 1.8068                 0.4226

                     13                     14                     15
                      A                      A                      A
 Frequencies --    138.6368               150.0840               161.0678
 Red. masses --      1.9145                 3.6727                 3.9698
 Frc consts  --      0.0217                 0.0487                 0.0607
 IR Inten    --      1.7056                 0.1484                 3.5112

                     16                     17                     18
                      A                      A                      A
 Frequencies --    178.1936               216.7186               238.4305
 Red. masses --      3.4061                 4.8202                 2.1305
 Frc consts  --      0.0637                 0.1334                 0.0714
 IR Inten    --      0.8719                 1.4060                 3.8489

                     19                     20                     21
                      A                      A                      A
 Frequencies --    256.1903               275.6422               278.1554
 Red. masses --      2.2076                 5.6897                 1.4871
 Frc consts  --      0.0854                 0.2547                 0.0678
 IR Inten    --     10.8844                 7.9911                76.5002

                     22                     23                     24
                      A                      A                      A
 Frequencies --    301.8909               318.0953               344.0317
 Red. masses --      5.1655                 3.8975                 3.4789
 Frc consts  --      0.2774                 0.2324                 0.2426
 IR Inten    --      2.9710                 8.3416                 9.7857

                     25                     26                     27
                      A                      A                      A
 Frequencies --    371.3292               398.5913               401.3277
 Red. masses --      6.9347                 3.3744                 5.4896
 Frc consts  --      0.5634                 0.3159                 0.5209
 IR Inten    --      1.5735                 8.5443                 6.0762

                     28                     29                     30
                      A                      A                      A
 Frequencies --    414.9046               431.2307               478.3442
 Red. masses --      3.0721                 4.2656                 7.1807
 Frc consts  --      0.3116                 0.4674                 0.9681
 IR Inten    --      0.7502                15.7630                 3.4623

                     31                     32                     33
                      A                      A                      A
 Frequencies --    504.1063               515.5346               570.2070
 Red. masses --      3.8874                 4.8991                11.1226
 Frc consts  --      0.5820                 0.7672                 2.1307
 IR Inten    --      4.4263                15.8666                 0.1725

                     34                     35                     36
                      A                      A                      A
 Frequencies --    584.7853               624.5522               634.2484
 Red. masses --      6.1228                 3.2028                 5.1032
 Frc consts  --      1.2337                 0.7361                 1.2095
 IR Inten    --      4.5561                16.1067                27.3299

                     37                     38                     39
                      A                      A                      A
 Frequencies --    651.1606               668.0426               741.8670
 Red. masses --      6.2938                 4.8392                 6.7858
 Frc consts  --      1.5723                 1.2724                 2.2004
 IR Inten    --      4.7837                 5.5608                14.6226

                     40                     41                     42
                      A                      A                      A
 Frequencies --    744.4318               760.2200               798.6421
 Red. masses --      1.2770                 2.8161                 1.4700
 Frc consts  --      0.4170                 0.9589                 0.5524
 IR Inten    --      9.8123                 5.1666                 1.9341

                     43                     44                     45
                      A                      A                      A
 Frequencies --    801.4789               817.6496               861.4717
 Red. masses --      1.2836                 3.0073                 1.2576
 Frc consts  --      0.4858                 1.1846                 0.5499
 IR Inten    --      4.5894                19.8888                 3.8752

                     46                     47                     48
                      A                      A                      A
 Frequencies --    864.2376               917.0689               925.8978
 Red. masses --      1.6244                 1.3204                 1.7933
 Frc consts  --      0.7148                 0.6543                 0.9058
 IR Inten    --     66.7385               277.4469                18.2183

                     49                     50                     51
                      A                      A                      A
 Frequencies --    947.6715               949.3602               982.2698
 Red. masses --      5.3118                 2.3978                 1.3272
 Frc consts  --      2.8106                 1.2733                 0.7545
 IR Inten    --    137.8529                50.9704                 4.1335

                     52                     53                     54
                      A                      A                      A
 Frequencies --    985.5192               989.8284              1019.4582
 Red. masses --      1.3472                 2.2296                 4.4948
 Frc consts  --      0.7709                 1.2871                 2.7523
 IR Inten    --      0.2023                67.5732                86.3366

                     55                     56                     57
                      A                      A                      A
 Frequencies --   1032.7370              1052.9043              1064.7382
 Red. masses --      3.8102                 3.1158                 3.3355
 Frc consts  --      2.3943                 2.0351                 2.2279
 IR Inten    --     39.0899                59.3936                83.9371

                     58                     59                     60
                      A                      A                      A
 Frequencies --   1081.7329              1086.0577              1095.0628
 Red. masses --      3.2171                 3.6928                 4.3060
 Frc consts  --      2.2180                 2.5663                 3.0423
 IR Inten    --     68.8161               130.9444                58.4688

                     61                     62                     63
                      A                      A                      A
 Frequencies --   1117.8581              1120.5758              1138.5763
 Red. masses --      2.2617                 2.6393                 2.0670
 Frc consts  --      1.6652                 1.9526                 1.5787
 IR Inten    --     26.5027               256.9941                65.2902

                     64                     65                     66
                      A                      A                      A
 Frequencies --   1139.5862              1145.6660              1148.2603
 Red. masses --     11.7608                 1.8078                 2.0462
 Frc consts  --      8.9987                 1.3981                 1.5895
 IR Inten    --    371.6427                 4.1686                39.5935

                     67                     68                     69
                      A                      A                      A
 Frequencies --   1181.9951              1188.2897              1208.5768
 Red. masses --      3.3056                 1.2917                 1.4847
 Frc consts  --      2.7210                 1.0746                 1.2777
 IR Inten    --    241.5172                 7.3198                53.1736

                     70                     71                     72
                      A                      A                      A
 Frequencies --   1215.9956              1235.7106              1253.6346
 Red. masses --      1.1652                 1.5659                 1.4818
 Frc consts  --      1.0151                 1.4088                 1.3721
 IR Inten    --     18.3188                 6.1007                 3.3968

                     73                     74                     75
                      A                      A                      A
 Frequencies --   1260.0452              1285.6647              1308.3566
 Red. masses --      1.5029                 2.3395                 1.2474
 Frc consts  --      1.4059                 2.2784                 1.2581
 IR Inten    --      6.0393                26.7127                22.2437

                     76                     77                     78
                      A                      A                      A
 Frequencies --   1312.0731              1330.7401              1336.5316
 Red. masses --      1.3037                 1.1799                 1.0830
 Frc consts  --      1.3223                 1.2310                 1.1398
 IR Inten    --      2.6816                60.7492                 1.8109

                     79                     80                     81
                      A                      A                      A
 Frequencies --   1339.7903              1342.9130              1350.3852
 Red. masses --      3.5946                 1.5200                 1.1479
 Frc consts  --      3.8016                 1.6150                 1.2333
 IR Inten    --    514.1200                 0.8301                 4.8215

                     82                     83                     84
                      A                      A                      A
 Frequencies --   1359.4222              1365.1488              1389.0509
 Red. masses --      3.9611                 1.5381                 1.2780
 Frc consts  --      4.3130                 1.6889                 1.4529
 IR Inten    --      5.1575                 2.5008                17.0034

                     85                     86                     87
                      A                      A                      A
 Frequencies --   1418.5069              1434.2178              1448.4896
 Red. masses --      1.7130                 1.3685                 1.7140
 Frc consts  --      2.0308                 1.6585                 2.1187
 IR Inten    --      7.3457                27.7071                 5.7811

                     88                     89                     90
                      A                      A                      A
 Frequencies --   1450.3165              1493.8171              1494.9468
 Red. masses --      2.2640                 1.0881                 1.1177
 Frc consts  --      2.8057                 1.4305                 1.4718
 IR Inten    --     25.2395                 4.2786                 2.4389

                     91                     92                     93
                      A                      A                      A
 Frequencies --   1500.1818              1503.3009              1511.6261
 Red. masses --      1.0921                 1.0904                 1.0779
 Frc consts  --      1.4481                 1.4519                 1.4512
 IR Inten    --      1.4802                 3.8047                 3.3587

                     94                     95                     96
                      A                      A                      A
 Frequencies --   1517.9513              1530.8204              1536.1399
 Red. masses --      1.0934                 1.0700                 1.0888
 Frc consts  --      1.4843                 1.4774                 1.5138
 IR Inten    --      4.1316                 5.2731                 2.1552

                     97                     98                     99
                      A                      A                      A
 Frequencies --   1537.5553              1560.1068              1626.1193
 Red. masses --      1.0839                 2.5141                 6.8883
 Frc consts  --      1.5097                 3.6054                10.7317
 IR Inten    --      9.7849                 2.4734                 4.3542

                    100                    101                    102
                      A                      A                      A
 Frequencies --   1665.0761              1673.2402              1692.9203
 Red. masses --      1.0867                 5.8657                 8.9259
 Frc consts  --      1.7752                 9.6758                15.0722
 IR Inten    --     47.8413                21.2404                10.4943

                    103                    104                    105
                      A                      A                      A
 Frequencies --   2991.0864              3012.7866              3021.2369
 Red. masses --      1.0718                 1.0633                 1.0427
 Frc consts  --      5.6494                 5.6865                 5.6076
 IR Inten    --    110.3871                70.4619                96.0240

                    106                    107                    108
                      A                      A                      A
 Frequencies --   3047.3078              3049.0796              3061.2991
 Red. masses --      1.0601                 1.0596                 1.0599
 Frc consts  --      5.7999                 5.8039                 5.8524
 IR Inten    --      3.2728                32.3518                84.3809

                    109                    110                    111
                      A                      A                      A
 Frequencies --   3072.3116              3074.2724              3079.8669
 Red. masses --      1.0995                 1.1005                 1.0575
 Frc consts  --      6.1149                 6.1279                 5.9100
 IR Inten    --     35.3116                79.0038                86.9297

                    112                    113                    114
                      A                      A                      A
 Frequencies --   3081.7153              3094.3409              3101.2851
 Red. masses --      1.0997                 1.0896                 1.1011
 Frc consts  --      6.1533                 6.1469                 6.2397
 IR Inten    --      4.4863                45.9608                19.4692

                    115                    116                    117
                      A                      A                      A
 Frequencies --   3111.9308              3135.9837              3149.3597
 Red. masses --      1.1018                 1.1096                 1.0993
 Frc consts  --      6.2863                 6.4292                 6.4239
 IR Inten    --    187.7683                67.8945                53.9504

                    118                    119                    120
                      A                      A                      A
 Frequencies --   3230.1137              3232.4268              3243.8069
 Red. masses --      1.0879                 1.0898                 1.0943
 Frc consts  --      6.6877                 6.7089                 6.7840
 IR Inten    --     10.2806                 4.0870                16.1575

                    121                    122                    123
                      A                      A                      A
 Frequencies --   3259.9552              3467.2010              3543.3494
 Red. masses --      1.0930                 1.0519                 1.0916
 Frc consts  --      6.8439                 7.4502                 8.0750
 IR Inten    --      5.0196                 1.9189                 4.8308

 - Thermochemistry -
 -------------------
 Temperature   298.150 Kelvin.  Pressure   1.00000 Atm.
 Atom     1 has atomic number  6 and mass  12.00000

 Molecular mass:   318.15551 amu.
 Principal axes and moments of inertia in atomic units:
                           1         2         3
     Eigenvalues --  6307.36067********************
           X            0.99970  -0.02394   0.00564
           Y            0.02394   0.99971  -0.00134
           Z           -0.00561   0.00148   0.99998
 This molecule is an asymmetric top.
 Rotational symmetry number  1.
 Warning -- assumption of classical behavior for rotation
           may cause significant error
 Rotational temperatures (Kelvin)      0.01373     0.00504     0.00388
 Rotational constants (GHZ):           0.28613     0.10492     0.08075
 Zero-point vibrational energy     927632.0 (Joules/Mol)
                                  221.70936 (Kcal/Mol)
 Warning -- explicit consideration of  34 degrees of freedom as
           vibrations may cause significant error
 Vibrational temperatures:     17.60    33.71    40.08    45.84    53.81
          (Kelvin)             65.62    75.12   112.81   133.99   141.74
                              161.60   170.18   199.47   215.94   231.74
                              256.38   311.81   343.05   368.60   396.59
                              400.20   434.35   457.67   494.98   534.26
                              573.48   577.42   596.96   620.44   688.23
                              725.30   741.74   820.40   841.38   898.59
                              912.54   936.87   961.16  1067.38  1071.07
                             1093.79  1149.07  1153.15  1176.42  1239.47
                             1243.45  1319.46  1332.16  1363.49  1365.92
                             1413.27  1417.94  1424.14  1466.77  1485.88
                             1514.89  1531.92  1556.37  1562.59  1575.55
                             1608.35  1612.26  1638.16  1639.61  1648.36
                             1652.09  1700.63  1709.68  1738.87  1749.55
                             1777.91  1803.70  1812.92  1849.78  1882.43
                             1887.78  1914.64  1922.97  1927.66  1932.15
                             1942.90  1955.91  1964.14  1998.53  2040.92
                             2063.52  2084.05  2086.68  2149.27  2150.89
                             2158.43  2162.91  2174.89  2183.99  2202.51
                             2210.16  2212.20  2244.65  2339.62  2395.67
                             2407.42  2435.73  4303.51  4334.73  4346.89
                             4384.40  4386.95  4404.53  4420.37  4423.19
                             4431.24  4433.90  4452.07  4462.06  4477.37
                             4511.98  4531.23  4647.41  4650.74  4667.11
                             4690.35  4988.53  5098.09

 Zero-point correction=                           0.353316 (Hartree/Particle)
 Thermal correction to Energy=                    0.376724
 Thermal correction to Enthalpy=                  0.377668
 Thermal correction to Gibbs Free Energy=         0.295195
 Sum of electronic and zero-point Energies=          -1143.299777
 Sum of electronic and thermal Energies=             -1143.276370
 Sum of electronic and thermal Enthalpies=           -1143.275426
 Sum of electronic and thermal Free Energies=        -1143.357899

                     E (Thermal)             CV                S
                      KCal/Mol        Cal/Mol-Kelvin    Cal/Mol-Kelvin
 Total                  236.398             83.807            173.579
 Electronic               0.000              0.000              0.000
 Translational            0.889              2.981             43.168
 Rotational               0.889              2.981             36.137
 Vibrational            234.620             77.845             94.274
 Vibration     1          0.593              1.987              7.610
 Vibration     2          0.593              1.985              6.320
 Vibration     3          0.593              1.984              5.976
 Vibration     4          0.594              1.983              5.710
 Vibration     5          0.594              1.982              5.392
 Vibration     6          0.595              1.979              4.999
 Vibration     7          0.596              1.977              4.732
 Vibration     8          0.600              1.964              3.930
 Vibration     9          0.602              1.954              3.593
 Vibration    10          0.604              1.950              3.483
 Vibration    11          0.607              1.939              3.228
 Vibration    12          0.608              1.934              3.128
 Vibration    13          0.614              1.915              2.823
 Vibration    14          0.618              1.903              2.671
 Vibration    15          0.622              1.890              2.537
 Vibration    16          0.629              1.869              2.347
 Vibration    17          0.646              1.816              1.986
 Vibration    18          0.656              1.782              1.815
 Vibration    19          0.666              1.752              1.688
 Vibration    20          0.677              1.718              1.561
 Vibration    21          0.679              1.714              1.545
 Vibration    22          0.694              1.670              1.406
 Vibration    23          0.704              1.639              1.320
 Vibration    24          0.723              1.587              1.193
 Vibration    25          0.743              1.531              1.074
 Vibration    26          0.765              1.473              0.968
 Vibration    27          0.767              1.467              0.958
 Vibration    28          0.778              1.438              0.909
 Vibration    29          0.792              1.402              0.855
 Vibration    30          0.835              1.298              0.715
 Vibration    31          0.859              1.241              0.648
 Vibration    32          0.871              1.216              0.620
 Vibration    33          0.926              1.096              0.504
 Vibration    34          0.942              1.064              0.477

 Optimization completed.
    -- Stationary point found.
 Normal termination of Gaussian 16 at Tue Mar  1 23:43:38 2022.

 ------------------------------------------
 #p b3lyp/6-31G(d) geom=allcheck guess=read
 ------------------------------------------

 Structure from the checkpoint file:  "44.n.pdb.xyz.mst.wat.chk"
 ------------
 44.n.pdb.xyz
 ------------
 Charge =  0 Multiplicity = 1

 SCF Done:  E(RB3LYP) =  -1143.64126916     A.U. after   11 cycles
 Normal termination of Gaussian 16 at Tue Mar  1 23:46:18 2022.
 Gaussian 16:  ES64L-G16RevA.03 25-Dec-2016

 ----------------------------------------------------------------------
 #p b3lyp/6-31G(d) scrf=(iefpcm,read,solvent=water) geom=allcheck guess
 =read
 ----------------------------------------------------------------------

 Structure from the checkpoint file:  "44.n.pdb.xyz.mst.wat.chk"
 ------------
 44.n.pdb.xyz
 ------------
 Charge =  0 Multiplicity = 1

                         Standard orientation:
 ---------------------------------------------------------------------
 Center     Atomic      Atomic             Coordinates (Angstroms)
 Number     Number       Type             X           Y           Z
 ---------------------------------------------------------------------
      1          6           0        6.505511   -3.049091    0.882730
      2          8           0        6.291947   -2.530131   -0.418978
      3          6           0        5.430290   -1.395306   -0.431884
      4          6           0        3.953215   -1.754229   -0.277849
      5          6           0        3.048710   -0.519032   -0.334046
      6          6           0        1.569153   -0.888291   -0.194602
      7          6           0        0.585973    0.263654   -0.257503
      8          7           0        1.086943    1.436557   -0.426059
      9          8           0        0.130108    2.461471   -0.477838
     10          6           0        0.800067    3.728202   -0.526480
     11          6           0        1.301013    4.169067    0.844551
     12          7           0        1.942006    5.484903    0.733029
     13          6           0       -0.862992   -0.063682   -0.140906
     14          6           0       -1.815026    0.503665   -1.004640
     15          6           0       -3.156338    0.147292   -0.913152
     16          6           0       -3.568828   -0.773575    0.052955
     17          6           0       -2.637060   -1.342076    0.922023
     18          6           0       -1.293135   -0.995338    0.816934
     19          6           0       -5.007047   -1.190945    0.122172
     20          9           0       -5.367640   -1.563748    1.370430
     21          9           0       -5.269089   -2.248386   -0.686184
     22          9           0       -5.842344   -0.199680   -0.261108
     23          1           0        7.229584   -3.861013    0.791510
     24          1           0        6.911290   -2.278257    1.553355
     25          1           0        5.584922   -3.445328    1.329228
     26          1           0        5.596514   -0.907802   -1.396960
     27          1           0        5.737347   -0.691984    0.356847
     28          1           0        3.801000   -2.280312    0.672376
     29          1           0        3.681281   -2.456516   -1.075250
     30          1           0        3.328738    0.181673    0.460620
     31          1           0        3.205962    0.011357   -1.279873
     32          1           0        1.288930   -1.607645   -0.975573
     33          1           0        1.412519   -1.419149    0.753200
     34          1           0        1.624652    3.680608   -1.242494
     35          1           0        0.044482    4.422357   -0.904611
     36          1           0        0.459011    4.134979    1.554677
     37          1           0        2.046405    3.447856    1.194642
     38          1           0        2.362793    5.719097    1.631573
     39          1           0        1.218347    6.189633    0.588542
     40          1           0       -1.499725    1.225763   -1.745528
     41          1           0       -3.883629    0.589606   -1.584040
     42          1           0       -2.961040   -2.047837    1.677411
     43          1           0       -0.577833   -1.443599    1.496029
 ---------------------------------------------------------------------

 SCF Done:  E(RB3LYP) =  -1143.65123931     A.U. after   11 cycles

 The electronic state is 1-A.
 Alpha  occ. eigenvalues --  -24.73003 -24.72987 -24.72441 -19.18879 -19.14724
 Alpha  occ. eigenvalues --  -14.38169 -14.30815 -10.43654 -10.23563 -10.22761
 Alpha  occ. eigenvalues --  -10.22511 -10.22105 -10.21832 -10.21649 -10.20825
 Alpha  occ. eigenvalues --  -10.20765 -10.20548 -10.20343 -10.20164 -10.19396
 Alpha  occ. eigenvalues --  -10.18208 -10.17777  -1.30562  -1.22035  -1.21515
 Alpha  occ. eigenvalues --   -1.08233  -1.02646  -0.89506  -0.87496  -0.86610
 Alpha  occ. eigenvalues --   -0.79599  -0.79162  -0.76262  -0.74235  -0.71159
 Alpha  occ. eigenvalues --   -0.70278  -0.68289  -0.64405  -0.62908  -0.61769
 Alpha  occ. eigenvalues --   -0.60453  -0.58485  -0.58393  -0.58046  -0.56686
 Alpha  occ. eigenvalues --   -0.55176  -0.52355  -0.49540  -0.49066  -0.47920
 Alpha  occ. eigenvalues --   -0.47593  -0.46856  -0.46259  -0.46118  -0.45691
 Alpha  occ. eigenvalues --   -0.45365  -0.45187  -0.43834  -0.43728  -0.42920
 Alpha  occ. eigenvalues --   -0.42690  -0.42428  -0.41660  -0.40699  -0.40243
 Alpha  occ. eigenvalues --   -0.39940  -0.39184  -0.38423  -0.37876  -0.37183
 Alpha  occ. eigenvalues --   -0.36441  -0.36109  -0.35203  -0.34732  -0.34530
 Alpha  occ. eigenvalues --   -0.33868  -0.33019  -0.30960  -0.27696  -0.27385
 Alpha  occ. eigenvalues --   -0.26541  -0.25221  -0.24202  -0.23592
 Alpha virt. eigenvalues --   -0.04731  -0.01548   0.02169   0.08369   0.08910
 Alpha virt. eigenvalues --    0.09827   0.09951   0.11120   0.12013   0.12712
 Alpha virt. eigenvalues --    0.12952   0.13201   0.13840   0.14243   0.14998

 Mulliken charges:
               1
     1  C   -0.212855
     2  O   -0.498280
     3  C   -0.028776
     4  C   -0.284252
     5  C   -0.257624
     6  C   -0.332687
     7  C    0.229865
     8  N   -0.220202
     9  O   -0.413331
    10  C   -0.010008
    11  C   -0.150489
    12  N   -0.792788
    13  C    0.125849
    14  C   -0.162441
    15  C   -0.178342
    16  C   -0.007570
    17  C   -0.174711
    18  C   -0.191034
    19  C    0.786704
    20  F   -0.274773
    21  F   -0.270738
    22  F   -0.274787
    23  H    0.162445
    24  H    0.142202
    25  H    0.146493
    26  H    0.146783
    27  H    0.130127
    28  H    0.146047
    29  H    0.142481
    30  H    0.147997
    31  H    0.146373
    32  H    0.170247
    33  H    0.172361
    34  H    0.146059
    35  H    0.156373
    36  H    0.129064
    37  H    0.153408
    38  H    0.340220
    39  H    0.333362
    40  H    0.168798
    41  H    0.171164
    42  H    0.171958
    43  H    0.169310
 Sum of Mulliken charges =  -0.00000

 Dipole moment (field-independent basis, Debye):
    X=              0.7584    Y=              1.2674    Z=              3.0264  Tot=              3.3676
 Quadrupole moment (field-independent basis, Debye-Ang):
   XX=           -157.7282   YY=           -117.2290   ZZ=           -121.8129
   XY=             -6.2899   XZ=             14.4246   YZ=             -0.0659

 Normal termination of Gaussian 16 at Tue Mar  1 23:49:53 2022.
