 Gaussian 16, Revision A.03,

 ----------------------------------------------------------------------
 #p b3lyp/6-31G(d) opt=(MaxStep=10,MaxCycles=1000) freq scf=(MaxCycle=2
 000,NoVarAcc,NoIncFock) scrf=(iefpcm,read,solvent=water)
 ----------------------------------------------------------------------

 ------------
 45.n.pdb.xyz
 ------------
 Symbolic Z-matrix:
 Charge =  0 Multiplicity = 1

 SCF Done:  E(RB3LYP) =  -1276.99244993     A.U. after   14 cycles
 SCF Done:  E(RB3LYP) =  -1276.99751059     A.U. after   11 cycles
 SCF Done:  E(RB3LYP) =  -1276.99976694     A.U. after   12 cycles
 SCF Done:  E(RB3LYP) =  -1277.00247558     A.U. after   12 cycles
 SCF Done:  E(RB3LYP) =  -1277.00519446     A.U. after   15 cycles
 SCF Done:  E(RB3LYP) =  -1277.00833135     A.U. after   11 cycles
 SCF Done:  E(RB3LYP) =  -1277.00964180     A.U. after   11 cycles
 SCF Done:  E(RB3LYP) =  -1277.01018346     A.U. after   12 cycles
 SCF Done:  E(RB3LYP) =  -1277.01087659     A.U. after   10 cycles
 SCF Done:  E(RB3LYP) =  -1277.01187778     A.U. after   12 cycles
 SCF Done:  E(RB3LYP) =  -1277.01300229     A.U. after    9 cycles
 SCF Done:  E(RB3LYP) =  -1277.01299297     A.U. after    8 cycles
 SCF Done:  E(RB3LYP) =  -1277.01300283     A.U. after    8 cycles
 SCF Done:  E(RB3LYP) =  -1277.01299292     A.U. after    8 cycles
 SCF Done:  E(RB3LYP) =  -1277.01300280     A.U. after    8 cycles
 SCF Done:  E(RB3LYP) =  -1277.01299298     A.U. after    8 cycles
 SCF Done:  E(RB3LYP) =  -1277.01300279     A.U. after    8 cycles
 Optimization completed.
    -- Stationary point found.
 Normal termination of Gaussian 16 at Tue Mar  1 23:12:52 2022.

 --------------------------------------------------------------------
 #P Geom=AllCheck Guess=TCheck SCRF=Check GenChk RB3LYP/6-31G(d) Freq
 --------------------------------------------------------------------

 Structure from the checkpoint file:  "45.n.pdb.xyz.mst.wat.chk"
 ------------
 45.n.pdb.xyz
 ------------
 Charge =  0 Multiplicity = 1

 SCF Done:  E(RB3LYP) =  -1277.01300279     A.U. after    1 cycles

  Exact polarizability: 407.131 -26.201 441.646  24.964  19.595 177.601
 Approx polarizability: 429.755 -16.252 469.312  37.242  24.949 206.965

                      1                      2                      3
                      A                      A                      A
 Frequencies --     34.6256                42.4848                56.2700
 Red. masses --      4.1154                 4.1190                 3.5441
 Frc consts  --      0.0029                 0.0044                 0.0066
 IR Inten    --      0.5854                 0.8706                 3.4156

                      4                      5                      6
                      A                      A                      A
 Frequencies --     68.0582                82.0580               120.9212
 Red. masses --      3.7741                 4.6367                 3.5846
 Frc consts  --      0.0103                 0.0184                 0.0309
 IR Inten    --      3.7222                 5.9599                 1.4550

                      7                      8                      9
                      A                      A                      A
 Frequencies --    131.5078               143.1230               156.6402
 Red. masses --      3.3327                 2.4658                 1.5083
 Frc consts  --      0.0340                 0.0298                 0.0218
 IR Inten    --      0.1867                 3.8682                 0.4564

                     10                     11                     12
                      A                      A                      A
 Frequencies --    182.0442               218.7652               234.9811
 Red. masses --      3.3557                 3.8652                 1.5451
 Frc consts  --      0.0655                 0.1090                 0.0503
 IR Inten    --      6.2992                 4.4181                 0.6553

                     13                     14                     15
                      A                      A                      A
 Frequencies --    244.6440               267.4042               294.5252
 Red. masses --      3.7967                 1.9249                 3.9802
 Frc consts  --      0.1339                 0.0811                 0.2034
 IR Inten    --      4.9643                 7.5075                 5.1622

                     16                     17                     18
                      A                      A                      A
 Frequencies --    305.2167               314.0921               329.4531
 Red. masses --      2.0980                 5.1881                 4.5671
 Frc consts  --      0.1152                 0.3016                 0.2921
 IR Inten    --     16.5241                19.7938                 6.1275

                     19                     20                     21
                      A                      A                      A
 Frequencies --    332.3909               347.0436               367.0564
 Red. masses --      5.6617                 6.1777                 2.4007
 Frc consts  --      0.3686                 0.4384                 0.1906
 IR Inten    --     15.1387                 1.6885                 0.3457

                     22                     23                     24
                      A                      A                      A
 Frequencies --    379.1540               433.7167               467.5235
 Red. masses --      6.2611                 1.9677                 2.8779
 Frc consts  --      0.5303                 0.2181                 0.3706
 IR Inten    --      8.9765                 6.7189                38.8735

                     25                     26                     27
                      A                      A                      A
 Frequencies --    470.0460               496.2739               514.5797
 Red. masses --      1.2613                 5.4850                 3.9367
 Frc consts  --      0.1642                 0.7959                 0.6142
 IR Inten    --    152.2953                20.6007                28.4999

                     28                     29                     30
                      A                      A                      A
 Frequencies --    531.6357               541.8603               557.5645
 Red. masses --      3.9688                 4.3456                 4.0379
 Frc consts  --      0.6609                 0.7518                 0.7396
 IR Inten    --      3.8316                 5.5075                15.2558

                     31                     32                     33
                      A                      A                      A
 Frequencies --    587.2681               601.2235               608.8211
 Red. masses --      5.0962                 2.7555                 6.1736
 Frc consts  --      1.0355                 0.5869                 1.3482
 IR Inten    --     18.0048                 6.7325                22.3452

                     34                     35                     36
                      A                      A                      A
 Frequencies --    626.9705               649.1522               664.3943
 Red. masses --      8.3137                 4.1275                 5.3918
 Frc consts  --      1.9255                 1.0248                 1.4023
 IR Inten    --     14.1526                 2.0396                 6.4977

                     37                     38                     39
                      A                      A                      A
 Frequencies --    714.2968               734.4670               749.5711
 Red. masses --      6.9405                 4.7437                 3.5082
 Frc consts  --      2.0864                 1.5077                 1.1613
 IR Inten    --     11.9470                18.3009                 5.3488

                     40                     41                     42
                      A                      A                      A
 Frequencies --    773.6738               781.9002               812.0175
 Red. masses --      1.5010                 3.5859                 4.7685
 Frc consts  --      0.5294                 1.2917                 1.8525
 IR Inten    --     93.6966                 3.2827                57.9864

                     43                     44                     45
                      A                      A                      A
 Frequencies --    826.4245               864.7754               878.0231
 Red. masses --      5.4383                 1.2893                 1.7188
 Frc consts  --      2.1884                 0.5681                 0.7807
 IR Inten    --      2.4943                20.3777                 1.4781

                     46                     47                     48
                      A                      A                      A
 Frequencies --    880.1296               904.5828               942.1288
 Red. masses --      1.5059                 4.5143                 2.0389
 Frc consts  --      0.6873                 2.1764                 1.0663
 IR Inten    --      3.1052                27.3511                24.9665

                     49                     50                     51
                      A                      A                      A
 Frequencies --    944.8382               969.0378               978.9722
 Red. masses --      1.4513                 3.2749                 1.2459
 Frc consts  --      0.7634                 1.8119                 0.7035
 IR Inten    --     11.6514                92.4937                 0.6889

                     52                     53                     54
                      A                      A                      A
 Frequencies --   1011.2482              1019.7883              1057.9936
 Red. masses --      2.3215                 1.7339                 2.4795
 Frc consts  --      1.3987                 1.0624                 1.6353
 IR Inten    --     95.6369                14.3317                29.9838

                     55                     56                     57
                      A                      A                      A
 Frequencies --   1072.0475              1074.3286              1082.2103
 Red. masses --      1.4103                 2.1059                 1.8389
 Frc consts  --      0.9550                 1.4321                 1.2689
 IR Inten    --      2.9828                22.0100                14.5489

                     58                     59                     60
                      A                      A                      A
 Frequencies --   1093.6259              1115.1690              1126.4074
 Red. masses --      1.8352                 2.0039                 2.4701
 Frc consts  --      1.2932                 1.4683                 1.8465
 IR Inten    --      8.9579                12.5387                18.5141

                     61                     62                     63
                      A                      A                      A
 Frequencies --   1143.3782              1153.2379              1168.7658
 Red. masses --      2.0332                 2.5885                 1.7049
 Frc consts  --      1.5661                 2.0283                 1.3722
 IR Inten    --     97.4010                24.6261                27.5543

                     64                     65                     66
                      A                      A                      A
 Frequencies --   1183.0358              1186.5871              1204.2684
 Red. masses --      1.0889                 2.2996                 2.8577
 Frc consts  --      0.8979                 1.9076                 2.4418
 IR Inten    --      0.1489                15.9106                25.7813

                     67                     68                     69
                      A                      A                      A
 Frequencies --   1222.5936              1249.8696              1262.1877
 Red. masses --      2.7069                 1.5107                 1.8722
 Frc consts  --      2.3839                 1.3904                 1.7573
 IR Inten    --     44.1161                62.3479                 1.5065

                     70                     71                     72
                      A                      A                      A
 Frequencies --   1272.3154              1283.1987              1296.5097
 Red. masses --      1.4356                 1.9330                 1.5234
 Frc consts  --      1.3692                 1.8753                 1.5087
 IR Inten    --    119.2471                17.1242                30.3826

                     73                     74                     75
                      A                      A                      A
 Frequencies --   1306.9060              1323.6814              1333.8270
 Red. masses --      3.3143                 2.6143                 2.9962
 Frc consts  --      3.3353                 2.6988                 3.1407
 IR Inten    --     92.8393               130.3278                33.1896

                     76                     77                     78
                      A                      A                      A
 Frequencies --   1342.7699              1349.7267              1378.5708
 Red. masses --      1.4605                 2.5674                 1.2484
 Frc consts  --      1.5515                 2.7557                 1.3979
 IR Inten    --     21.1674                 4.3083                 9.5736

                     79                     80                     81
                      A                      A                      A
 Frequencies --   1401.5281              1419.7561              1432.2027
 Red. masses --      1.5793                 1.5856                 1.5351
 Frc consts  --      1.8277                 1.8831                 1.8553
 IR Inten    --    701.0097               611.5413                28.2471

                     82                     83                     84
                      A                      A                      A
 Frequencies --   1436.2519              1445.9638              1471.2139
 Red. masses --      1.4163                 3.5281                 1.6226
 Frc consts  --      1.7214                 4.3462                 2.0692
 IR Inten    --     76.1165                69.2174               470.8067

                     85                     86                     87
                      A                      A                      A
 Frequencies --   1482.8432              1484.4935              1489.7541
 Red. masses --      1.1725                 2.3166                 1.0425
 Frc consts  --      1.5190                 3.0079                 1.3633
 IR Inten    --      1.3950               290.0084                14.7757

                     88                     89                     90
                      A                      A                      A
 Frequencies --   1509.4589              1512.6536              1515.2881
 Red. masses --      1.0713                 1.0511                 1.1275
 Frc consts  --      1.4382                 1.4170                 1.5253
 IR Inten    --      2.5896                19.9825                 1.5000

                     91                     92                     93
                      A                      A                      A
 Frequencies --   1523.0815              1524.2996              1530.5447
 Red. masses --      1.1880                 1.0889                 1.0639
 Frc consts  --      1.6237                 1.4906                 1.4684
 IR Inten    --     97.0571                 7.0627                14.6783

                     94                     95                     96
                      A                      A                      A
 Frequencies --   1537.3265              1545.5188              1594.7138
 Red. masses --      2.3230                 1.0991                 3.2279
 Frc consts  --      3.2347                 1.5469                 4.8365
 IR Inten    --    263.7953                 3.8676              1594.1021

                     97                     98                     99
                      A                      A                      A
 Frequencies --   1610.4106              1639.2487              1653.5061
 Red. masses --      4.9173                 3.9770                 4.5927
 Frc consts  --      7.5136                 6.2964                 7.3983
 IR Inten    --   1054.5913                48.5983               157.7395

                    100                    101                    102
                      A                      A                      A
 Frequencies --   1663.7956              2965.5150              2968.8676
 Red. masses --      6.4680                 1.0601                 1.0735
 Frc consts  --     10.5491                 5.4927                 5.5750
 IR Inten    --    105.2893               117.9500               115.0553

                    103                    104                    105
                      A                      A                      A
 Frequencies --   3035.3954              3047.7646              3055.3262
 Red. masses --      1.0706                 1.0370                 1.0693
 Frc consts  --      5.8117                 5.6754                 5.8814
 IR Inten    --     60.2169               122.2928                64.6955

                    106                    107                    108
                      A                      A                      A
 Frequencies --   3071.4228              3086.1085              3093.6997
 Red. masses --      1.0709                 1.0882                 1.0730
 Frc consts  --      5.9520                 6.1063                 6.0508
 IR Inten    --     59.8548                99.6432                72.6451

                    109                    110                    111
                      A                      A                      A
 Frequencies --   3096.6623              3130.6777              3133.5375
 Red. masses --      1.1013                 1.0978                 1.0942
 Frc consts  --      6.2219                 6.3396                 6.3301
 IR Inten    --     36.5335                28.6379                25.3794

                    112                    113                    114
                      A                      A                      A
 Frequencies --   3134.0856              3143.3962              3179.3101
 Red. masses --      1.1010                 1.1027                 1.0950
 Frc consts  --      6.3716                 6.4194                 6.5213
 IR Inten    --     29.8458                57.3695                14.2092

                    115                    116                    117
                      A                      A                      A
 Frequencies --   3203.2062              3209.5936              3220.8170
 Red. masses --      1.0860                 1.0888                 1.0922
 Frc consts  --      6.5652                 6.6083                 6.6753
 IR Inten    --      5.9123                15.9668                45.8009

                    118                    119                    120
                      A                      A                      A
 Frequencies --   3230.5742              3244.1002              3617.8583
 Red. masses --      1.0974                 1.0912                 1.0760
 Frc consts  --      6.7482                 6.7662                 8.2977
 IR Inten    --     50.0445                24.0506               152.8347

 - Thermochemistry -
 -------------------
 Temperature   298.150 Kelvin.  Pressure   1.00000 Atm.
 Atom     1 has atomic number  6 and mass  12.00000

 Molecular mass:   312.14087 amu.
 Principal axes and moments of inertia in atomic units:
                           1         2         3
     Eigenvalues --  5717.066768965.18018**********
           X            0.99998   0.00181  -0.00606
           Y           -0.00184   0.99998  -0.00602
           Z            0.00605   0.00603   0.99996
 This molecule is an asymmetric top.
 Rotational symmetry number  1.
 Warning -- assumption of classical behavior for rotation
           may cause significant error
 Rotational temperatures (Kelvin)      0.01515     0.00966     0.00618
 Rotational constants (GHZ):           0.31568     0.20131     0.12886
 Zero-point vibrational energy     919715.1 (Joules/Mol)
                                  219.81717 (Kcal/Mol)
 Warning -- explicit consideration of  33 degrees of freedom as
           vibrations may cause significant error
 Vibrational temperatures:     49.82    61.13    80.96    97.92   118.06
          (Kelvin)            173.98   189.21   205.92   225.37   261.92
                              314.75   338.09   351.99   384.74   423.76
                              439.14   451.91   474.01   478.24   499.32
                              528.11   545.52   624.02   672.66   676.29
                              714.03   740.37   764.91   779.62   802.21
                              844.95   865.03   875.96   902.07   933.99
                              955.92  1027.71  1056.73  1078.47  1113.14
                             1124.98  1168.31  1189.04  1244.22  1263.28
                             1266.31  1301.49  1355.51  1359.41  1394.23
                             1408.52  1454.96  1467.25  1522.22  1542.44
                             1545.72  1557.06  1573.48  1604.48  1620.65
                             1645.07  1659.25  1681.59  1702.12  1707.23
                             1732.67  1759.04  1798.28  1816.01  1830.58
                             1846.24  1865.39  1880.35  1904.48  1919.08
                             1931.95  1941.96  1983.46  2016.49  2042.71
                             2060.62  2066.45  2080.42  2116.75  2133.48
                             2135.86  2143.42  2171.77  2176.37  2180.16
                             2191.37  2193.13  2202.11  2211.87  2223.66
                             2294.44  2317.02  2358.51  2379.03  2393.83
                             4266.71  4271.54  4367.26  4385.05  4395.93
                             4419.09  4440.22  4451.14  4455.41  4504.35
                             4508.46  4509.25  4522.65  4574.32  4608.70
                             4617.89  4634.04  4648.08  4667.54  5205.29

 Zero-point correction=                           0.350301 (Hartree/Particle)
 Thermal correction to Energy=                    0.369844
 Thermal correction to Enthalpy=                  0.370789
 Thermal correction to Gibbs Free Energy=         0.302285
 Sum of electronic and zero-point Energies=          -1276.662702
 Sum of electronic and thermal Energies=             -1276.643158
 Sum of electronic and thermal Enthalpies=           -1276.642214
 Sum of electronic and thermal Free Energies=        -1276.710718

                     E (Thermal)             CV                S
                      KCal/Mol        Cal/Mol-Kelvin    Cal/Mol-Kelvin
 Total                  232.081             77.380            144.178
 Electronic               0.000              0.000              0.000
 Translational            0.889              2.981             43.111
 Rotational               0.889              2.981             34.928
 Vibrational            230.303             71.418             66.140
 Vibration     1          0.594              1.983              5.545
 Vibration     2          0.595              1.980              5.140
 Vibration     3          0.596              1.975              4.584
 Vibration     4          0.598              1.969              4.209
 Vibration     5          0.600              1.961              3.841
 Vibration     6          0.609              1.932              3.086
 Vibration     7          0.612              1.922              2.924
 Vibration     8          0.616              1.910              2.762
 Vibration     9          0.620              1.895              2.590
 Vibration    10          0.630              1.864              2.307
 Vibration    11          0.647              1.812              1.969
 Vibration    12          0.655              1.787              1.841
 Vibration    13          0.660              1.772              1.769
 Vibration    14          0.673              1.733              1.613
 Vibration    15          0.689              1.684              1.448
 Vibration    16          0.696              1.664              1.388
 Vibration    17          0.702              1.647              1.341
 Vibration    18          0.712              1.617              1.263
 Vibration    19          0.714              1.611              1.248
 Vibration    20          0.725              1.581              1.180
 Vibration    21          0.740              1.540              1.092
 Vibration    22          0.749              1.515              1.043
 Vibration    23          0.794              1.397              0.847
 Vibration    24          0.825              1.322              0.745
 Vibration    25          0.827              1.317              0.737
 Vibration    26          0.852              1.258              0.668
 Vibration    27          0.870              1.218              0.623
 Vibration    28          0.887              1.180              0.584
 Vibration    29          0.897              1.158              0.561
 Vibration    30          0.913              1.123              0.529
 Vibration    31          0.944              1.059              0.472
 Vibration    32          0.959              1.029              0.448
 Vibration    33          0.968              1.013              0.435

                           ! Non-Optimized Parameters !
 Normal termination of Gaussian 16 at Wed Mar  2 00:16:06 2022.

 ------------------------------------------
 #p b3lyp/6-31G(d) geom=allcheck guess=read
 ------------------------------------------

 Structure from the checkpoint file:  "45.n.pdb.xyz.mst.wat.chk"
 ------------
 45.n.pdb.xyz
 ------------
 Charge =  0 Multiplicity = 1

 SCF Done:  E(RB3LYP) =  -1276.99182037     A.U. after   13 cycles
 Normal termination of Gaussian 16 at Wed Mar  2 00:20:46 2022.
 Gaussian 16:  ES64L-G16RevA.03 25-Dec-2016

 ----------------------------------------------------------------------
 #p b3lyp/6-31G(d) scrf=(iefpcm,read,solvent=water) geom=allcheck guess
 =read
 ----------------------------------------------------------------------

 Structure from the checkpoint file:  "45.n.pdb.xyz.mst.wat.chk"
 ------------
 45.n.pdb.xyz
 ------------
 Charge =  0 Multiplicity = 1

                         Standard orientation:
 ---------------------------------------------------------------------
 Center     Atomic      Atomic             Coordinates (Angstroms)
 Number     Number       Type             X           Y           Z
 ---------------------------------------------------------------------
      1          6           0       -5.435949   -1.534844    0.748307
      2          7           0       -4.561807   -0.671943   -0.038249
      3          6           0       -3.790472    0.223870    0.833098
      4          6           0       -2.563960    0.769953    0.110124
      5          7           0       -1.633175   -0.331712   -0.202587
      6          6           0       -2.279217   -1.641154   -0.424117
      7          6           0       -3.690644   -1.412302   -0.967959
      8          6           0       -0.281920   -0.223493   -0.069512
      9          6           0        0.414625    1.000311   -0.197143
     10          6           0       -0.152168    2.243162   -0.694487
     11          6           0        0.545227    3.366028   -0.413475
     12          6           0        0.230175    4.783511   -0.768707
     13         16           0        2.027034    2.974647    0.488842
     14          6           0        1.719900    1.202085    0.386335
     15          7           0        2.701072    0.436129    0.775630
     16          6           0        2.794109   -0.900679    0.378812
     17          6           0        4.091722   -1.439213    0.294885
     18          6           0        4.329242   -2.745439   -0.131464
     19          6           0        3.259195   -3.558680   -0.500938
     20          6           0        1.960333   -3.049290   -0.420140
     21          6           0        1.720639   -1.748966    0.026571
     22          7           0        0.357962   -1.382919    0.244896
     23          1           0       -4.889984   -2.190861    1.450398
     24          1           0       -6.121301   -0.916955    1.337047
     25          1           0       -6.030546   -2.163142    0.080800
     26          1           0       -4.420313    1.064611    1.143739
     27          1           0       -3.461569   -0.287436    1.754898
     28          1           0       -2.046877    1.490417    0.739754
     29          1           0       -2.879263    1.285695   -0.802491
     30          1           0       -2.338533   -2.220585    0.506887
     31          1           0       -1.685588   -2.210482   -1.141893
     32          1           0       -4.145675   -2.380870   -1.186731
     33          1           0       -3.615643   -0.870699   -1.918159
     34          1           0       -1.069301    2.281749   -1.267973
     35          1           0        0.140294    5.415807    0.122473
     36          1           0       -0.718787    4.828759   -1.310397
     37          1           0        1.002274    5.232339   -1.403019
     38          1           0        4.914725   -0.794284    0.582034
     39          1           0        5.346086   -3.121010   -0.173107
     40          1           0        3.421625   -4.577402   -0.835368
     41          1           0        1.112037   -3.674264   -0.680926
     42          1           0       -0.219592   -2.141793    0.581597
 ---------------------------------------------------------------------

 SCF Done:  E(RB3LYP) =  -1277.01076450     A.U. after   12 cycles

 The electronic state is 1-A.
 Alpha  occ. eigenvalues --  -88.88546 -14.38154 -14.37508 -14.32980 -14.30535
 Alpha  occ. eigenvalues --  -10.29496 -10.25743 -10.23165 -10.23065 -10.22850
 Alpha  occ. eigenvalues --  -10.22385 -10.21605 -10.21447 -10.20834 -10.20146
 Alpha  occ. eigenvalues --  -10.19233 -10.18833 -10.18692 -10.18677 -10.18644
 Alpha  occ. eigenvalues --  -10.18534 -10.18322  -7.94768  -5.91183  -5.90853
 Alpha  occ. eigenvalues --   -5.90388  -1.00458  -0.94814  -0.92167  -0.90745
 Alpha  occ. eigenvalues --   -0.85848  -0.83334  -0.78282  -0.77609  -0.75378
 Alpha  occ. eigenvalues --   -0.73796  -0.73211  -0.71361  -0.67935  -0.66617
 Alpha  occ. eigenvalues --   -0.65909  -0.63018  -0.61340  -0.58646  -0.56585
 Alpha  occ. eigenvalues --   -0.56142  -0.54953  -0.52766  -0.51829  -0.50498
 Alpha  occ. eigenvalues --   -0.50000  -0.47021  -0.46723  -0.46338  -0.45331
 Alpha  occ. eigenvalues --   -0.44209  -0.43700  -0.42905  -0.42777  -0.42248
 Alpha  occ. eigenvalues --   -0.42028  -0.41162  -0.40315  -0.39258  -0.38607
 Alpha  occ. eigenvalues --   -0.38435  -0.38254  -0.37454  -0.36502  -0.36345
 Alpha  occ. eigenvalues --   -0.35947  -0.35346  -0.34701  -0.34450  -0.32696
 Alpha  occ. eigenvalues --   -0.30757  -0.27831  -0.24757  -0.24567  -0.23983
 Alpha  occ. eigenvalues --   -0.23123  -0.21640  -0.16382
 Alpha virt. eigenvalues --   -0.04682  -0.00474   0.01410   0.02537   0.03784
 Alpha virt. eigenvalues --    0.07223   0.08957   0.09337   0.09747   0.11164
 Alpha virt. eigenvalues --    0.11574   0.12618   0.12781   0.13603   0.13843

 Mulliken charges:
               1
     1  C   -0.314259
     2  N   -0.412620
     3  C   -0.138429
     4  C   -0.174720
     5  N   -0.469534
     6  C   -0.174464
     7  C   -0.164156
     8  C    0.558850
     9  C    0.052618
    10  C   -0.181321
    11  C   -0.118508
    12  C   -0.512602
    13  S    0.117182
    14  C    0.024160
    15  N   -0.641993
    16  C    0.252936
    17  C   -0.195139
    18  C   -0.150702
    19  C   -0.165684
    20  C   -0.204884
    21  C    0.280843
    22  N   -0.765125
    23  H    0.133689
    24  H    0.161381
    25  H    0.162746
    26  H    0.166618
    27  H    0.140270
    28  H    0.197941
    29  H    0.181190
    30  H    0.179702
    31  H    0.190305
    32  H    0.173080
    33  H    0.165396
    34  H    0.157172
    35  H    0.170046
    36  H    0.173212
    37  H    0.170264
    38  H    0.136239
    39  H    0.147032
    40  H    0.147779
    41  H    0.153332
    42  H    0.390158
 Sum of Mulliken charges =  -0.00000

 Dipole moment (field-independent basis, Debye):
    X=             -9.9094    Y=             -5.1381    Z=             -1.2766  Tot=             11.2351
 Quadrupole moment (field-independent basis, Debye-Ang):
   XX=           -140.6121   YY=           -120.6172   ZZ=           -139.5188
   XY=             -2.5732   XZ=             -7.0447   YZ=             -1.8116

 Normal termination of Gaussian 16 at Wed Mar  2 00:25:56 2022.
