 Gaussian 16, Revision A.03,

 ----------------------------------------------------------------------
 #p b3lyp/6-31G(d) opt=(MaxStep=10,MaxCycles=1000) freq scf=(MaxCycle=2
 000,NoVarAcc,NoIncFock) scrf=(iefpcm,read,solvent=water)
 ----------------------------------------------------------------------

 ------------
 46.n.pdb.xyz
 ------------
 Symbolic Z-matrix:
 Charge =  0 Multiplicity = 1

 SCF Done:  E(RB3LYP) =  -197.769666635     A.U. after   10 cycles
 SCF Done:  E(RB3LYP) =  -197.770766654     A.U. after    8 cycles
 SCF Done:  E(RB3LYP) =  -197.770802681     A.U. after    7 cycles
 SCF Done:  E(RB3LYP) =  -197.770798247     A.U. after    7 cycles
 Optimization completed.
    -- Stationary point found.

 1\1\GINC-PIRINEUS4\FOpt\RB3LYP\6-31G(d)\C5H12\UBATOR01\02-Mar-2022\0\\
 #p b3lyp/6-31G(d) opt=(MaxStep=10,MaxCycles=1000) freq scf=(MaxCycle=2
 000,NoVarAcc,NoIncFock) scrf=(iefpcm,read,solvent=water)\\46.n.pdb.xyz
 \\0,1\C,-2.4407282953,0.8145592603,-0.0453931322\C,-1.3633430004,-0.27
 08044327,-0.0861846459\C,0.0586189426,0.284190349,0.0416911638\C,1.144
 6006521,-0.7951480994,0.0019954357\C,2.5609618998,-0.2313723582,0.1302
 066017\H,-3.4442451218,0.3870715315,-0.1388744482\H,-2.3076498412,1.53
 38123638,-0.8612056195\H,-2.4029328227,1.3731077574,0.8965059591\H,-1.

 Normal termination of Gaussian 16 at Wed Mar  2 00:04:28 2022.

 --------------------------------------------------------------------
 #P Geom=AllCheck Guess=TCheck SCRF=Check GenChk RB3LYP/6-31G(d) Freq
 --------------------------------------------------------------------

 Structure from the checkpoint file:  "46.n.pdb.xyz.mst.wat.chk"
 ------------
 46.n.pdb.xyz
 ------------
 Charge =  0 Multiplicity = 1

 SCF Done:  E(RB3LYP) =  -197.770798247     A.U. after    1 cycles

  Exact polarizability:  74.621  -0.003  67.726   0.000   0.005  67.779
 Approx polarizability:  69.953  -0.002  69.957   0.000   0.005  71.464

                      1                      2                      3
                      A                      A                      A
 Frequencies --    110.5513               116.4101               176.6615
 Red. masses --      1.5349                 2.2958                 2.5282
 Frc consts  --      0.0111                 0.0183                 0.0465
 IR Inten    --      0.0003                 0.0040                 0.0458

                      4                      5                      6
                      A                      A                      A
 Frequencies --    246.5489               260.8592               391.5459
 Red. masses --      1.1117                 1.1198                 2.3702
 Frc consts  --      0.0398                 0.0449                 0.2141
 IR Inten    --      0.0006                 0.0002                 0.0015

                      7                      8                      9
                      A                      A                      A
 Frequencies --    396.7339               738.1800               767.7559
 Red. masses --      3.3076                 1.0634                 1.1115
 Frc consts  --      0.3067                 0.3414                 0.3860
 IR Inten    --      0.0229                 9.6640                 0.0194

                     10                     11                     12
                      A                      A                      A
 Frequencies --    871.3285               881.3837               934.5080
 Red. masses --      1.1504                 1.7350                 2.0806
 Frc consts  --      0.5146                 0.7941                 1.0705
 IR Inten    --      2.9244                 2.5350                 3.8561

                     13                     14                     15
                      A                      A                      A
 Frequencies --    998.1402              1050.8557              1054.5550
 Red. masses --      1.1190                 1.8973                 2.7903
 Frc consts  --      0.6568                 1.2344                 1.8282
 IR Inten    --      0.0011                 2.1541                 0.4732

                     16                     17                     18
                      A                      A                      A
 Frequencies --   1082.8986              1171.8286              1217.4586
 Red. masses --      1.9456                 2.2548                 1.8164
 Frc consts  --      1.3442                 1.8243                 1.5862
 IR Inten    --      1.3345                 2.2268                 0.3807

                     19                     20                     21
                      A                      A                      A
 Frequencies --   1279.3609              1302.9152              1329.9067
 Red. masses --      1.3231                 1.3206                 1.1557
 Frc consts  --      1.2759                 1.3209                 1.2044
 IR Inten    --      0.0002                 7.3053                 0.3319

                     22                     23                     24
                      A                      A                      A
 Frequencies --   1340.7387              1377.1782              1419.0067
 Red. masses --      1.0507                 1.4545                 1.6725
 Frc consts  --      1.1128                 1.6254                 1.9842
 IR Inten    --      0.0021                 0.0081                 2.2743

                     25                     26                     27
                      A                      A                      A
 Frequencies --   1429.1150              1435.5728              1496.2348
 Red. masses --      1.2489                 1.2542                 1.0650
 Frc consts  --      1.5029                 1.5229                 1.4047
 IR Inten    --      0.7416                 1.0809                 0.0507

                     28                     29                     30
                      A                      A                      A
 Frequencies --   1502.2775              1516.1683              1517.9247
 Red. masses --      1.0600                 1.0413                 1.0680
 Frc consts  --      1.4094                 1.4103                 1.4498
 IR Inten    --      1.0204                 8.3578                 0.8470

                     31                     32                     33
                      A                      A                      A
 Frequencies --   1519.9041              1527.5785              1535.3784
 Red. masses --      1.0416                 1.0763                 1.0913
 Frc consts  --      1.4177                 1.4798                 1.5158
 IR Inten    --      5.0571                 1.1906                 5.9496

                     34                     35                     36
                      A                      A                      A
 Frequencies --   3023.6129              3030.6908              3036.1361
 Red. masses --      1.0582                 1.0593                 1.0601
 Frc consts  --      5.6998                 5.7328                 5.7576
 IR Inten    --     16.7102                 2.2789               176.5935

                     37                     38                     39
                      A                      A                      A
 Frequencies --   3045.4356              3051.9629              3054.7736
 Red. masses --      1.0997                 1.0358                 1.0359
 Frc consts  --      6.0096                 5.6846                 5.6952
 IR Inten    --      0.2167                55.0306                40.7503

                     40                     41                     42
                      A                      A                      A
 Frequencies --   3061.0461              3075.8281              3114.5473
 Red. masses --      1.1034                 1.1056                 1.1029
 Frc consts  --      6.0915                 6.1626                 6.3035
 IR Inten    --      0.1258               159.9336               101.3122

                     43                     44                     45
                      A                      A                      A
 Frequencies --   3118.8513              3119.6476              3120.6048
 Red. masses --      1.1028                 1.1021                 1.1025
 Frc consts  --      6.3203                 6.3192                 6.3258
 IR Inten    --    101.9801                73.3718                79.0423

 - Thermochemistry -
 -------------------
 Temperature   298.150 Kelvin.  Pressure   1.00000 Atm.
 Atom     1 has atomic number  6 and mass  12.00000

 Molecular mass:    72.09390 amu.
 Principal axes and moments of inertia in atomic units:
                           1         2         3
     Eigenvalues --   105.70283 935.73002 985.69146
           X            1.00000  -0.00001   0.00000
           Y            0.00001   1.00000   0.00003
           Z           -0.00000  -0.00003   1.00000
 This molecule is an asymmetric top.
 Rotational symmetry number  1.
 Rotational temperatures (Kelvin)      0.81941     0.09256     0.08787
 Rotational constants (GHZ):          17.07373     1.92870     1.83094
 Zero-point vibrational energy     423780.7 (Joules/Mol)
                                  101.28602 (Kcal/Mol)
 Warning -- explicit consideration of   7 degrees of freedom as
           vibrations may cause significant error
 Vibrational temperatures:    159.06   167.49   254.18   354.73   375.32
          (Kelvin)            563.35   570.81  1062.08  1104.63  1253.65
                             1268.11  1344.55  1436.10  1511.95  1517.27
                             1558.05  1686.00  1751.65  1840.71  1874.60
                             1913.44  1929.02  1981.45  2041.63  2056.18
                             2065.47  2152.75  2161.44  2181.43  2183.96
                             2186.80  2197.84  2209.07  4350.30  4360.49
                             4368.32  4381.70  4391.09  4395.14  4404.16
                             4425.43  4481.14  4487.33  4488.48  4489.85

 Zero-point correction=                           0.161410 (Hartree/Particle)
 Thermal correction to Energy=                    0.168465
 Thermal correction to Enthalpy=                  0.169409
 Thermal correction to Gibbs Free Energy=         0.131133
 Sum of electronic and zero-point Energies=           -197.609389
 Sum of electronic and thermal Energies=              -197.602334
 Sum of electronic and thermal Enthalpies=            -197.601389
 Sum of electronic and thermal Free Energies=         -197.639665

                     E (Thermal)             CV                S
                      KCal/Mol        Cal/Mol-Kelvin    Cal/Mol-Kelvin
 Total                  105.713             24.378             80.558
 Electronic               0.000              0.000              0.000
 Translational            0.889              2.981             38.743
 Rotational               0.889              2.981             26.081
 Vibrational            103.936             18.417             15.735
 Vibration     1          0.606              1.941              3.259
 Vibration     2          0.608              1.936              3.159
 Vibration     3          0.628              1.871              2.363
 Vibration     4          0.661              1.768              1.755
 Vibration     5          0.669              1.744              1.656
 Vibration     6          0.759              1.488              0.994
 Vibration     7          0.763              1.477              0.975

 Optimization completed.
    -- Stationary point found.

 1\1\GINC-PIRINEUS4\Freq\RB3LYP\6-31G(d)\C5H12\UBATOR01\02-Mar-2022\0\\
 #P Geom=AllCheck Guess=TCheck SCRF=Check GenChk RB3LYP/6-31G(d) Freq\\
 46.n.pdb.xyz\\0,1\C,-2.4407282953,0.8145592603,-0.0453931322\C,-1.3633
 430004,-0.2708044327,-0.0861846459\C,0.0586189426,0.284190349,0.041691
 1638\C,1.1446006521,-0.7951480994,0.0019954357\C,2.5609618998,-0.23137
 23582,0.1302066017\H,-3.4442451218,0.3870715315,-0.1388744482\H,-2.307
 6498412,1.5338123638,-0.8612056195\H,-2.4029328227,1.3731077574,0.8965
 059591\H,-1.542380444,-0.9938895865,0.7204316006\H,-1.4477532911,-0.83

 Normal termination of Gaussian 16 at Wed Mar  2 00:06:54 2022.

 ------------------------------------------
 #p b3lyp/6-31G(d) geom=allcheck guess=read
 ------------------------------------------

 Structure from the checkpoint file:  "46.n.pdb.xyz.mst.wat.chk"
 ------------
 46.n.pdb.xyz
 ------------
 Charge =  0 Multiplicity = 1

 SCF Done:  E(RB3LYP) =  -197.771731577     A.U. after    8 cycles
 Normal termination of Gaussian 16 at Wed Mar  2 00:07:07 2022.
 Gaussian 16:  ES64L-G16RevA.03 25-Dec-2016

 ----------------------------------------------------------------------
 #p b3lyp/6-31G(d) scrf=(iefpcm,read,solvent=water) geom=allcheck guess
 =read
 ----------------------------------------------------------------------

 Structure from the checkpoint file:  "46.n.pdb.xyz.mst.wat.chk"
 ------------
 46.n.pdb.xyz
 ------------
 Charge =  0 Multiplicity = 1

                         Standard orientation:
 ---------------------------------------------------------------------
 Center     Atomic      Atomic             Coordinates (Angstroms)
 Number     Number       Type             X           Y           Z
 ---------------------------------------------------------------------
      1          6           0        2.556423   -0.323463    0.000027
      2          6           0        1.281840    0.522632   -0.000089
      3          6           0       -0.000050   -0.315881    0.000048
      4          6           0       -1.281847    0.522510    0.000012
      5          6           0       -2.556474   -0.323473   -0.000013
      6          1           0        3.453872    0.303526   -0.000037
      7          1           0        2.601401   -0.969690   -0.883688
      8          1           0        2.601356   -0.969438    0.883925
      9          1           0        1.281353    1.182718    0.877306
     10          1           0        1.281342    1.182615   -0.877656
     11          1           0       -0.000010   -0.976730    0.878166
     12          1           0       -0.000114   -0.977062   -0.877878
     13          1           0       -1.281311    1.182813    0.877455
     14          1           0       -1.281184    1.182500   -0.877464
     15          1           0       -3.454061    0.303302    0.000144
     16          1           0       -2.600885   -0.969131    0.883115
     17          1           0       -2.601111   -0.969368   -0.883295
 ---------------------------------------------------------------------

 SCF Done:  E(RB3LYP) =  -197.770729453     A.U. after    7 cycles

 The electronic state is 1-A.
 Alpha  occ. eigenvalues --  -10.17400 -10.17398 -10.17144 -10.16841 -10.16827
 Alpha  occ. eigenvalues --   -0.79421  -0.74418  -0.67005  -0.59375  -0.56915
 Alpha  occ. eigenvalues --   -0.46871  -0.43102  -0.42611  -0.39677  -0.38945
 Alpha  occ. eigenvalues --   -0.37213  -0.34774  -0.33054  -0.32058  -0.31608
 Alpha  occ. eigenvalues --   -0.30982
 Alpha virt. eigenvalues --    0.09560   0.11292   0.13014   0.13785   0.15535
 Alpha virt. eigenvalues --    0.17695   0.17699   0.18087   0.19949   0.20140
 Alpha virt. eigenvalues --    0.20173   0.20800   0.22919   0.25764   0.27729

 Mulliken charges:
               1
     1  C   -0.451114
     2  C   -0.249004
     3  C   -0.241904
     4  C   -0.249081
     5  C   -0.451177
     6  H    0.143443
     7  H    0.143489
     8  H    0.143473
     9  H    0.131583
    10  H    0.131547
    11  H    0.127542
    12  H    0.127536
    13  H    0.131487
    14  H    0.131540
    15  H    0.143407
    16  H    0.143656
    17  H    0.143577
 Sum of Mulliken charges =  -0.00000

 Dipole moment (field-independent basis, Debye):
    X=             -0.0001    Y=              0.0653    Z=              0.0001  Tot=              0.0653
 Quadrupole moment (field-independent basis, Debye-Ang):
   XX=            -35.5889   YY=            -35.0136   ZZ=            -34.1783
   XY=              0.0024   XZ=             -0.0004   YZ=              0.0004

 Normal termination of Gaussian 16 at Wed Mar  2 00:07:23 2022.
