 Gaussian 16, Revision A.03,

 ----------------------------------------------------------------------
 #p b3lyp/6-31G(d) opt=(MaxStep=10,MaxCycles=1000) freq scf=(MaxCycle=2
 000,NoVarAcc,NoIncFock) scrf=(iefpcm,read,solvent=water)
 ----------------------------------------------------------------------

 ------------
 47.n.pdb.xyz
 ------------
 Symbolic Z-matrix:
 Charge =  0 Multiplicity = 1

 SCF Done:  E(RB3LYP) =  -1682.46496149     A.U. after   13 cycles
 SCF Done:  E(RB3LYP) =  -1682.46910884     A.U. after   10 cycles
 SCF Done:  E(RB3LYP) =  -1682.46879275     A.U. after   10 cycles
 SCF Done:  E(RB3LYP) =  -1682.47169760     A.U. after   10 cycles
 SCF Done:  E(RB3LYP) =  -1682.47138918     A.U. after   11 cycles
 SCF Done:  E(RB3LYP) =  -1682.47292599     A.U. after   11 cycles
 SCF Done:  E(RB3LYP) =  -1682.47342329     A.U. after   10 cycles
 SCF Done:  E(RB3LYP) =  -1682.47383588     A.U. after   13 cycles
 SCF Done:  E(RB3LYP) =  -1682.47405326     A.U. after    9 cycles
 SCF Done:  E(RB3LYP) =  -1682.47407304     A.U. after   10 cycles
 SCF Done:  E(RB3LYP) =  -1682.47429053     A.U. after    8 cycles
 SCF Done:  E(RB3LYP) =  -1682.47428785     A.U. after    7 cycles
 SCF Done:  E(RB3LYP) =  -1682.47429122     A.U. after    8 cycles
 SCF Done:  E(RB3LYP) =  -1682.47428767     A.U. after    8 cycles
 SCF Done:  E(RB3LYP) =  -1682.47428792     A.U. after    5 cycles
 SCF Done:  E(RB3LYP) =  -1682.47429120     A.U. after    8 cycles
 SCF Done:  E(RB3LYP) =  -1682.47428762     A.U. after    8 cycles
 Optimization completed.
    -- Stationary point found.
 Normal termination of Gaussian 16 at Wed Mar  2 06:11:01 2022.

 --------------------------------------------------------------------
 #P Geom=AllCheck Guess=TCheck SCRF=Check GenChk RB3LYP/6-31G(d) Freq
 --------------------------------------------------------------------

 Structure from the checkpoint file:  "47.n.pdb.xyz.mst.wat.chk"
 ------------
 47.n.pdb.xyz
 ------------
 Charge =  0 Multiplicity = 1

 SCF Done:  E(RB3LYP) =  -1682.47428762     A.U. after    1 cycles

  Exact polarizability: 396.796 -21.577 504.259   6.934 -17.848 207.141
 Approx polarizability: 436.660 -14.946 518.508   6.261 -21.091 235.978

                      1                      2                      3
                      A                      A                      A
 Frequencies --     19.3039                24.3952                32.7899
 Red. masses --      3.8149                 3.7089                 6.1122
 Frc consts  --      0.0008                 0.0013                 0.0039
 IR Inten    --      0.4444                 0.7047                 0.0532

                      4                      5                      6
                      A                      A                      A
 Frequencies --     46.8961                60.3451                86.8274
 Red. masses --      3.6759                 4.7173                 5.1346
 Frc consts  --      0.0048                 0.0101                 0.0228
 IR Inten    --      2.9908                 1.3648                 1.5869

                      7                      8                      9
                      A                      A                      A
 Frequencies --    102.5058               112.4200               144.2233
 Red. masses --      3.6812                 4.4509                 4.3150
 Frc consts  --      0.0228                 0.0331                 0.0529
 IR Inten    --      0.2094                 0.2590                 0.4933

                     10                     11                     12
                      A                      A                      A
 Frequencies --    156.6505               166.6269               212.8089
 Red. masses --      4.4682                 5.8358                 4.0508
 Frc consts  --      0.0646                 0.0955                 0.1081
 IR Inten    --      1.9953                 0.7644                 1.8560

                     13                     14                     15
                      A                      A                      A
 Frequencies --    228.2937               229.0884               233.4546
 Red. masses --      1.2670                 2.2394                 2.0707
 Frc consts  --      0.0389                 0.0692                 0.0665
 IR Inten    --      0.4426                 1.3997                 7.0708

                     16                     17                     18
                      A                      A                      A
 Frequencies --    249.4634               283.7281               291.2069
 Red. masses --      4.1652                 6.3930                 5.3339
 Frc consts  --      0.1527                 0.3032                 0.2665
 IR Inten    --      1.0586                 0.0993                 3.3553

                     19                     20                     21
                      A                      A                      A
 Frequencies --    324.9842               334.6211               354.2244
 Red. masses --      2.3896                 2.8344                 3.8978
 Frc consts  --      0.1487                 0.1870                 0.2882
 IR Inten    --      0.7094                 0.2451                 0.5698

                     22                     23                     24
                      A                      A                      A
 Frequencies --    377.5867               383.5058               423.9189
 Red. masses --      3.8208                 5.3862                 3.4333
 Frc consts  --      0.3210                 0.4667                 0.3635
 IR Inten    --      8.8795                 6.5398                 0.3639

                     25                     26                     27
                      A                      A                      A
 Frequencies --    441.1154               444.8485               457.3018
 Red. masses --      5.4271                 3.9925                 3.4437
 Frc consts  --      0.6222                 0.4655                 0.4243
 IR Inten    --      3.1673                 7.1045                 1.1068

                     28                     29                     30
                      A                      A                      A
 Frequencies --    461.0101               462.2424               490.3581
 Red. masses --      2.7273                 3.3427                 2.3483
 Frc consts  --      0.3415                 0.4208                 0.3327
 IR Inten    --      1.4077                 2.6149                10.9290

                     31                     32                     33
                      A                      A                      A
 Frequencies --    497.7965               540.6197               549.5914
 Red. masses --      5.2248                 4.8039                 3.5995
 Frc consts  --      0.7628                 0.8272                 0.6406
 IR Inten    --      6.4097                 8.0616                 1.0838

                     34                     35                     36
                      A                      A                      A
 Frequencies --    576.0482               599.8012               624.4848
 Red. masses --      2.3680                 5.4689                 5.7305
 Frc consts  --      0.4630                 1.1592                 1.3167
 IR Inten    --      1.1932                 6.8262                 1.1747

                     37                     38                     39
                      A                      A                      A
 Frequencies --    659.1734               690.6227               714.4249
 Red. masses --      4.5791                 6.0664                 5.2161
 Frc consts  --      1.1723                 1.7047                 1.5686
 IR Inten    --      8.0371                 4.4770                 1.8697

                     40                     41                     42
                      A                      A                      A
 Frequencies --    721.9755               729.3418               739.0702
 Red. masses --      6.0051                 4.8354                 4.0170
 Frc consts  --      1.8442                 1.5155                 1.2928
 IR Inten    --      2.3229                 3.8800                 2.7121

                     43                     44                     45
                      A                      A                      A
 Frequencies --    764.9129               778.9829               797.4885
 Red. masses --      1.2771                 1.8334                 2.6448
 Frc consts  --      0.4403                 0.6555                 0.9910
 IR Inten    --     95.8341                12.6827                17.7039

                     46                     47                     48
                      A                      A                      A
 Frequencies --    809.3387               815.7661               827.1332
 Red. masses --      1.3235                 2.3224                 1.4892
 Frc consts  --      0.5108                 0.9106                 0.6003
 IR Inten    --     33.5896                52.2948                10.3503

                     49                     50                     51
                      A                      A                      A
 Frequencies --    862.3180               864.3029               868.6303
 Red. masses --      1.8505                 1.6587                 1.3517
 Frc consts  --      0.8107                 0.7300                 0.6009
 IR Inten    --     24.1405                14.4241                 1.0021

                     52                     53                     54
                      A                      A                      A
 Frequencies --    878.6039               909.4575               941.2162
 Red. masses --      2.0970                 1.8834                 1.6283
 Frc consts  --      0.9538                 0.9178                 0.8499
 IR Inten    --    148.3977                14.4367                20.6357

                     55                     56                     57
                      A                      A                      A
 Frequencies --    942.3434               944.9875               954.8151
 Red. masses --      1.3264                 2.0356                 1.5334
 Frc consts  --      0.6940                 1.0710                 0.8236
 IR Inten    --      5.5418                52.5698                33.0948

                     58                     59                     60
                      A                      A                      A
 Frequencies --    975.3838               983.3872               997.7826
 Red. masses --      2.2004                 1.2526                 1.1818
 Frc consts  --      1.2334                 0.7137                 0.6932
 IR Inten    --      3.2387                 0.0975                 8.1036

                     61                     62                     63
                      A                      A                      A
 Frequencies --   1009.0209              1019.7167              1023.8918
 Red. masses --      1.3110                 1.6199                 3.1239
 Frc consts  --      0.7864                 0.9924                 1.9295
 IR Inten    --     20.5920                 9.1968                 9.1458

                     64                     65                     66
                      A                      A                      A
 Frequencies --   1065.1354              1069.5498              1070.3886
 Red. masses --      5.4126                 6.0041                 1.6546
 Frc consts  --      3.6180                 4.0467                 1.1169
 IR Inten    --     34.8755                12.8526                 8.3573

                     67                     68                     69
                      A                      A                      A
 Frequencies --   1081.3872              1098.7137              1115.2726
 Red. masses --      2.6702                 1.6945                 2.6192
 Frc consts  --      1.8398                 1.2052                 1.9194
 IR Inten    --     28.1095                 5.9081                12.5098

                     70                     71                     72
                      A                      A                      A
 Frequencies --   1119.8017              1126.9556              1142.0464
 Red. masses --      3.5343                 3.5667                 2.1256
 Frc consts  --      2.6111                 2.6689                 1.6334
 IR Inten    --     56.9329                14.3291                61.9493

                     73                     74                     75
                      A                      A                      A
 Frequencies --   1164.0638              1167.8289              1191.2371
 Red. masses --      1.5292                 1.5672                 1.6106
 Frc consts  --      1.2208                 1.2593                 1.3466
 IR Inten    --     15.5461                64.6262                92.6236

                     76                     77                     78
                      A                      A                      A
 Frequencies --   1193.3533              1203.3742              1230.7980
 Red. masses --      1.6598                 1.1900                 1.6589
 Frc consts  --      1.3926                 1.0153                 1.4806
 IR Inten    --      9.2942                 0.3945                87.1409

                     79                     80                     81
                      A                      A                      A
 Frequencies --   1239.3717              1275.9824              1282.5592
 Red. masses --      1.5217                 1.8258                 1.9172
 Frc consts  --      1.3772                 1.7514                 1.8581
 IR Inten    --     31.5642                89.6897                73.7527

                     82                     83                     84
                      A                      A                      A
 Frequencies --   1291.3098              1300.4676              1325.0754
 Red. masses --      1.4266                 1.2931                 1.5435
 Frc consts  --      1.4016                 1.2885                 1.5968
 IR Inten    --     35.6879                20.2621                42.0776

                     85                     86                     87
                      A                      A                      A
 Frequencies --   1331.4099              1333.0577              1340.5713
 Red. masses --      1.3907                 8.0259                 1.3021
 Frc consts  --      1.4524                 8.4032                 1.3787
 IR Inten    --     27.5520                74.4642                11.1220

                     88                     89                     90
                      A                      A                      A
 Frequencies --   1350.5270              1358.0710              1376.0450
 Red. masses --      8.1796                 1.2865                 1.2832
 Frc consts  --      8.7900                 1.3980                 1.4315
 IR Inten    --      5.4013                26.1742                15.5126

                     91                     92                     93
                      A                      A                      A
 Frequencies --   1381.3504              1384.5440              1394.4297
 Red. masses --      1.4499                 1.3396                 1.4062
 Frc consts  --      1.6300                 1.5130                 1.6109
 IR Inten    --      7.1628                15.5763                 2.0269

                     94                     95                     96
                      A                      A                      A
 Frequencies --   1396.1517              1405.6458              1409.9685
 Red. masses --      1.4006                 1.4865                 1.3830
 Frc consts  --      1.6085                 1.7305                 1.6199
 IR Inten    --    136.7444                 7.4354                32.5075

                     97                     98                     99
                      A                      A                      A
 Frequencies --   1424.6577              1448.7299              1486.5586
 Red. masses --      1.4620                 2.5696                 2.2600
 Frc consts  --      1.7483                 3.1776                 2.9425
 IR Inten    --     49.3561               146.2171                69.4176

                    100                    101                    102
                      A                      A                      A
 Frequencies --   1491.3408              1492.3489              1504.1874
 Red. masses --      1.0509                 1.1093                 1.0871
 Frc consts  --      1.3771                 1.4556                 1.4492
 IR Inten    --     14.8923                18.0686                 6.1418

                    103                    104                    105
                      A                      A                      A
 Frequencies --   1505.4756              1506.6540              1510.9097
 Red. masses --      1.0947                 1.2610                 1.7120
 Frc consts  --      1.4618                 1.6865                 2.3026
 IR Inten    --     11.1405               321.0985               206.6738

                    106                    107                    108
                      A                      A                      A
 Frequencies --   1515.8775              1522.6452              1524.6074
 Red. masses --      1.1593                 1.1185                 1.2872
 Frc consts  --      1.5696                 1.5279                 1.7629
 IR Inten    --     25.3456                 8.4847                18.0968

                    109                    110                    111
                      A                      A                      A
 Frequencies --   1540.2578              1544.3023              1604.7617
 Red. masses --      1.0874                 1.8508                 6.0113
 Frc consts  --      1.5199                 2.6006                 9.1210
 IR Inten    --     13.2638                 7.6393                44.3817

                    112                    113                    114
                      A                      A                      A
 Frequencies --   1619.2712              1630.4418              1649.2989
 Red. masses --      5.4767                 5.8750                 5.9865
 Frc consts  --      8.4607                 9.2016                 9.5945
 IR Inten    --    215.4467                36.2104                51.1955

                    115                    116                    117
                      A                      A                      A
 Frequencies --   3007.3642              3029.0901              3036.5014
 Red. masses --      1.0815                 1.0662                 1.0676
 Frc consts  --      5.7630                 5.7636                 5.7998
 IR Inten    --     42.6892                67.6145                34.6234

                    118                    119                    120
                      A                      A                      A
 Frequencies --   3037.4901              3042.1796              3071.6171
 Red. masses --      1.0614                 1.0651                 1.0636
 Frc consts  --      5.7697                 5.8077                 5.9126
 IR Inten    --     58.9231                85.4608                23.4482

                    121                    122                    123
                      A                      A                      A
 Frequencies --   3080.2268              3082.0135              3086.6228
 Red. masses --      1.0970                 1.0933                 1.1009
 Frc consts  --      6.1321                 6.1188                 6.1797
 IR Inten    --    104.6103                85.9676               111.2316

                    124                    125                    126
                      A                      A                      A
 Frequencies --   3088.4546              3091.1290              3097.5923
 Red. masses --      1.0296                 1.0655                 1.1008
 Frc consts  --      5.7865                 5.9986                 6.2231
 IR Inten    --     31.0270               117.0833                97.7403

                    127                    128                    129
                      A                      A                      A
 Frequencies --   3113.9042              3140.4510              3177.7102
 Red. masses --      1.0983                 1.1033                 1.1087
 Frc consts  --      6.2746                 6.4110                 6.5964
 IR Inten    --     26.2425                61.8026                11.0148

                    130                    131                    132
                      A                      A                      A
 Frequencies --   3185.9548              3207.7114              3211.6180
 Red. masses --      1.1051                 1.0867                 1.0898
 Frc consts  --      6.6092                 6.5882                 6.6231
 IR Inten    --      6.2792                 2.1055                14.8409

                    133                    134                    135
                      A                      A                      A
 Frequencies --   3214.9521              3231.1146              3250.7795
 Red. masses --      1.0902                 1.0964                 1.0913
 Frc consts  --      6.6391                 6.7440                 6.7947
 IR Inten    --     22.4029                48.0325                 9.9516

                    136                    137                    138
                      A                      A                      A
 Frequencies --   3257.5498              3267.6697              3454.5703
 Red. masses --      1.0884                 1.0900                 1.0736
 Frc consts  --      6.8049                 6.8570                 7.5491
 IR Inten    --      4.4925                12.2715                 0.0784

 - Thermochemistry -
 -------------------
 Temperature   298.150 Kelvin.  Pressure   1.00000 Atm.
 Atom     1 has atomic number  6 and mass  12.00000

 Molecular mass:   356.13809 amu.
 Principal axes and moments of inertia in atomic units:
                           1         2         3
     Eigenvalues --  8950.15542********************
           X            0.99951  -0.03095  -0.00476
           Y            0.03094   0.99952  -0.00102
           Z            0.00479   0.00087   0.99999
 This molecule is an asymmetric top.
 Rotational symmetry number  1.
 Warning -- assumption of classical behavior for rotation
           may cause significant error
 Rotational temperatures (Kelvin)      0.00968     0.00726     0.00432
 Rotational constants (GHZ):           0.20164     0.15131     0.09002
 Zero-point vibrational energy    1067381.3 (Joules/Mol)
                                  255.11025 (Kcal/Mol)
 Warning -- explicit consideration of  35 degrees of freedom as
           vibrations may cause significant error
 Vibrational temperatures:     27.77    35.10    47.18    67.47    86.82
          (Kelvin)            124.93   147.48   161.75   207.51   225.39
                              239.74   306.18   328.46   329.61   335.89
                              358.92   408.22   418.98   467.58   481.45
                              509.65   543.26   551.78   609.92   634.67
                              640.04   657.96   663.29   665.06   705.52
                              716.22   777.83   790.74   828.80   862.98
                              898.49   948.40   993.65  1027.90  1038.76
                             1049.36  1063.36  1100.54  1120.78  1147.41
                             1164.46  1173.71  1190.06  1240.68  1243.54
                             1249.77  1264.12  1308.51  1354.20  1355.82
                             1359.63  1373.77  1403.36  1414.87  1435.59
                             1451.76  1467.14  1473.15  1532.49  1538.84
                             1540.05  1555.88  1580.80  1604.63  1611.14
                             1621.44  1643.15  1674.83  1680.25  1713.92
                             1716.97  1731.39  1770.84  1783.18  1835.85
                             1845.32  1857.91  1871.08  1906.49  1915.60
                             1917.97  1928.78  1943.11  1953.96  1979.82
                             1987.46  1992.05  2006.27  2008.75  2022.41
                             2028.63  2049.76  2084.40  2138.83  2145.71
                             2147.16  2164.19  2166.04  2167.74  2173.86
                             2181.01  2190.75  2193.57  2216.09  2221.91
                             2308.89  2329.77  2345.84  2372.97  4326.93
                             4358.19  4368.85  4370.27  4377.02  4419.37
                             4431.76  4434.33  4440.96  4443.60  4447.45
                             4456.74  4480.21  4518.41  4572.02  4583.88
                             4615.18  4620.80  4625.60  4648.85  4677.15
                             4686.89  4701.45  4970.36

 Zero-point correction=                           0.406544 (Hartree/Particle)
 Thermal correction to Energy=                    0.428350
 Thermal correction to Enthalpy=                  0.429294
 Thermal correction to Gibbs Free Energy=         0.353906
 Sum of electronic and zero-point Energies=          -1682.067744
 Sum of electronic and thermal Energies=             -1682.045938
 Sum of electronic and thermal Enthalpies=           -1682.044994
 Sum of electronic and thermal Free Energies=        -1682.120382

                     E (Thermal)             CV                S
                      KCal/Mol        Cal/Mol-Kelvin    Cal/Mol-Kelvin
 Total                  268.793             86.554            158.667
 Electronic               0.000              0.000              0.000
 Translational            0.889              2.981             43.504
 Rotational               0.889              2.981             36.013
 Vibrational            267.016             80.592             79.150
 Vibration     1          0.593              1.986              6.705
 Vibration     2          0.593              1.985              6.240
 Vibration     3          0.594              1.983              5.653
 Vibration     4          0.595              1.979              4.944
 Vibration     5          0.597              1.973              4.446
 Vibration     6          0.601              1.958              3.730
 Vibration     7          0.605              1.947              3.406
 Vibration     8          0.607              1.939              3.227
 Vibration     9          0.616              1.909              2.747
 Vibration    10          0.620              1.895              2.590
 Vibration    11          0.624              1.884              2.473
 Vibration    12          0.644              1.821              2.019
 Vibration    13          0.651              1.798              1.892
 Vibration    14          0.652              1.797              1.886
 Vibration    15          0.654              1.790              1.852
 Vibration    16          0.662              1.764              1.734
 Vibration    17          0.682              1.704              1.511
 Vibration    18          0.687              1.690              1.467
 Vibration    19          0.709              1.626              1.285
 Vibration    20          0.716              1.606              1.238
 Vibration    21          0.730              1.567              1.147
 Vibration    22          0.748              1.518              1.049
 Vibration    23          0.753              1.505              1.025
 Vibration    24          0.786              1.418              0.879
 Vibration    25          0.801              1.380              0.823
 Vibration    26          0.804              1.372              0.812
 Vibration    27          0.815              1.345              0.774
 Vibration    28          0.819              1.337              0.763
 Vibration    29          0.820              1.334              0.760
 Vibration    30          0.846              1.271              0.683
 Vibration    31          0.853              1.255              0.664
 Vibration    32          0.896              1.160              0.564
 Vibration    33          0.905              1.141              0.545
 Vibration    34          0.932              1.083              0.493
 Vibration    35          0.958              1.032              0.450

 Optimization completed.
    -- Stationary point found.
 Normal termination of Gaussian 16 at Wed Mar  2 07:47:04 2022.

 ------------------------------------------
 #p b3lyp/6-31G(d) geom=allcheck guess=read
 ------------------------------------------

 Structure from the checkpoint file:  "47.n.pdb.xyz.mst.wat.chk"
 ------------
 47.n.pdb.xyz
 ------------
 Charge =  0 Multiplicity = 1

 SCF Done:  E(RB3LYP) =  -1682.46140151     A.U. after   11 cycles
 Normal termination of Gaussian 16 at Wed Mar  2 07:51:52 2022.
 Gaussian 16:  ES64L-G16RevA.03 25-Dec-2016

 ----------------------------------------------------------------------
 #p b3lyp/6-31G(d) scrf=(iefpcm,read,solvent=water) geom=allcheck guess
 =read
 ----------------------------------------------------------------------

 Structure from the checkpoint file:  "47.n.pdb.xyz.mst.wat.chk"
 ------------
 47.n.pdb.xyz
 ------------
 Charge =  0 Multiplicity = 1

                         Standard orientation:
 ---------------------------------------------------------------------
 Center     Atomic      Atomic             Coordinates (Angstroms)
 Number     Number       Type             X           Y           Z
 ---------------------------------------------------------------------
      1          6           0        3.183879   -5.028823   -0.376907
      2         16           0        1.628748   -4.113474   -0.124811
      3          6           0        2.172347   -2.418283   -0.008726
      4          6           0        3.509707   -2.027849   -0.091320
      5          6           0        3.819812   -0.670742    0.022808
      6          6           0        2.829697    0.284238    0.233176
      7         16           0        3.316130    1.953691    0.599895
      8          6           0        1.888617    2.812483   -0.022182
      9          6           0        0.614144    2.210438    0.041372
     10          6           0       -0.490614    3.006494   -0.310193
     11          6           0       -0.331779    4.333914   -0.710284
     12          6           0        0.935956    4.901981   -0.800735
     13          6           0        2.045295    4.126728   -0.461947
     14          7           0        0.452764    0.871792    0.465511
     15          6           0       -0.898481    0.406323    0.808534
     16          6           0       -1.780206   -0.057740   -0.365188
     17          6           0       -3.140522   -0.599135    0.093937
     18          6           0       -4.029048    0.474298    0.751686
     19          6           0       -5.398772   -0.098109    1.136571
     20          6           0       -6.066052   -0.778813   -0.061205
     21          6           0       -5.116227   -1.803432   -0.690263
     22          7           0       -3.799404   -1.257608   -1.050640
     23          6           0        1.468068   -0.089677    0.280869
     24          6           0        1.166868   -1.454030    0.159203
     25          1           0        3.857568   -4.903960    0.472073
     26          1           0        3.678991   -4.717314   -1.297842
     27          1           0        2.898810   -6.078681   -0.458806
     28          1           0        4.300596   -2.752338   -0.234663
     29          1           0        4.855772   -0.351327   -0.023597
     30          1           0       -1.488699    2.594429   -0.274405
     31          1           0       -1.212655    4.914004   -0.963631
     32          1           0        1.065777    5.928610   -1.124240
     33          1           0        3.044797    4.546291   -0.511558
     34          1           0       -1.386372    1.219810    1.348614
     35          1           0       -0.781574   -0.412192    1.523767
     36          1           0       -1.272871   -0.845834   -0.927880
     37          1           0       -1.937137    0.767330   -1.068672
     38          1           0       -2.962106   -1.390873    0.837590
     39          1           0       -4.162295    1.300914    0.039143
     40          1           0       -3.535180    0.892526    1.636457
     41          1           0       -5.268157   -0.833178    1.942300
     42          1           0       -6.041140    0.692879    1.538599
     43          1           0       -7.000551   -1.266507    0.240326
     44          1           0       -6.326848   -0.024064   -0.815081
     45          1           0       -5.560602   -2.240718   -1.589907
     46          1           0       -4.950946   -2.627218    0.016686
     47          1           0       -3.941361   -0.551796   -1.776410
     48          1           0        0.138488   -1.785135    0.190451
 ---------------------------------------------------------------------

 SCF Done:  E(RB3LYP) =  -1682.47279857     A.U. after   11 cycles

 The electronic state is 1-A.
 Alpha  occ. eigenvalues --  -88.89616 -88.88893 -14.37801 -14.31234 -10.24825
 Alpha  occ. eigenvalues --  -10.24520 -10.22962 -10.22613 -10.22494 -10.22444
 Alpha  occ. eigenvalues --  -10.21305 -10.20962 -10.20162 -10.19856 -10.19831
 Alpha  occ. eigenvalues --  -10.19757 -10.19429 -10.19361 -10.19348 -10.18982
 Alpha  occ. eigenvalues --  -10.18331 -10.17554 -10.17481 -10.17237  -7.95690
 Alpha  occ. eigenvalues --   -7.94992  -5.92189  -5.91832  -5.91507  -5.91195
 Alpha  occ. eigenvalues --   -5.91107  -5.90498  -0.97328  -0.90545  -0.87211
 Alpha  occ. eigenvalues --   -0.86277  -0.82258  -0.78933  -0.78474  -0.77657
 Alpha  occ. eigenvalues --   -0.76713  -0.74609  -0.74111  -0.72249  -0.68915
 Alpha  occ. eigenvalues --   -0.65815  -0.65176  -0.62590  -0.62232  -0.60674
 Alpha  occ. eigenvalues --   -0.60243  -0.58774  -0.56707  -0.55961  -0.53578
 Alpha  occ. eigenvalues --   -0.51236  -0.48725  -0.47946  -0.47592  -0.47048
 Alpha  occ. eigenvalues --   -0.46007  -0.45845  -0.44730  -0.44441  -0.43825
 Alpha  occ. eigenvalues --   -0.43489  -0.43258  -0.43208  -0.42285  -0.41851
 Alpha  occ. eigenvalues --   -0.40608  -0.39904  -0.38766  -0.38123  -0.38056
 Alpha  occ. eigenvalues --   -0.37675  -0.37056  -0.36566  -0.36339  -0.35384
 Alpha  occ. eigenvalues --   -0.34909  -0.33994  -0.33435  -0.32943  -0.32483
 Alpha  occ. eigenvalues --   -0.32314  -0.31710  -0.31120  -0.30248  -0.27885
 Alpha  occ. eigenvalues --   -0.26171  -0.23927  -0.21879  -0.21600  -0.18528
 Alpha virt. eigenvalues --   -0.02274  -0.01372  -0.00837   0.01604   0.02728
 Alpha virt. eigenvalues --    0.03885   0.06598   0.08164   0.08942   0.09885
 Alpha virt. eigenvalues --    0.10464   0.11752   0.12143   0.12401   0.13564

 Mulliken charges:
               1
     1  C   -0.606184
     2  S    0.091011
     3  C   -0.080635
     4  C   -0.173288
     5  C   -0.186124
     6  C   -0.142525
     7  S    0.133327
     8  C   -0.135235
     9  C    0.327855
    10  C   -0.187271
    11  C   -0.166128
    12  C   -0.141114
    13  C   -0.194135
    14  N   -0.603897
    15  C   -0.181094
    16  C   -0.291476
    17  C    0.032057
    18  C   -0.274175
    19  C   -0.266885
    20  C   -0.263027
    21  C   -0.146288
    22  N   -0.596139
    23  C    0.347580
    24  C   -0.232876
    25  H    0.203108
    26  H    0.203116
    27  H    0.207952
    28  H    0.160287
    29  H    0.163970
    30  H    0.157941
    31  H    0.154329
    32  H    0.151688
    33  H    0.160697
    34  H    0.179392
    35  H    0.175443
    36  H    0.155107
    37  H    0.151876
    38  H    0.132321
    39  H    0.133473
    40  H    0.141801
    41  H    0.134318
    42  H    0.137060
    43  H    0.134085
    44  H    0.133083
    45  H    0.141600
    46  H    0.138610
    47  H    0.321063
    48  H    0.164347
 Sum of Mulliken charges =  -0.00000

 Dipole moment (field-independent basis, Debye):
    X=             -2.2712    Y=             -0.1047    Z=             -0.3509  Tot=              2.3005
 Quadrupole moment (field-independent basis, Debye-Ang):
   XX=           -135.4519   YY=           -144.1840   ZZ=           -161.7038
   XY=            -18.1909   XZ=             -3.4156   YZ=             -4.3293

 Normal termination of Gaussian 16 at Wed Mar  2 07:57:51 2022.
