 Gaussian 16, Revision A.03,

 ----------------------------------------------------------------------
 #p b3lyp/6-31G(d) opt=(MaxStep=10,MaxCycles=1000) freq scf=(MaxCycle=2
 000,NoVarAcc,NoIncFock) scrf=(iefpcm,read,solvent=water)
 ----------------------------------------------------------------------

 ------------
 48.n.pdb.xyz
 ------------
 Symbolic Z-matrix:
 Charge =  0 Multiplicity = 1

 SCF Done:  E(RB3LYP) =  -1794.41838167     A.U. after   13 cycles
 SCF Done:  E(RB3LYP) =  -1794.42227104     A.U. after   11 cycles
 SCF Done:  E(RB3LYP) =  -1794.41949495     A.U. after   11 cycles
 SCF Done:  E(RB3LYP) =  -1794.42417307     A.U. after   11 cycles
 SCF Done:  E(RB3LYP) =  -1794.42479012     A.U. after   11 cycles
 SCF Done:  E(RB3LYP) =  -1794.42487694     A.U. after   11 cycles
 SCF Done:  E(RB3LYP) =  -1794.42497437     A.U. after    9 cycles
 SCF Done:  E(RB3LYP) =  -1794.42497589     A.U. after    9 cycles
 SCF Done:  E(RB3LYP) =  -1794.42497981     A.U. after    8 cycles
 SCF Done:  E(RB3LYP) =  -1794.42497459     A.U. after    8 cycles
 SCF Done:  E(RB3LYP) =  -1794.42496851     A.U. after    8 cycles
 SCF Done:  E(RB3LYP) =  -1794.42497908     A.U. after    8 cycles
 SCF Done:  E(RB3LYP) =  -1794.42497977     A.U. after    7 cycles
 SCF Done:  E(RB3LYP) =  -1794.42497026     A.U. after    8 cycles
 SCF Done:  E(RB3LYP) =  -1794.42497185     A.U. after    7 cycles
 SCF Done:  E(RB3LYP) =  -1794.42497935     A.U. after    8 cycles
 SCF Done:  E(RB3LYP) =  -1794.42497939     A.U. after    6 cycles
 Optimization completed.
    -- Stationary point found.
 Normal termination of Gaussian 16 at Wed Mar  2 05:22:35 2022.

 --------------------------------------------------------------------
 #P Geom=AllCheck Guess=TCheck SCRF=Check GenChk RB3LYP/6-31G(d) Freq
 --------------------------------------------------------------------

 Structure from the checkpoint file:  "48.n.pdb.xyz.mst.wat.chk"
 ------------
 48.n.pdb.xyz
 ------------
 Charge =  0 Multiplicity = 1

 SCF Done:  E(RB3LYP) =  -1794.42497939     A.U. after    1 cycles

  Exact polarizability: 345.070  19.208 311.570 -11.203  32.314 245.833
 Approx polarizability: 381.774  20.449 360.879 -17.586  41.822 287.090

                      1                      2                      3
                      A                      A                      A
 Frequencies --     23.5433                36.7716                61.2578
 Red. masses --      9.5089                 5.8136                 5.8477
 Frc consts  --      0.0031                 0.0046                 0.0129
 IR Inten    --      0.5913                 0.7977                 0.5745

                      4                      5                      6
                      A                      A                      A
 Frequencies --     65.5979                88.8500               111.5177
 Red. masses --      8.1625                 4.2847                 8.1178
 Frc consts  --      0.0207                 0.0199                 0.0595
 IR Inten    --      8.1315                 2.5594                 6.5482

                      7                      8                      9
                      A                      A                      A
 Frequencies --    132.4921               139.4000               176.4261
 Red. masses --      4.7531                 4.5958                 1.7863
 Frc consts  --      0.0492                 0.0526                 0.0328
 IR Inten    --      1.3383                 1.3677                 1.3190

                     10                     11                     12
                      A                      A                      A
 Frequencies --    196.5816               204.6130               222.7746
 Red. masses --      3.2358                 3.4667                 6.2927
 Frc consts  --      0.0737                 0.0855                 0.1840
 IR Inten    --      0.5275                 1.0008                 3.4540

                     13                     14                     15
                      A                      A                      A
 Frequencies --    248.7014               292.6687               303.7617
 Red. masses --      4.0574                 4.1678                 7.8800
 Frc consts  --      0.1479                 0.2103                 0.4284
 IR Inten    --      0.3251                 9.3330                 1.9929

                     16                     17                     18
                      A                      A                      A
 Frequencies --    314.1701               330.2901               341.5149
 Red. masses --      5.7806                 3.5052                 5.0050
 Frc consts  --      0.3362                 0.2253                 0.3439
 IR Inten    --      1.1559                 4.5741                 0.4959

                     19                     20                     21
                      A                      A                      A
 Frequencies --    372.3073               411.9150               428.4030
 Red. masses --      5.9702                 4.4464                 6.9278
 Frc consts  --      0.4876                 0.4445                 0.7491
 IR Inten    --      0.9571                 3.5313                 2.3227

                     22                     23                     24
                      A                      A                      A
 Frequencies --    435.8735               469.2267               480.0537
 Red. masses --      4.9477                 5.1000                 6.8696
 Frc consts  --      0.5538                 0.6616                 0.9327
 IR Inten    --      3.0887                18.9206                 5.3446

                     25                     26                     27
                      A                      A                      A
 Frequencies --    486.3545               515.5701               547.8319
 Red. masses --      4.2528                 4.3974                 4.9636
 Frc consts  --      0.5927                 0.6887                 0.8777
 IR Inten    --     16.1675                 4.2212                17.9203

                     28                     29                     30
                      A                      A                      A
 Frequencies --    556.7697               594.7062               647.1099
 Red. masses --      4.1999                 4.6101                 4.7086
 Frc consts  --      0.7671                 0.9606                 1.1617
 IR Inten    --     20.4564                 8.8260                 7.7040

                     31                     32                     33
                      A                      A                      A
 Frequencies --    657.6822               685.2413               691.8766
 Red. masses --      6.1439                 6.4175                 6.3129
 Frc consts  --      1.5658                 1.7754                 1.7805
 IR Inten    --      9.1849                 3.2991                 6.4557

                     34                     35                     36
                      A                      A                      A
 Frequencies --    700.1531               715.9423               736.6320
 Red. masses --      6.0585                 7.0441                 6.4321
 Frc consts  --      1.7499                 2.1273                 2.0564
 IR Inten    --      0.9156                33.4361                11.4844

                     37                     38                     39
                      A                      A                      A
 Frequencies --    743.3115               768.7385               783.6151
 Red. masses --      3.6012                 2.2718                 2.0090
 Frc consts  --      1.1723                 0.7910                 0.7268
 IR Inten    --     11.3555                53.9052                26.8062

                     40                     41                     42
                      A                      A                      A
 Frequencies --    811.3040               828.5945               847.3528
 Red. masses --      6.1123                 6.4925                 1.5036
 Frc consts  --      2.3704                 2.6263                 0.6361
 IR Inten    --     17.1844                47.5343                46.0930

                     43                     44                     45
                      A                      A                      A
 Frequencies --    885.5890               909.2366               945.4308
 Red. masses --      1.3639                 1.4781                 3.3240
 Frc consts  --      0.6302                 0.7200                 1.7505
 IR Inten    --      0.8575                18.0066                41.3605

                     46                     47                     48
                      A                      A                      A
 Frequencies --    966.2930               977.3487               994.6674
 Red. masses --      1.3998                 1.3247                 2.3626
 Frc consts  --      0.7701                 0.7455                 1.3772
 IR Inten    --      4.5898                 1.9128                15.6926

                     49                     50                     51
                      A                      A                      A
 Frequencies --   1003.9480              1018.5655              1035.0488
 Red. masses --      1.2929                 6.9265                 6.9113
 Frc consts  --      0.7678                 4.2339                 4.3625
 IR Inten    --      0.5543                65.1182                24.6928

                     52                     53                     54
                      A                      A                      A
 Frequencies --   1041.5852              1055.9722              1067.8794
 Red. masses --      1.9551                 6.0358                 4.5975
 Frc consts  --      1.2497                 3.9654                 3.0890
 IR Inten    --      6.9651                72.0014                 4.1396

                     55                     56                     57
                      A                      A                      A
 Frequencies --   1077.4804              1078.3242              1092.3963
 Red. masses --      2.3916                 1.6849                 4.4965
 Frc consts  --      1.6359                 1.1543                 3.1614
 IR Inten    --      5.2982                13.8072                 7.9193

                     58                     59                     60
                      A                      A                      A
 Frequencies --   1122.3785              1150.9634              1164.9075
 Red. masses --      2.0174                 1.9253                 1.7086
 Frc consts  --      1.4973                 1.5027                 1.3660
 IR Inten    --     52.3134                12.3221                 8.3874

                     61                     62                     63
                      A                      A                      A
 Frequencies --   1193.6353              1195.9564              1237.4268
 Red. masses --      1.1822                 1.5834                 1.3082
 Frc consts  --      0.9924                 1.3344                 1.1802
 IR Inten    --      3.6682                18.7465                25.4122

                     64                     65                     66
                      A                      A                      A
 Frequencies --   1280.6652              1288.8500              1299.8100
 Red. masses --      1.8848                 1.5858                 2.6602
 Frc consts  --      1.8213                 1.5521                 2.6480
 IR Inten    --     47.1381                 7.6422                28.8406

                     67                     68                     69
                      A                      A                      A
 Frequencies --   1332.9490              1337.2480              1346.2035
 Red. masses --      2.5921                 7.6118                 4.2463
 Frc consts  --      2.7135                 8.0198                 4.5340
 IR Inten    --      3.4933                20.8088                66.5708

                     70                     71                     72
                      A                      A                      A
 Frequencies --   1355.9773              1371.1189              1424.9045
 Red. masses --      1.7453                 5.8851                 2.9276
 Frc consts  --      1.8907                 6.5186                 3.5021
 IR Inten    --     46.3684                23.1723                16.1322

                     73                     74                     75
                      A                      A                      A
 Frequencies --   1440.8186              1467.6466              1475.1170
 Red. masses --      1.5521                 3.7504                 2.1189
 Frc consts  --      1.8984                 4.7596                 2.7166
 IR Inten    --     11.4040               252.8851                36.5149

                     76                     77                     78
                      A                      A                      A
 Frequencies --   1495.1773              1497.0608              1507.6519
 Red. masses --      1.1487                 1.1029                 1.2956
 Frc consts  --      1.5130                 1.4564                 1.7350
 IR Inten    --      9.2650                 7.2360                65.9850

                     79                     80                     81
                      A                      A                      A
 Frequencies --   1515.6616              1527.1498              1573.6198
 Red. masses --      2.4595                 2.2579                 5.1510
 Frc consts  --      3.3289                 3.1025                 7.5152
 IR Inten    --     28.7197               154.9198                36.9239

                     82                     83                     84
                      A                      A                      A
 Frequencies --   1586.3243              1617.1948              1621.4025
 Red. masses --      9.2600                 7.3512                 5.4884
 Frc consts  --     13.7291                11.3274                 8.5011
 IR Inten    --     92.4816                51.5742                 9.7962

                     85                     86                     87
                      A                      A                      A
 Frequencies --   1647.2235              1648.9965              1690.9821
 Red. masses --      6.1399                 6.7608                10.4921
 Frc consts  --      9.8157                10.8315                17.6762
 IR Inten    --     26.5829                 8.0033               252.2908

                     88                     89                     90
                      A                      A                      A
 Frequencies --   3045.6721              3083.5704              3145.1886
 Red. masses --      1.0704                 1.0382                 1.1009
 Frc consts  --      5.8503                 5.8160                 6.4163
 IR Inten    --     31.7971                16.7110                10.9005

                     91                     92                     93
                      A                      A                      A
 Frequencies --   3157.1093              3179.1158              3221.4496
 Red. masses --      1.0941                 1.1020                 1.0863
 Frc consts  --      6.4252                 6.5623                 6.6422
 IR Inten    --     32.9728                11.5808                 0.4807

                     94                     95                     96
                      A                      A                      A
 Frequencies --   3229.8884              3238.9791              3245.0340
 Red. masses --      1.0898                 1.0935                 1.0976
 Frc consts  --      6.6985                 6.7590                 6.8095
 IR Inten    --     13.0602                19.7047                19.8440

                     97                     98                     99
                      A                      A                      A
 Frequencies --   3250.0723              3251.8151              3266.2317
 Red. masses --      1.0901                 1.0916                 1.0937
 Frc consts  --      6.7843                 6.8007                 6.8746
 IR Inten    --      1.5816                 0.7007                 3.5485

 - Thermochemistry -
 -------------------
 Temperature   298.150 Kelvin.  Pressure   1.00000 Atm.
 Atom     1 has atomic number  6 and mass  12.00000

 Molecular mass:   342.04390 amu.
 Principal axes and moments of inertia in atomic units:
                           1         2         3
     Eigenvalues --  6832.720389617.16846**********
           X            0.99982  -0.01814   0.00632
           Y            0.01812   0.99983   0.00387
           Z           -0.00638  -0.00376   0.99997
 This molecule is an asymmetric top.
 Rotational symmetry number  1.
 Warning -- assumption of classical behavior for rotation
           may cause significant error
 Rotational temperatures (Kelvin)      0.01268     0.00901     0.00659
 Rotational constants (GHZ):           0.26413     0.18766     0.13735
 Zero-point vibrational energy     682388.3 (Joules/Mol)
                                  163.09471 (Kcal/Mol)
 Warning -- explicit consideration of  29 degrees of freedom as
           vibrations may cause significant error
 Vibrational temperatures:     33.87    52.91    88.14    94.38   127.84
          (Kelvin)            160.45   190.63   200.57   253.84   282.84
                              294.39   320.52   357.83   421.08   437.05
                              452.02   475.21   491.36   535.67   592.65
                              616.38   627.12   675.11   690.69   699.76
                              741.79   788.21   801.07   855.65   931.05
                              946.26   985.91   995.46  1007.36  1030.08
                             1059.85  1069.46  1106.04  1127.45  1167.29
                             1192.16  1219.15  1274.17  1308.19  1360.26
                             1390.28  1406.19  1431.10  1444.46  1465.49
                             1489.20  1498.61  1519.31  1536.44  1550.25
                             1551.47  1571.71  1614.85  1655.98  1676.04
                             1717.38  1720.71  1780.38  1842.59  1854.37
                             1870.14  1917.82  1924.00  1936.89  1950.95
                             1972.73  2050.12  2073.02  2111.62  2122.36
                             2151.23  2153.94  2169.17  2180.70  2197.23
                             2264.09  2282.37  2326.78  2332.84  2369.99
                             2372.54  2432.95  4382.04  4436.57  4525.22
                             4542.38  4574.04  4634.95  4647.09  4660.17
                             4668.88  4676.13  4678.64  4699.38

 Zero-point correction=                           0.259908 (Hartree/Particle)
 Thermal correction to Energy=                    0.278422
 Thermal correction to Enthalpy=                  0.279366
 Thermal correction to Gibbs Free Energy=         0.211869
 Sum of electronic and zero-point Energies=          -1794.165071
 Sum of electronic and thermal Energies=             -1794.146558
 Sum of electronic and thermal Enthalpies=           -1794.145613
 Sum of electronic and thermal Free Energies=        -1794.213110

                     E (Thermal)             CV                S
                      KCal/Mol        Cal/Mol-Kelvin    Cal/Mol-Kelvin
 Total                  174.712             72.050            142.059
 Electronic               0.000              0.000              0.000
 Translational            0.889              2.981             43.384
 Rotational               0.889              2.981             35.111
 Vibrational            172.935             66.089             63.564
 Vibration     1          0.593              1.985              6.310
 Vibration     2          0.594              1.982              5.426
 Vibration     3          0.597              1.973              4.416
 Vibration     4          0.597              1.971              4.281
 Vibration     5          0.602              1.957              3.685
 Vibration     6          0.607              1.940              3.242
 Vibration     7          0.613              1.921              2.910
 Vibration     8          0.615              1.914              2.812
 Vibration     9          0.628              1.871              2.366
 Vibration    10          0.636              1.845              2.165
 Vibration    11          0.640              1.833              2.091
 Vibration    12          0.648              1.806              1.936
 Vibration    13          0.662              1.765              1.740
 Vibration    14          0.688              1.687              1.458
 Vibration    15          0.695              1.667              1.396
 Vibration    16          0.702              1.647              1.340
 Vibration    17          0.713              1.615              1.259
 Vibration    18          0.721              1.592              1.205
 Vibration    19          0.744              1.529              1.070
 Vibration    20          0.776              1.444              0.920
 Vibration    21          0.790              1.408              0.864
 Vibration    22          0.796              1.392              0.840
 Vibration    23          0.826              1.318              0.740
 Vibration    24          0.836              1.294              0.710
 Vibration    25          0.842              1.280              0.693
 Vibration    26          0.871              1.216              0.620
 Vibration    27          0.903              1.144              0.549
 Vibration    28          0.912              1.125              0.530
 Vibration    29          0.952              1.043              0.459

                           ! Non-Optimized Parameters !
 Normal termination of Gaussian 16 at Wed Mar  2 06:22:26 2022.

 ------------------------------------------
 #p b3lyp/6-31G(d) geom=allcheck guess=read
 ------------------------------------------

 Structure from the checkpoint file:  "48.n.pdb.xyz.mst.wat.chk"
 ------------
 48.n.pdb.xyz
 ------------
 Charge =  0 Multiplicity = 1

 SCF Done:  E(RB3LYP) =  -1794.40608235     A.U. after   12 cycles
 Normal termination of Gaussian 16 at Wed Mar  2 06:26:37 2022.
 Gaussian 16:  ES64L-G16RevA.03 25-Dec-2016

 ----------------------------------------------------------------------
 #p b3lyp/6-31G(d) scrf=(iefpcm,read,solvent=water) geom=allcheck guess
 =read
 ----------------------------------------------------------------------

 Structure from the checkpoint file:  "48.n.pdb.xyz.mst.wat.chk"
 ------------
 48.n.pdb.xyz
 ------------
 Charge =  0 Multiplicity = 1

                         Standard orientation:
 ---------------------------------------------------------------------
 Center     Atomic      Atomic             Coordinates (Angstroms)
 Number     Number       Type             X           Y           Z
 ---------------------------------------------------------------------
      1          6           0       -4.187529   -0.256210    1.763551
      2          6           0       -3.516403   -1.132581    0.763144
      3          7           0       -3.844306   -2.381585    0.519082
      4          7           0       -2.977183   -2.880052   -0.442450
      5          6           0       -2.148666   -1.916543   -0.751714
      6          6           0       -0.978985   -1.953569   -1.672007
      7          7           0        0.267069   -1.852899   -0.900021
      8          6           0        0.524552   -0.753587   -0.293109
      9          6           0       -0.335697    0.470550   -0.270573
     10          6           0        0.302385    1.716424   -0.371225
     11          6           0       -0.436248    2.891564   -0.364976
     12         17           0        0.396499    4.431288   -0.512866
     13          6           0       -1.824513    2.869845   -0.242078
     14          6           0       -2.469008    1.643354   -0.134570
     15          6           0       -1.741637    0.449470   -0.142911
     16          7           0       -2.434535   -0.783392   -0.023834
     17          6           0        1.808071   -0.677210    0.477507
     18          6           0        3.068002   -0.957842   -0.074395
     19         17           0        3.263812   -1.303039   -1.791122
     20          6           0        4.226364   -0.927067    0.702137
     21          6           0        4.140967   -0.618783    2.058897
     22          6           0        2.902772   -0.326580    2.631278
     23          6           0        1.756294   -0.347075    1.842117
     24          1           0       -4.843196    0.479131    1.288656
     25          1           0       -4.797386   -0.883015    2.414962
     26          1           0       -3.460355    0.285676    2.372665
     27          1           0       -0.985257   -2.901895   -2.208716
     28          1           0       -1.049218   -1.141736   -2.408001
     29          1           0        1.380220    1.756016   -0.458643
     30          1           0       -2.393929    3.790600   -0.240781
     31          1           0       -3.547439    1.613953   -0.056807
     32          1           0        5.183139   -1.138351    0.240208
     33          1           0        5.042998   -0.600448    2.660144
     34          1           0        2.829282   -0.081000    3.683958
     35          1           0        0.794211   -0.118640    2.284280
 ---------------------------------------------------------------------

 SCF Done:  E(RB3LYP) =  -1794.42303708     A.U. after   11 cycles

 The electronic state is 1-A.
 Alpha  occ. eigenvalues -- -101.56269-101.55467 -14.41993 -14.35411 -14.35249
 Alpha  occ. eigenvalues --  -14.34900 -10.27051 -10.26996 -10.26792 -10.26461
 Alpha  occ. eigenvalues --  -10.26402 -10.26389 -10.23633 -10.23456 -10.22467
 Alpha  occ. eigenvalues --  -10.22345 -10.22288 -10.22192 -10.20908 -10.20851
 Alpha  occ. eigenvalues --  -10.20636 -10.20244 -10.20027  -9.47892  -9.47084
 Alpha  occ. eigenvalues --   -7.24290  -7.23481  -7.23322  -7.23283  -7.22526
 Alpha  occ. eigenvalues --   -7.22468  -1.07487  -0.96202  -0.93979  -0.90559
 Alpha  occ. eigenvalues --   -0.89613  -0.85401  -0.84313  -0.84085  -0.79959
 Alpha  occ. eigenvalues --   -0.77224  -0.76185  -0.74549  -0.73765  -0.71631
 Alpha  occ. eigenvalues --   -0.67328  -0.65338  -0.63103  -0.61703  -0.60959
 Alpha  occ. eigenvalues --   -0.59469  -0.57132  -0.54083  -0.52329  -0.51075
 Alpha  occ. eigenvalues --   -0.50283  -0.49337  -0.48028  -0.47574  -0.47030
 Alpha  occ. eigenvalues --   -0.46569  -0.45776  -0.44859  -0.43751  -0.43604
 Alpha  occ. eigenvalues --   -0.42060  -0.41595  -0.41182  -0.40952  -0.40114
 Alpha  occ. eigenvalues --   -0.40047  -0.38843  -0.36970  -0.36806  -0.36119
 Alpha  occ. eigenvalues --   -0.34274  -0.33646  -0.32767  -0.32303  -0.31963
 Alpha  occ. eigenvalues --   -0.31365  -0.28549  -0.28202  -0.27706  -0.26023
 Alpha  occ. eigenvalues --   -0.25549  -0.25366  -0.25191
 Alpha virt. eigenvalues --   -0.06797  -0.04172  -0.03144  -0.01735   0.00582
 Alpha virt. eigenvalues --    0.01712   0.02494   0.02992   0.03362   0.09662
 Alpha virt. eigenvalues --    0.11071   0.12048   0.12388   0.12939   0.13671

 Mulliken charges:
               1
     1  C   -0.536047
     2  C    0.506922
     3  N   -0.418525
     4  N   -0.426921
     5  C    0.501064
     6  C   -0.244518
     7  N   -0.421686
     8  C    0.182787
     9  C    0.105542
    10  C   -0.191724
    11  C   -0.058603
    12  Cl  -0.016772
    13  C   -0.138552
    14  C   -0.143700
    15  C    0.265199
    16  N   -0.585023
    17  C    0.090586
    18  C   -0.111933
    19  Cl  -0.023376
    20  C   -0.143211
    21  C   -0.128300
    22  C   -0.141606
    23  C   -0.159713
    24  H    0.200902
    25  H    0.196205
    26  H    0.193854
    27  H    0.192709
    28  H    0.197127
    29  H    0.192526
    30  H    0.193155
    31  H    0.191796
    32  H    0.177223
    33  H    0.169332
    34  H    0.166549
    35  H    0.166731
 Sum of Mulliken charges =  -0.00000

 Dipole moment (field-independent basis, Debye):
    X=              1.2462    Y=              8.1667    Z=              3.0065  Tot=              8.7913
 Quadrupole moment (field-independent basis, Debye-Ang):
   XX=           -138.9597   YY=           -171.9303   ZZ=           -133.8900
   XY=            -27.3363   XZ=              7.0399   YZ=              0.7856

 Normal termination of Gaussian 16 at Wed Mar  2 06:31:18 2022.
