 Gaussian 16, Revision A.03,

 ----------------------------------------------------------------------
 #p b3lyp/6-31G(d) opt=(MaxStep=10,MaxCycles=1000) freq scf=(MaxCycle=2
 000,NoVarAcc,NoIncFock) scrf=(iefpcm,read,solvent=water)
 ----------------------------------------------------------------------

 ------------
 49.n.pdb.xyz
 ------------
 Symbolic Z-matrix:
 Charge =  0 Multiplicity = 1

 SCF Done:  E(RB3LYP) =  -1088.14438385     A.U. after   12 cycles
 SCF Done:  E(RB3LYP) =  -1088.14681411     A.U. after   10 cycles
 SCF Done:  E(RB3LYP) =  -1088.14299997     A.U. after   11 cycles
 SCF Done:  E(RB3LYP) =  -1088.14729879     A.U. after   10 cycles
 SCF Done:  E(RB3LYP) =  -1088.14741435     A.U. after    9 cycles
 SCF Done:  E(RB3LYP) =  -1088.14744407     A.U. after    9 cycles
 SCF Done:  E(RB3LYP) =  -1088.14752532     A.U. after    9 cycles
 SCF Done:  E(RB3LYP) =  -1088.14756879     A.U. after    9 cycles
 SCF Done:  E(RB3LYP) =  -1088.14759278     A.U. after    8 cycles
 SCF Done:  E(RB3LYP) =  -1088.14759311     A.U. after    7 cycles
 SCF Done:  E(RB3LYP) =  -1088.14758960     A.U. after    7 cycles
 SCF Done:  E(RB3LYP) =  -1088.14758946     A.U. after    6 cycles
 SCF Done:  E(RB3LYP) =  -1088.14758949     A.U. after    6 cycles
 Optimization completed.
    -- Stationary point found.
 Normal termination of Gaussian 16 at Wed Mar  2 05:45:46 2022.

 --------------------------------------------------------------------
 #P Geom=AllCheck Guess=TCheck SCRF=Check GenChk RB3LYP/6-31G(d) Freq
 --------------------------------------------------------------------

 Structure from the checkpoint file:  "49.n.pdb.xyz.mst.wat.chk"
 ------------
 49.n.pdb.xyz
 ------------
 Charge =  0 Multiplicity = 1

 SCF Done:  E(RB3LYP) =  -1088.14758949     A.U. after    1 cycles

  Exact polarizability: 307.094 -36.956 209.826   7.073  38.081 222.018
 Approx polarizability: 325.579 -43.477 232.438   5.184  48.283 264.211

                      1                      2                      3
                      A                      A                      A
 Frequencies --      9.7548                20.9945                25.2797
 Red. masses --     14.1891                 6.3260                 3.7631
 Frc consts  --      0.0008                 0.0016                 0.0014
 IR Inten    --      0.0153                 0.0701                 0.1987

                      4                      5                      6
                      A                      A                      A
 Frequencies --     35.9976                47.1531                55.8304
 Red. masses --      3.8508                 3.9291                 5.2193
 Frc consts  --      0.0029                 0.0051                 0.0096
 IR Inten    --      0.9487                 0.0027                 0.0628

                      7                      8                      9
                      A                      A                      A
 Frequencies --     83.6871                86.3340               106.1983
 Red. masses --      2.1163                 4.2668                 3.2098
 Frc consts  --      0.0087                 0.0187                 0.0213
 IR Inten    --      3.3604                 2.3360                 0.2194

                     10                     11                     12
                      A                      A                      A
 Frequencies --    138.8799               143.3866               179.0909
 Red. masses --      3.7551                 4.9665                 6.4107
 Frc consts  --      0.0427                 0.0602                 0.1211
 IR Inten    --      1.5689                 2.2279                 1.5071

                     13                     14                     15
                      A                      A                      A
 Frequencies --    194.3870               221.8320               242.5754
 Red. masses --      2.9086                 6.5939                 1.1879
 Frc consts  --      0.0648                 0.1912                 0.0412
 IR Inten    --      0.5115                 0.2405                 2.2043

                     16                     17                     18
                      A                      A                      A
 Frequencies --    252.9431               269.1038               292.9746
 Red. masses --      4.1308                 4.3197                 6.2673
 Frc consts  --      0.1557                 0.1843                 0.3170
 IR Inten    --      0.3303                 2.4977                 6.3356

                     19                     20                     21
                      A                      A                      A
 Frequencies --    358.3347               393.7827               401.9638
 Red. masses --      7.5585                 6.6373                 4.1647
 Frc consts  --      0.5718                 0.6064                 0.3965
 IR Inten    --      4.4629                 1.5471                 5.2030

                     22                     23                     24
                      A                      A                      A
 Frequencies --    410.4119               416.7517               424.5686
 Red. masses --      6.1161                 3.0007                 3.2114
 Frc consts  --      0.6070                 0.3071                 0.3411
 IR Inten    --      4.0470                 0.5155                 0.0953

                     25                     26                     27
                      A                      A                      A
 Frequencies --    459.0891               509.8254               543.4446
 Red. masses --      4.1735                 4.7065                 5.2419
 Frc consts  --      0.5183                 0.7208                 0.9121
 IR Inten    --      1.8935                 1.6427                18.4350

                     28                     29                     30
                      A                      A                      A
 Frequencies --    562.7415               575.6724               591.2394
 Red. masses --      3.4967                 8.5335                 3.6443
 Frc consts  --      0.6524                 1.6662                 0.7506
 IR Inten    --     22.4339                 1.0617                 6.0581

                     31                     32                     33
                      A                      A                      A
 Frequencies --    599.2834               633.1965               649.8506
 Red. masses --      4.0399                 6.4098                 7.0285
 Frc consts  --      0.8548                 1.5142                 1.7488
 IR Inten    --      8.3759                 0.8267                12.0109

                     34                     35                     36
                      A                      A                      A
 Frequencies --    654.8737               714.8498               736.9127
 Red. masses --      6.2262                 1.8563                 4.9869
 Frc consts  --      1.5732                 0.5589                 1.5956
 IR Inten    --     50.5611                39.0869                 4.6530

                     37                     38                     39
                      A                      A                      A
 Frequencies --    753.1220               768.1090               789.4149
 Red. masses --      4.8018                 1.8140                 2.3437
 Frc consts  --      1.6047                 0.6306                 0.8605
 IR Inten    --     13.4058                13.9936                25.0642

                     40                     41                     42
                      A                      A                      A
 Frequencies --    827.6812               830.9468               850.2623
 Red. masses --      1.4299                 1.4094                 1.6172
 Frc consts  --      0.5771                 0.5734                 0.6888
 IR Inten    --     22.2056               101.2561               114.7296

                     43                     44                     45
                      A                      A                      A
 Frequencies --    854.3280               865.2149               872.8165
 Red. masses --      2.0074                 1.2523                 2.6559
 Frc consts  --      0.8633                 0.5523                 1.1921
 IR Inten    --     43.8384                 0.0097                13.8413

                     46                     47                     48
                      A                      A                      A
 Frequencies --    935.7483               962.8694               972.1863
 Red. masses --      1.4427                 1.2951                 1.3069
 Frc consts  --      0.7443                 0.7074                 0.7278
 IR Inten    --     12.7312                 3.6175                 0.5111

                     49                     50                     51
                      A                      A                      A
 Frequencies --    976.3678               979.7673              1007.3047
 Red. masses --      2.5200                 1.3592                 1.3641
 Frc consts  --      1.4154                 0.7688                 0.8155
 IR Inten    --     58.2662                 0.0837                24.2282

                     52                     53                     54
                      A                      A                      A
 Frequencies --   1014.2137              1018.3086              1021.0534
 Red. masses --      4.2618                 4.9310                 3.4249
 Frc consts  --      2.5829                 3.0126                 2.1038
 IR Inten    --    140.1402                84.1955                10.3625

                     55                     56                     57
                      A                      A                      A
 Frequencies --   1030.8169              1056.0862              1058.3400
 Red. masses --      2.0497                 2.5920                 2.0232
 Frc consts  --      1.2832                 1.7033                 1.3352
 IR Inten    --     37.1359                 8.3014                 4.1684

                     58                     59                     60
                      A                      A                      A
 Frequencies --   1083.4751              1093.3834              1114.8142
 Red. masses --      3.7470                 1.9594                 1.5687
 Frc consts  --      2.5916                 1.3801                 1.1486
 IR Inten    --    145.0486                11.6665                 8.7704

                     61                     62                     63
                      A                      A                      A
 Frequencies --   1128.3239              1132.6014              1145.3450
 Red. masses --     11.1238                 1.7738                 3.1741
 Frc consts  --      8.3439                 1.3406                 2.4533
 IR Inten    --    376.0440               152.1993                48.0013

                     64                     65                     66
                      A                      A                      A
 Frequencies --   1153.1825              1173.3847              1189.3653
 Red. masses --      1.4298                 3.0280                 1.5458
 Frc consts  --      1.1202                 2.4563                 1.2884
 IR Inten    --     49.8310               180.0102                 8.3125

                     67                     68                     69
                      A                      A                      A
 Frequencies --   1190.3249              1198.2745              1206.1694
 Red. masses --      1.2463                 1.1977                 1.1319
 Frc consts  --      1.0404                 1.0132                 0.9702
 IR Inten    --      3.6415               149.5081                 4.3808

                     70                     71                     72
                      A                      A                      A
 Frequencies --   1242.0968              1261.3824              1284.3442
 Red. masses --      2.1815                 1.5891                 4.4688
 Frc consts  --      1.9830                 1.4897                 4.3432
 IR Inten    --     95.5545                37.9447               608.3965

                     73                     74                     75
                      A                      A                      A
 Frequencies --   1310.3973              1314.6591              1332.9150
 Red. masses --      1.3606                 1.2365                 1.8033
 Frc consts  --      1.3766                 1.2592                 1.8877
 IR Inten    --      9.9011                12.7826               202.4165

                     76                     77                     78
                      A                      A                      A
 Frequencies --   1340.2217              1347.6787              1362.6647
 Red. masses --      2.7131                 1.8510                 2.2703
 Frc consts  --      2.8712                 1.9807                 2.4838
 IR Inten    --    292.2789                70.7191                 1.4093

                     79                     80                     81
                      A                      A                      A
 Frequencies --   1367.3767              1370.7743              1414.7263
 Red. masses --      3.4319                 1.5978                 1.5233
 Frc consts  --      3.7806                 1.7689                 1.7963
 IR Inten    --     57.3320                24.0723                17.4625

                     82                     83                     84
                      A                      A                      A
 Frequencies --   1429.7562              1464.3501              1472.7062
 Red. masses --      1.4372                 3.3258                 1.1835
 Frc consts  --      1.7310                 4.2018                 1.5123
 IR Inten    --     39.8187                 8.1315                 2.8020

                     85                     86                     87
                      A                      A                      A
 Frequencies --   1503.5262              1505.1399              1507.5551
 Red. masses --      1.7727                 1.1629                 1.1608
 Frc consts  --      2.3611                 1.5522                 1.5543
 IR Inten    --     10.3708                19.8500                 4.0525

                     88                     89                     90
                      A                      A                      A
 Frequencies --   1510.7031              1537.8445              1542.5962
 Red. masses --      1.1170                 1.0651                 1.1332
 Frc consts  --      1.5020                 1.4841                 1.5887
 IR Inten    --      6.2802                19.7736                 0.6885

                     91                     92                     93
                      A                      A                      A
 Frequencies --   1544.6719              1559.0442              1633.3746
 Red. masses --      2.0510                 2.7406                 6.9505
 Frc consts  --      2.8833                 3.9248                10.9254
 IR Inten    --      3.0860               112.0739                47.6540

                     94                     95                     96
                      A                      A                      A
 Frequencies --   1644.6865              1663.6450              1668.4146
 Red. masses --      5.5196                 5.6562                 5.9681
 Frc consts  --      8.7967                 9.2235                 9.7880
 IR Inten    --      0.6960                 1.0629               241.5849

                     97                     98                     99
                      A                      A                      A
 Frequencies --   2943.7147              2979.6304              3065.5594
 Red. masses --      1.0732                 1.0587                 1.0617
 Frc consts  --      5.4793                 5.5381                 5.8783
 IR Inten    --    137.7637               147.0398                24.5456

                    100                    101                    102
                      A                      A                      A
 Frequencies --   3075.8986              3080.5623              3084.7036
 Red. masses --      1.0844                 1.0846                 1.0758
 Frc consts  --      6.0448                 6.0643                 6.0311
 IR Inten    --     53.0302                47.9291                70.7295

                    103                    104                    105
                      A                      A                      A
 Frequencies --   3113.3217              3133.1361              3196.8904
 Red. masses --      1.1035                 1.1022                 1.0864
 Frc consts  --      6.3019                 6.3746                 6.5420
 IR Inten    --     85.9639                57.2973                 8.7267

                    106                    107                    108
                      A                      A                      A
 Frequencies --   3202.0824              3208.9568              3217.3557
 Red. masses --      1.0870                 1.0904                 1.0943
 Frc consts  --      6.5666                 6.6158                 6.6740
 IR Inten    --      1.7384                21.7854                63.2185

                    109                    110                    111
                      A                      A                      A
 Frequencies --   3225.5500              3226.8590              3227.8941
 Red. masses --      1.0882                 1.0979                 1.0895
 Frc consts  --      6.6706                 6.7353                 6.6883
 IR Inten    --     10.8797                28.6167                 4.5759

                    112                    113                    114
                      A                      A                      A
 Frequencies --   3239.9156              3254.1915              3491.2699
 Red. masses --      1.0949                 1.0923                 1.0743
 Frc consts  --      6.7716                 6.8153                 7.7154
 IR Inten    --     11.8771                10.1276                 1.9482

 - Thermochemistry -
 -------------------
 Temperature   298.150 Kelvin.  Pressure   1.00000 Atm.
 Atom     1 has atomic number  6 and mass  12.00000

 Molecular mass:   309.13405 amu.
 Principal axes and moments of inertia in atomic units:
                           1         2         3
     Eigenvalues --  4111.68534********************
           X            0.99993   0.01114   0.00330
           Y           -0.01117   0.99989   0.01019
           Z           -0.00319  -0.01023   0.99994
 This molecule is an asymmetric top.
 Rotational symmetry number  1.
 Warning -- assumption of classical behavior for rotation
           may cause significant error
 Rotational temperatures (Kelvin)      0.02107     0.00542     0.00464
 Rotational constants (GHZ):           0.43893     0.11293     0.09669
 Zero-point vibrational energy     845769.0 (Joules/Mol)
                                  202.14365 (Kcal/Mol)
 Warning -- explicit consideration of  31 degrees of freedom as
           vibrations may cause significant error
 Vibrational temperatures:     14.04    30.21    36.37    51.79    67.84
          (Kelvin)             80.33   120.41   124.22   152.80   199.82
                              206.30   257.67   279.68   319.17   349.01
                              363.93   387.18   421.53   515.56   566.57
                              578.34   590.49   599.61   610.86   660.53
                              733.52   781.90   809.66   828.26   850.66
                              862.24   911.03   934.99   942.22  1028.51
                             1060.25  1083.57  1105.14  1135.79  1190.85
                             1195.55  1223.34  1229.19  1244.85  1255.79
                             1346.33  1385.35  1398.76  1404.78  1409.67
                             1449.29  1459.23  1465.12  1469.07  1483.12
                             1519.47  1522.72  1558.88  1573.13  1603.97
                             1623.41  1629.56  1647.90  1659.17  1688.24
                             1711.23  1712.61  1724.05  1735.41  1787.10
                             1814.85  1847.88  1885.37  1891.50  1917.77
                             1928.28  1939.01  1960.57  1967.35  1972.24
                             2035.48  2057.10  2106.87  2118.90  2163.24
                             2165.56  2169.04  2173.56  2212.62  2219.45
                             2222.44  2243.12  2350.06  2366.34  2393.61
                             2400.48  4235.35  4287.02  4410.66  4425.53
                             4432.24  4438.20  4479.38  4507.88  4599.61
                             4607.08  4616.97  4629.06  4640.85  4642.73
                             4644.22  4661.52  4682.06  5023.16

 Zero-point correction=                           0.322136 (Hartree/Particle)
 Thermal correction to Energy=                    0.342677
 Thermal correction to Enthalpy=                  0.343621
 Thermal correction to Gibbs Free Energy=         0.268053
 Sum of electronic and zero-point Energies=          -1087.825453
 Sum of electronic and thermal Energies=             -1087.804913
 Sum of electronic and thermal Enthalpies=           -1087.803969
 Sum of electronic and thermal Free Energies=        -1087.879537

                     E (Thermal)             CV                S
                      KCal/Mol        Cal/Mol-Kelvin    Cal/Mol-Kelvin
 Total                  215.033             76.749            159.047
 Electronic               0.000              0.000              0.000
 Translational            0.889              2.981             43.082
 Rotational               0.889              2.981             35.460
 Vibrational            213.255             70.788             80.504
 Vibration     1          0.593              1.987              8.060
 Vibration     2          0.593              1.986              6.538
 Vibration     3          0.593              1.985              6.169
 Vibration     4          0.594              1.982              5.468
 Vibration     5          0.595              1.979              4.933
 Vibration     6          0.596              1.975              4.599
 Vibration     7          0.601              1.960              3.802
 Vibration     8          0.601              1.959              3.741
 Vibration     9          0.605              1.944              3.337
 Vibration    10          0.614              1.914              2.819
 Vibration    11          0.616              1.910              2.758
 Vibration    12          0.629              1.868              2.338
 Vibration    13          0.635              1.848              2.186
 Vibration    14          0.648              1.808              1.944
 Vibration    15          0.659              1.775              1.784
 Vibration    16          0.664              1.758              1.710
 Vibration    17          0.673              1.730              1.602
 Vibration    18          0.688              1.687              1.457
 Vibration    19          0.733              1.558              1.129
 Vibration    20          0.761              1.483              0.986
 Vibration    21          0.768              1.466              0.955
 Vibration    22          0.775              1.448              0.925
 Vibration    23          0.780              1.434              0.903
 Vibration    24          0.787              1.417              0.877
 Vibration    25          0.817              1.341              0.769
 Vibration    26          0.865              1.228              0.634
 Vibration    27          0.899              1.154              0.558
 Vibration    28          0.918              1.112              0.518
 Vibration    29          0.932              1.084              0.493
 Vibration    30          0.949              1.050              0.465
 Vibration    31          0.957              1.033              0.451

 Optimization completed.
    -- Stationary point found.
 Normal termination of Gaussian 16 at Wed Mar  2 06:37:33 2022.

 ------------------------------------------
 #p b3lyp/6-31G(d) geom=allcheck guess=read
 ------------------------------------------

 Structure from the checkpoint file:  "49.n.pdb.xyz.mst.wat.chk"
 ------------
 49.n.pdb.xyz
 ------------
 Charge =  0 Multiplicity = 1

 SCF Done:  E(RB3LYP) =  -1088.13978083     A.U. after   11 cycles
 Normal termination of Gaussian 16 at Wed Mar  2 06:41:05 2022.
 Gaussian 16:  ES64L-G16RevA.03 25-Dec-2016

 ----------------------------------------------------------------------
 #p b3lyp/6-31G(d) scrf=(iefpcm,read,solvent=water) geom=allcheck guess
 =read
 ----------------------------------------------------------------------

 Structure from the checkpoint file:  "49.n.pdb.xyz.mst.wat.chk"
 ------------
 49.n.pdb.xyz
 ------------
 Charge =  0 Multiplicity = 1

                         Standard orientation:
 ---------------------------------------------------------------------
 Center     Atomic      Atomic             Coordinates (Angstroms)
 Number     Number       Type             X           Y           Z
 ---------------------------------------------------------------------
      1          6           0        3.811875    4.330131   -0.016832
      2          7           0        2.862962    3.420358   -0.654615
      3          6           0        2.728156    2.165330    0.083200
      4          6           0        1.729523    1.236604   -0.607016
      5          6           0        1.515512   -0.087415    0.136885
      6          8           0        0.481680   -0.856669   -0.530611
      7          6           0       -0.829685   -0.579956   -0.303286
      8          6           0       -1.744265   -1.399161   -0.986919
      9          6           0       -3.108294   -1.217674   -0.817167
     10          6           0       -3.583804   -0.215861    0.037870
     11          6           0       -2.677100    0.598420    0.716255
     12          6           0       -1.304230    0.425244    0.551662
     13          6           0       -5.052960    0.015803    0.177310
     14          9           0       -5.529332    0.903867   -0.735178
     15          9           0       -5.378859    0.514361    1.392884
     16          9           0       -5.766677   -1.121213    0.003713
     17          6           0        2.745165   -0.969472    0.181547
     18          6           0        3.376744   -1.226761    1.402910
     19          6           0        4.523257   -2.023034    1.457860
     20          6           0        5.042975   -2.578578    0.288184
     21          6           0        4.413436   -2.332698   -0.935493
     22          6           0        3.274500   -1.530143   -0.989378
     23          1           0        3.827084    5.281072   -0.556271
     24          1           0        4.818176    3.899936   -0.061111
     25          1           0        3.586788    4.539307    1.042892
     26          1           0        1.951216    3.876455   -0.675426
     27          1           0        2.421784    2.325984    1.133767
     28          1           0        3.714873    1.689944    0.120184
     29          1           0        0.762892    1.746154   -0.688590
     30          1           0        2.067837    1.023808   -1.626171
     31          1           0        1.196504    0.108144    1.165217
     32          1           0       -1.361282   -2.175743   -1.638867
     33          1           0       -3.808324   -1.859258   -1.339465
     34          1           0       -3.040376    1.372221    1.382950
     35          1           0       -0.621723    1.072455    1.085692
     36          1           0        2.965790   -0.801670    2.313874
     37          1           0        5.003441   -2.212312    2.412380
     38          1           0        5.930766   -3.201274    0.328003
     39          1           0        4.810987   -2.765448   -1.847804
     40          1           0        2.788364   -1.346727   -1.942386
 ---------------------------------------------------------------------

 SCF Done:  E(RB3LYP) =  -1088.14649681     A.U. after   10 cycles

 The electronic state is 1-A.
 Alpha  occ. eigenvalues --  -24.72680 -24.72676 -24.72025 -19.18651 -14.31533
 Alpha  occ. eigenvalues --  -10.43273 -10.26396 -10.25519 -10.20849 -10.20794
 Alpha  occ. eigenvalues --  -10.20702 -10.20595 -10.20136 -10.19944 -10.19680
 Alpha  occ. eigenvalues --  -10.19615 -10.19464 -10.19397 -10.19363 -10.19336
 Alpha  occ. eigenvalues --  -10.19295 -10.18698  -1.30151  -1.21685  -1.21065
 Alpha  occ. eigenvalues --   -1.07167  -0.89798  -0.87276  -0.86012  -0.80612
 Alpha  occ. eigenvalues --   -0.77349  -0.76168  -0.74855  -0.74531  -0.70367
 Alpha  occ. eigenvalues --   -0.68020  -0.64512  -0.63073  -0.61882  -0.61019
 Alpha  occ. eigenvalues --   -0.60448  -0.58169  -0.57997  -0.57330  -0.56430
 Alpha  occ. eigenvalues --   -0.53551  -0.52055  -0.48629  -0.48507  -0.46916
 Alpha  occ. eigenvalues --   -0.46480  -0.46075  -0.45603  -0.45488  -0.44672
 Alpha  occ. eigenvalues --   -0.44250  -0.43795  -0.43087  -0.42422  -0.42214
 Alpha  occ. eigenvalues --   -0.42084  -0.41537  -0.41088  -0.40529  -0.39924
 Alpha  occ. eigenvalues --   -0.38393  -0.37712  -0.36913  -0.36484  -0.36094
 Alpha  occ. eigenvalues --   -0.35825  -0.35142  -0.34734  -0.33740  -0.32774
 Alpha  occ. eigenvalues --   -0.32204  -0.26609  -0.25593  -0.25295  -0.23389
 Alpha  occ. eigenvalues --   -0.22499
 Alpha virt. eigenvalues --   -0.01672  -0.01513  -0.00990  -0.00571   0.08202
 Alpha virt. eigenvalues --    0.09624   0.10081   0.11127   0.12007   0.12131
 Alpha virt. eigenvalues --    0.13206   0.13628   0.14173   0.14789   0.15444

 Mulliken charges:
               1
     1  C   -0.305550
     2  N   -0.594770
     3  C   -0.120974
     4  C   -0.296235
     5  C    0.035151
     6  O   -0.552924
     7  C    0.394510
     8  C   -0.200604
     9  C   -0.173203
    10  C   -0.020371
    11  C   -0.184448
    12  C   -0.206741
    13  C    0.780459
    14  F   -0.275251
    15  F   -0.278328
    16  F   -0.278568
    17  C    0.148085
    18  C   -0.199718
    19  C   -0.148451
    20  C   -0.144286
    21  C   -0.150998
    22  C   -0.184078
    23  H    0.154159
    24  H    0.152532
    25  H    0.128444
    26  H    0.336009
    27  H    0.121733
    28  H    0.149413
    29  H    0.156193
    30  H    0.157048
    31  H    0.162902
    32  H    0.160935
    33  H    0.168890
    34  H    0.170152
    35  H    0.173297
    36  H    0.152470
    37  H    0.153354
    38  H    0.152614
    39  H    0.153353
    40  H    0.153797
 Sum of Mulliken charges =  -0.00000

 Dipole moment (field-independent basis, Debye):
    X=              4.0402    Y=              1.0314    Z=              1.6994  Tot=              4.5028
 Quadrupole moment (field-independent basis, Debye-Ang):
   XX=           -142.1802   YY=           -118.7989   ZZ=           -122.8730
   XY=             -3.0223   XZ=              6.5122   YZ=              7.4148

 Normal termination of Gaussian 16 at Wed Mar  2 06:45:20 2022.
