 Gaussian 16, Revision A.03,

 ----------------------------------------------------------------------
 #p b3lyp/6-31G(d) opt=(MaxStep=10,MaxCycles=1000) freq scf=(MaxCycle=2
 000,NoVarAcc,NoIncFock) scrf=(iefpcm,read,solvent=water)
 ----------------------------------------------------------------------

 -----------
 5.n.pdb.xyz
 -----------
 Symbolic Z-matrix:
 Charge =  0 Multiplicity = 1

 SCF Done:  E(RB3LYP) =  -1504.56337471     A.U. after   13 cycles
 SCF Done:  E(RB3LYP) =  -1504.56734385     A.U. after   10 cycles
 SCF Done:  E(RB3LYP) =  -1504.56957510     A.U. after   11 cycles
 SCF Done:  E(RB3LYP) =  -1504.56921043     A.U. after   10 cycles
 SCF Done:  E(RB3LYP) =  -1504.57082311     A.U. after   10 cycles
 SCF Done:  E(RB3LYP) =  -1504.57108944     A.U. after   10 cycles
 SCF Done:  E(RB3LYP) =  -1504.57108920     A.U. after   10 cycles
 SCF Done:  E(RB3LYP) =  -1504.57110632     A.U. after    9 cycles
 SCF Done:  E(RB3LYP) =  -1504.57110696     A.U. after    8 cycles
 SCF Done:  E(RB3LYP) =  -1504.57111497     A.U. after    9 cycles
 SCF Done:  E(RB3LYP) =  -1504.57114378     A.U. after    9 cycles
 SCF Done:  E(RB3LYP) =  -1504.57111495     A.U. after   10 cycles
 SCF Done:  E(RB3LYP) =  -1504.57112793     A.U. after   10 cycles
 SCF Done:  E(RB3LYP) =  -1504.57112621     A.U. after    8 cycles
 SCF Done:  E(RB3LYP) =  -1504.57112789     A.U. after    8 cycles
 SCF Done:  E(RB3LYP) =  -1504.57112798     A.U. after    7 cycles
 SCF Done:  E(RB3LYP) =  -1504.57112797     A.U. after    6 cycles
 Optimization completed.
    -- Stationary point found.
 Normal termination of Gaussian 16 at Tue Mar  1 23:24:42 2022.

 --------------------------------------------------------------------
 #P Geom=AllCheck Guess=TCheck SCRF=Check GenChk RB3LYP/6-31G(d) Freq
 --------------------------------------------------------------------

 Structure from the checkpoint file:  "5.n.pdb.xyz.mst.wat.chk"
 -----------
 5.n.pdb.xyz
 -----------
 Charge =  0 Multiplicity = 1

 SCF Done:  E(RB3LYP) =  -1504.57112797     A.U. after    1 cycles

  Exact polarizability: 421.785  -7.499 341.434  12.066 -16.289 170.106
 Approx polarizability: 448.901  -5.407 383.083  11.126 -20.257 197.390

                      1                      2                      3
                      A                      A                      A
 Frequencies --     13.9714                23.3037                26.7394
 Red. masses --     16.8239                 4.6716                 6.1531
 Frc consts  --      0.0019                 0.0015                 0.0026
 IR Inten    --      0.0593                 0.0068                 0.0371

                      4                      5                      6
                      A                      A                      A
 Frequencies --     35.5244                48.7579                74.7070
 Red. masses --      2.5828                 5.3083                 7.0720
 Frc consts  --      0.0019                 0.0074                 0.0233
 IR Inten    --      0.5954                 0.2981                 1.8646

                      7                      8                      9
                      A                      A                      A
 Frequencies --    102.1610               122.5336               125.0181
 Red. masses --      4.1457                 2.7191                 5.2257
 Frc consts  --      0.0255                 0.0241                 0.0481
 IR Inten    --      0.6904                 0.2573                 1.5948

                     10                     11                     12
                      A                      A                      A
 Frequencies --    137.7262               168.2103               195.7856
 Red. masses --      3.7258                 5.0012                 7.9602
 Frc consts  --      0.0416                 0.0834                 0.1798
 IR Inten    --      0.2909                 0.4629                 0.5850

                     13                     14                     15
                      A                      A                      A
 Frequencies --    219.7402               242.9395               253.7496
 Red. masses --      2.7890                 6.6357                 4.0129
 Frc consts  --      0.0793                 0.2307                 0.1522
 IR Inten    --      0.2683                 0.6993                 3.3633

                     16                     17                     18
                      A                      A                      A
 Frequencies --    255.2469               262.5659               275.5810
 Red. masses --      1.1377                 1.3639                 5.4506
 Frc consts  --      0.0437                 0.0554                 0.2439
 IR Inten    --      0.7802                 1.7412                 4.6938

                     19                     20                     21
                      A                      A                      A
 Frequencies --    312.4155               349.9486               358.8301
 Red. masses --      3.4904                 4.5231                 2.8686
 Frc consts  --      0.2007                 0.3264                 0.2176
 IR Inten    --      1.4769                 6.4043                 7.0369

                     22                     23                     24
                      A                      A                      A
 Frequencies --    361.7612               377.3903               388.6079
 Red. masses --      4.2428                 4.0060                 6.3009
 Frc consts  --      0.3271                 0.3362                 0.5606
 IR Inten    --      3.8208                 1.9876                 8.5685

                     25                     26                     27
                      A                      A                      A
 Frequencies --    424.3118               434.3284               438.8454
 Red. masses --      3.7486                 3.2732                 4.2151
 Frc consts  --      0.3976                 0.3638                 0.4783
 IR Inten    --      3.7113                 1.6700                 0.1064

                     28                     29                     30
                      A                      A                      A
 Frequencies --    458.6077               463.3775               485.0997
 Red. masses --      3.6046                 3.5314                 5.5926
 Frc consts  --      0.4467                 0.4468                 0.7754
 IR Inten    --      3.4765                 1.2289                12.2284

                     31                     32                     33
                      A                      A                      A
 Frequencies --    505.0581               525.7858               530.9123
 Red. masses --      3.7275                 7.5108                 7.5780
 Frc consts  --      0.5602                 1.2234                 1.2585
 IR Inten    --     12.1334                 2.4498                10.8990

                     34                     35                     36
                      A                      A                      A
 Frequencies --    553.5666               577.6417               623.4907
 Red. masses --      4.2365                 9.7181                 5.9158
 Frc consts  --      0.7649                 1.9105                 1.3550
 IR Inten    --      0.0811                 1.0006                 2.0809

                     37                     38                     39
                      A                      A                      A
 Frequencies --    648.6822               664.4766               688.2585
 Red. masses --      6.2186                 6.0835                 6.4638
 Frc consts  --      1.5417                 1.5826                 1.8040
 IR Inten    --     18.2399                15.8789                 1.6736

                     40                     41                     42
                      A                      A                      A
 Frequencies --    706.9661               727.8255               736.9236
 Red. masses --      7.0909                 5.2813                 4.5298
 Frc consts  --      2.0881                 1.6483                 1.4494
 IR Inten    --      5.9424                 1.7946                 2.8618

                     43                     44                     45
                      A                      A                      A
 Frequencies --    746.6759               766.0518               769.1763
 Red. masses --      5.3728                 1.1480                 1.2558
 Frc consts  --      1.7649                 0.3969                 0.4378
 IR Inten    --     20.3696                10.3830                90.7634

                     46                     47                     48
                      A                      A                      A
 Frequencies --    813.4638               833.2925               861.7215
 Red. masses --      4.8636                 1.3687                 3.8067
 Frc consts  --      1.8962                 0.5600                 1.6655
 IR Inten    --      2.1225                41.2019                31.9264

                     49                     50                     51
                      A                      A                      A
 Frequencies --    869.8050               881.0463               887.2751
 Red. masses --      1.3716                 1.5547                 1.4399
 Frc consts  --      0.6114                 0.7110                 0.6679
 IR Inten    --      3.0338                54.7207                44.2768

                     52                     53                     54
                      A                      A                      A
 Frequencies --    944.6007               954.5052               957.0957
 Red. masses --      1.3483                 1.3398                 2.9894
 Frc consts  --      0.7088                 0.7192                 1.6134
 IR Inten    --      3.6351                 2.7766                81.2338

                     55                     56                     57
                      A                      A                      A
 Frequencies --    987.4677              1015.5996              1054.8146
 Red. masses --      1.2512                 3.2021                 3.1366
 Frc consts  --      0.7188                 1.9459                 2.0562
 IR Inten    --      0.1367                12.7127                28.5415

                     58                     59                     60
                      A                      A                      A
 Frequencies --   1067.7839              1068.0837              1068.8289
 Red. masses --      1.6815                 4.8822                 6.0265
 Frc consts  --      1.1296                 3.2815                 4.0563
 IR Inten    --     21.3569                71.4663                12.1294

                     61                     62                     63
                      A                      A                      A
 Frequencies --   1078.3958              1082.6574              1107.2663
 Red. masses --      2.6485                 2.6422                 3.4104
 Frc consts  --      1.8147                 1.8248                 2.4636
 IR Inten    --     30.7187                16.8935                66.8512

                     64                     65                     66
                      A                      A                      A
 Frequencies --   1129.9086              1130.8351              1131.6201
 Red. masses --      2.5008                 1.4245                 1.7954
 Frc consts  --      1.8811                 1.0732                 1.3546
 IR Inten    --    105.3466                13.0976               115.5808

                     67                     68                     69
                      A                      A                      A
 Frequencies --   1135.3312              1158.4134              1167.8679
 Red. masses --      8.2915                 1.7455                 1.7630
 Frc consts  --      6.2969                 1.3801                 1.4168
 IR Inten    --    347.8310               137.2502                66.5188

                     70                     71                     72
                      A                      A                      A
 Frequencies --   1178.1791              1192.9744              1204.8439
 Red. masses --      2.7865                 1.5681                 1.2118
 Frc consts  --      2.2790                 1.3148                 1.0364
 IR Inten    --    143.1821                32.2634                13.8986

                     73                     74                     75
                      A                      A                      A
 Frequencies --   1215.1152              1253.9063              1278.0482
 Red. masses --      1.7451                 1.8104                 2.5619
 Frc consts  --      1.5181                 1.6771                 2.4655
 IR Inten    --     70.3359                74.0872               375.5424

                     76                     77                     78
                      A                      A                      A
 Frequencies --   1285.7999              1302.1582              1313.3895
 Red. masses --      1.6053                 2.1915                 1.5238
 Frc consts  --      1.5637                 2.1893                 1.5487
 IR Inten    --     17.8382                12.5511                37.9165

                     79                     80                     81
                      A                      A                      A
 Frequencies --   1328.8400              1334.1162              1339.7099
 Red. masses --      1.5860                 1.4715                 3.7713
 Frc consts  --      1.6500                 1.5431                 3.9881
 IR Inten    --      3.0523                37.7152               437.9462

                     82                     83                     84
                      A                      A                      A
 Frequencies --   1341.1274              1350.0615              1362.3712
 Red. masses --      6.0601                 1.1579                 9.9374
 Frc consts  --      6.4220                 1.2434                10.8671
 IR Inten    --     24.3735                83.8998                 4.0559

                     85                     86                     87
                      A                      A                      A
 Frequencies --   1393.0691              1410.5708              1433.2894
 Red. masses --      1.7893                 1.3564                 1.4400
 Frc consts  --      2.0459                 1.5901                 1.7429
 IR Inten    --    132.1726                19.6195               103.2204

                     88                     89                     90
                      A                      A                      A
 Frequencies --   1458.2485              1459.6296              1483.4567
 Red. masses --      2.6859                 1.3147                 1.1666
 Frc consts  --      3.3652                 1.6502                 1.5125
 IR Inten    --    412.7343                73.8310                 3.3206

                     91                     92                     93
                      A                      A                      A
 Frequencies --   1487.2833              1501.2301              1512.0709
 Red. masses --      2.2496                 1.0785                 1.0969
 Frc consts  --      2.9318                 1.4321                 1.4776
 IR Inten    --     62.0528                13.8984                12.1382

                     94                     95                     96
                      A                      A                      A
 Frequencies --   1517.7161              1520.0107              1521.1250
 Red. masses --      1.9105                 1.0702                 1.1565
 Frc consts  --      2.5929                 1.4569                 1.5766
 IR Inten    --    199.0365                 2.3337                49.2428

                     97                     98                     99
                      A                      A                      A
 Frequencies --   1530.0952              1532.0758              1545.0939
 Red. masses --      1.1387                 1.1565                 1.1019
 Frc consts  --      1.5707                 1.5994                 1.5499
 IR Inten    --     11.6946                28.6767                18.2963

                    100                    101                    102
                      A                      A                      A
 Frequencies --   1549.9078              1622.8531              1628.4351
 Red. masses --      2.0354                 6.0998                 5.7595
 Frc consts  --      2.8807                 9.4651                 8.9986
 IR Inten    --     10.1762                16.6991                40.5525

                    103                    104                    105
                      A                      A                      A
 Frequencies --   1643.7912              1656.8287              2931.1968
 Red. masses --      6.2669                 5.6862                 1.0718
 Frc consts  --      9.9770                 9.1965                 5.4259
 IR Inten    --      1.9399                82.8577               109.6495

                    106                    107                    108
                      A                      A                      A
 Frequencies --   2952.9863              2959.8655              3070.1887
 Red. masses --      1.0601                 1.0624                 1.0868
 Frc consts  --      5.4466                 5.4841                 6.0359
 IR Inten    --     64.5428               263.3846                40.3422

                    109                    110                    111
                      A                      A                      A
 Frequencies --   3084.9076              3087.4178              3094.1148
 Red. masses --      1.0602                 1.0708                 1.0613
 Frc consts  --      5.9445                 6.0139                 5.9864
 IR Inten    --      5.3729                63.4289                67.9168

                    112                    113                    114
                      A                      A                      A
 Frequencies --   3104.0484              3122.3297              3133.1812
 Red. masses --      1.0709                 1.1015                 1.1047
 Frc consts  --      6.0796                 6.3269                 6.3894
 IR Inten    --     67.2925                 5.9107                52.3071

                    115                    116                    117
                      A                      A                      A
 Frequencies --   3139.5031              3150.3424              3202.3782
 Red. masses --      1.1060                 1.1026                 1.0869
 Frc consts  --      6.4226                 6.4473                 6.5670
 IR Inten    --     80.5241                60.7379                 6.1503

                    118                    119                    120
                      A                      A                      A
 Frequencies --   3211.2312              3221.1371              3225.5814
 Red. masses --      1.0904                 1.0897                 1.0967
 Frc consts  --      6.6250                 6.6616                 6.7227
 IR Inten    --     20.0935                 8.5908                43.0898

                    121                    122                    123
                      A                      A                      A
 Frequencies --   3247.4140              3266.5040              3282.9996
 Red. masses --      1.0936                 1.0900                 1.0888
 Frc consts  --      6.7951                 6.8523                 6.9141
 IR Inten    --      8.2532                12.4127                 1.6699

 - Thermochemistry -
 -------------------
 Temperature   298.150 Kelvin.  Pressure   1.00000 Atm.
 Atom     1 has atomic number  6 and mass  12.00000

 Molecular mass:   352.12211 amu.
 Principal axes and moments of inertia in atomic units:
                           1         2         3
     Eigenvalues --  8877.98606********************
           X            0.98295   0.18380   0.00523
           Y           -0.18377   0.98296  -0.00469
           Z           -0.00600   0.00365   0.99998
 This molecule is an asymmetric top.
 Rotational symmetry number  1.
 Warning -- assumption of classical behavior for rotation
           may cause significant error
 Rotational temperatures (Kelvin)      0.00976     0.00862     0.00483
 Rotational constants (GHZ):           0.20328     0.17961     0.10061
 Zero-point vibrational energy     901815.1 (Joules/Mol)
                                  215.53898 (Kcal/Mol)
 Warning -- explicit consideration of  35 degrees of freedom as
           vibrations may cause significant error
 Vibrational temperatures:     20.10    33.53    38.47    51.11    70.15
          (Kelvin)            107.49   146.99   176.30   179.87   198.16
                              242.02   281.69   316.16   349.54   365.09
                              367.24   377.77   396.50   449.50   503.50
                              516.28   520.49   542.98   559.12   610.49
                              624.90   631.40   659.83   666.70   697.95
                              726.67   756.49   763.86   796.46   831.10
                              897.06   933.31   956.03   990.25  1017.17
                             1047.18  1060.27  1074.30  1102.18  1106.67
                             1170.39  1198.92  1239.82  1251.46  1267.63
                             1276.59  1359.07  1373.32  1377.05  1420.75
                             1461.22  1517.64  1536.30  1536.73  1537.81
                             1551.57  1557.70  1593.11  1625.69  1627.02
                             1628.15  1633.49  1666.70  1680.30  1695.14
                             1716.42  1733.50  1748.28  1804.09  1838.83
                             1849.98  1873.52  1889.67  1911.90  1919.50
                             1927.54  1929.58  1942.44  1960.15  2004.32
                             2029.50  2062.18  2098.09  2100.08  2134.36
                             2139.87  2159.94  2175.53  2183.65  2186.96
                             2188.56  2201.47  2204.32  2223.05  2229.97
                             2334.92  2342.95  2365.05  2383.81  4217.34
                             4248.69  4258.59  4417.32  4438.49  4442.11
                             4451.74  4466.03  4492.34  4507.95  4517.04
                             4532.64  4607.51  4620.25  4634.50  4640.89
                             4672.30  4699.77  4723.50

 Zero-point correction=                           0.343483 (Hartree/Particle)
 Thermal correction to Energy=                    0.365340
 Thermal correction to Enthalpy=                  0.366284
 Thermal correction to Gibbs Free Energy=         0.289751
 Sum of electronic and zero-point Energies=          -1504.227645
 Sum of electronic and thermal Energies=             -1504.205788
 Sum of electronic and thermal Enthalpies=           -1504.204844
 Sum of electronic and thermal Free Energies=        -1504.281377

                     E (Thermal)             CV                S
                      KCal/Mol        Cal/Mol-Kelvin    Cal/Mol-Kelvin
 Total                  229.254             84.162            161.077
 Electronic               0.000              0.000              0.000
 Translational            0.889              2.981             43.470
 Rotational               0.889              2.981             35.724
 Vibrational            227.477             78.200             81.883
 Vibration     1          0.593              1.986              7.347
 Vibration     2          0.593              1.985              6.331
 Vibration     3          0.593              1.984              6.058
 Vibration     4          0.594              1.982              5.494
 Vibration     5          0.595              1.978              4.867
 Vibration     6          0.599              1.966              4.025
 Vibration     7          0.604              1.947              3.413
 Vibration     8          0.610              1.930              3.060
 Vibration     9          0.610              1.928              3.021
 Vibration    10          0.614              1.916              2.835
 Vibration    11          0.625              1.882              2.455
 Vibration    12          0.636              1.846              2.172
 Vibration    13          0.647              1.811              1.961
 Vibration    14          0.659              1.774              1.781
 Vibration    15          0.665              1.756              1.704
 Vibration    16          0.666              1.754              1.694
 Vibration    17          0.670              1.741              1.645
 Vibration    18          0.677              1.719              1.561
 Vibration    19          0.701              1.650              1.350
 Vibration    20          0.727              1.575              1.166
 Vibration    21          0.734              1.557              1.127
 Vibration    22          0.736              1.551              1.115
 Vibration    23          0.748              1.518              1.050
 Vibration    24          0.757              1.495              1.005
 Vibration    25          0.786              1.417              0.877
 Vibration    26          0.795              1.395              0.845
 Vibration    27          0.799              1.385              0.830
 Vibration    28          0.817              1.342              0.770
 Vibration    29          0.821              1.331              0.756
 Vibration    30          0.841              1.283              0.696
 Vibration    31          0.860              1.239              0.646
 Vibration    32          0.881              1.193              0.597
 Vibration    33          0.886              1.182              0.585
 Vibration    34          0.909              1.132              0.537
 Vibration    35          0.934              1.080              0.490

                           ! Non-Optimized Parameters !
 Normal termination of Gaussian 16 at Wed Mar  2 00:35:04 2022.

 ------------------------------------------
 #p b3lyp/6-31G(d) geom=allcheck guess=read
 ------------------------------------------

 Structure from the checkpoint file:  "5.n.pdb.xyz.mst.wat.chk"
 -----------
 5.n.pdb.xyz
 -----------
 Charge =  0 Multiplicity = 1

 SCF Done:  E(RB3LYP) =  -1504.56807727     A.U. after   11 cycles
 Normal termination of Gaussian 16 at Wed Mar  2 00:38:51 2022.
 Gaussian 16:  ES64L-G16RevA.03 25-Dec-2016

 ----------------------------------------------------------------------
 #p b3lyp/6-31G(d) scrf=(iefpcm,read,solvent=water) geom=allcheck guess
 =read
 ----------------------------------------------------------------------

 Structure from the checkpoint file:  "5.n.pdb.xyz.mst.wat.chk"
 -----------
 5.n.pdb.xyz
 -----------
 Charge =  0 Multiplicity = 1

                         Standard orientation:
 ---------------------------------------------------------------------
 Center     Atomic      Atomic             Coordinates (Angstroms)
 Number     Number       Type             X           Y           Z
 ---------------------------------------------------------------------
      1          6           0        2.110464    4.521543    1.215115
      2          7           0        1.019668    4.489389    0.245804
      3          6           0        0.947181    5.759111   -0.468784
      4          6           0        1.146300    3.375449   -0.696264
      5          6           0        0.935331    2.005749   -0.044363
      6          6           0        0.935756    0.897738   -1.111536
      7          7           0        0.849677   -0.484763   -0.623355
      8          6           0       -0.418472   -1.008408   -0.309589
      9          6           0       -1.546087   -0.179156   -0.208414
     10          6           0       -2.807475   -0.707801    0.070985
     11          6           0       -2.984328   -2.071714    0.286842
     12          6           0       -1.873327   -2.906703    0.199216
     13          6           0       -0.616307   -2.394231   -0.119001
     14         16           0        0.704121   -3.538780   -0.431253
     15          6           0        2.091047   -2.513291    0.007232
     16          6           0        2.038542   -1.119462   -0.196461
     17          6           0        3.220973   -0.390757    0.020148
     18          6           0        4.398024   -1.022797    0.424690
     19          6           0        4.423635   -2.395910    0.654140
     20          6           0        3.257582   -3.134686    0.451290
     21          6           0       -3.971430    0.226457    0.211980
     22          9           0       -5.138792   -0.363275   -0.131038
     23          9           0       -3.836612    1.331931   -0.556000
     24          9           0       -4.123815    0.663929    1.487717
     25          1           0        3.102032    4.632710    0.737988
     26          1           0        2.121171    3.606097    1.811254
     27          1           0        1.964005    5.367128    1.892638
     28          1           0        0.804750    6.572805    0.248060
     29          1           0        1.858479    5.978766   -1.055011
     30          1           0        0.096274    5.748686   -1.156242
     31          1           0        2.127594    3.393290   -1.209464
     32          1           0        0.385649    3.520645   -1.472282
     33          1           0        1.717302    1.807934    0.692692
     34          1           0       -0.011685    2.015248    0.502577
     35          1           0        0.101897    1.047256   -1.801875
     36          1           0        1.846380    0.965270   -1.711759
     37          1           0       -1.457406    0.885903   -0.358179
     38          1           0       -3.964013   -2.476030    0.507512
     39          1           0       -1.983017   -3.975164    0.348217
     40          1           0        3.231778    0.679635   -0.126962
     41          1           0        5.291936   -0.424197    0.571249
     42          1           0        5.331961   -2.890203    0.981583
     43          1           0        3.252088   -4.207731    0.611451
 ---------------------------------------------------------------------

 SCF Done:  E(RB3LYP) =  -1504.56989415     A.U. after   10 cycles

 The electronic state is 1-A.
 Alpha  occ. eigenvalues --  -88.90100 -24.73023 -24.72953 -24.72386 -14.38146
 Alpha  occ. eigenvalues --  -14.32723 -10.43638 -10.25425 -10.24748 -10.23627
 Alpha  occ. eigenvalues --  -10.22883 -10.22804 -10.21740 -10.20872 -10.20769
 Alpha  occ. eigenvalues --  -10.20706 -10.20360 -10.20029 -10.19774 -10.19773
 Alpha  occ. eigenvalues --  -10.19636 -10.19549 -10.19155 -10.18745  -7.96178
 Alpha  occ. eigenvalues --   -5.92678  -5.92316  -5.91685  -1.30518  -1.22010
 Alpha  occ. eigenvalues --   -1.21454  -0.97790  -0.91997  -0.87900  -0.86580
 Alpha  occ. eigenvalues --   -0.82261  -0.78592  -0.77633  -0.77206  -0.74087
 Alpha  occ. eigenvalues --   -0.71986  -0.70171  -0.70010  -0.67497  -0.64216
 Alpha  occ. eigenvalues --   -0.63684  -0.61790  -0.60203  -0.59389  -0.58354
 Alpha  occ. eigenvalues --   -0.58201  -0.57787  -0.56144  -0.52679  -0.50861
 Alpha  occ. eigenvalues --   -0.49173  -0.48684  -0.47744  -0.47545  -0.46351
 Alpha  occ. eigenvalues --   -0.46037  -0.45860  -0.45690  -0.45121  -0.44721
 Alpha  occ. eigenvalues --   -0.44018  -0.43147  -0.42863  -0.42289  -0.41737
 Alpha  occ. eigenvalues --   -0.41360  -0.40244  -0.39547  -0.38990  -0.38655
 Alpha  occ. eigenvalues --   -0.38575  -0.37882  -0.37834  -0.36837  -0.36560
 Alpha  occ. eigenvalues --   -0.35972  -0.35168  -0.35103  -0.33851  -0.33392
 Alpha  occ. eigenvalues --   -0.31836  -0.30934  -0.26767  -0.26603  -0.23536
 Alpha  occ. eigenvalues --   -0.21848  -0.19143
 Alpha virt. eigenvalues --   -0.03569  -0.02106  -0.01082   0.00883   0.02871
 Alpha virt. eigenvalues --    0.06436   0.08380   0.10342   0.11099   0.11835
 Alpha virt. eigenvalues --    0.12321   0.12524   0.12919   0.13912   0.14114

 Mulliken charges:
               1
     1  C   -0.313396
     2  N   -0.405788
     3  C   -0.303949
     4  C   -0.115848
     5  C   -0.299135
     6  C   -0.177141
     7  N   -0.605715
     8  C    0.338915
     9  C   -0.220338
    10  C   -0.021614
    11  C   -0.166767
    12  C   -0.194835
    13  C   -0.120930
    14  S    0.153166
    15  C   -0.136983
    16  C    0.330848
    17  C   -0.186491
    18  C   -0.164849
    19  C   -0.139654
    20  C   -0.192397
    21  C    0.783089
    22  F   -0.275920
    23  F   -0.275365
    24  F   -0.270799
    25  H    0.125914
    26  H    0.162082
    27  H    0.158009
    28  H    0.155949
    29  H    0.125761
    30  H    0.157202
    31  H    0.122466
    32  H    0.151031
    33  H    0.163106
    34  H    0.159334
    35  H    0.178954
    36  H    0.179518
    37  H    0.167945
    38  H    0.168705
    39  H    0.171733
    40  H    0.160923
    41  H    0.156476
    42  H    0.153616
    43  H    0.163173
 Sum of Mulliken charges =  -0.00000

 Dipole moment (field-independent basis, Debye):
    X=              3.9487    Y=              1.4248    Z=             -0.6433  Tot=              4.2469
 Quadrupole moment (field-independent basis, Debye-Ang):
   XX=           -143.8943   YY=           -136.8165   ZZ=           -148.8994
   XY=              9.9042   XZ=              3.2387   YZ=             -6.6301

 Normal termination of Gaussian 16 at Wed Mar  2 00:43:09 2022.
