 Gaussian 16, Revision A.03,

 ----------------------------------------------------------------------
 #p b3lyp/6-31G(d) opt=(MaxStep=10,MaxCycles=1000) freq scf=(MaxCycle=2
 000,NoVarAcc,NoIncFock) scrf=(iefpcm,read,solvent=water)
 ----------------------------------------------------------------------

 ------------
 50.n.pdb.xyz
 ------------
 Symbolic Z-matrix:
 Charge =  0 Multiplicity = 1

 SCF Done:  E(RB3LYP) =  -1017.85798030     A.U. after   12 cycles
 SCF Done:  E(RB3LYP) =  -1017.86137698     A.U. after   10 cycles
 SCF Done:  E(RB3LYP) =  -1017.86120406     A.U. after   10 cycles
 SCF Done:  E(RB3LYP) =  -1017.86285133     A.U. after    9 cycles
 SCF Done:  E(RB3LYP) =  -1017.86276171     A.U. after   10 cycles
 SCF Done:  E(RB3LYP) =  -1017.86287843     A.U. after    9 cycles
 SCF Done:  E(RB3LYP) =  -1017.86289903     A.U. after    9 cycles
 SCF Done:  E(RB3LYP) =  -1017.86288795     A.U. after    8 cycles
 SCF Done:  E(RB3LYP) =  -1017.86288186     A.U. after    8 cycles
 SCF Done:  E(RB3LYP) =  -1017.86288778     A.U. after    8 cycles
 Optimization completed.
    -- Stationary point found.
 Normal termination of Gaussian 16 at Tue Mar  1 06:04:12 2022.

 --------------------------------------------------------------------
 #P Geom=AllCheck Guess=TCheck SCRF=Check GenChk RB3LYP/6-31G(d) Freq
 --------------------------------------------------------------------

 Structure from the checkpoint file:  "50.n.pdb.xyz.mst.wat.chk"
 ------------
 50.n.pdb.xyz
 ------------
 Charge =  0 Multiplicity = 1

 SCF Done:  E(RB3LYP) =  -1017.86288778     A.U. after    1 cycles

  Exact polarizability: 416.297  -7.644 293.781  19.299  49.786 212.540
 Approx polarizability: 426.621 -13.345 336.705  21.143  63.827 236.147

 ******    1 imaginary frequencies (negative Signs) ******

                      1                      2                      3
                      A                      A                      A
 Frequencies --   -151.0876                 5.4681                15.3445
 Red. masses --      2.2459                 5.0705                 4.2280
 Frc consts  --      0.0302                 0.0001                 0.0006
 IR Inten    --     68.3119                 0.0933                 0.8214

                      4                      5                      6
                      A                      A                      A
 Frequencies --     27.4536                31.0029                42.9476
 Red. masses --      4.1140                 3.9309                 3.1983
 Frc consts  --      0.0018                 0.0022                 0.0035
 IR Inten    --      1.7424                 1.4128                 0.1425

                      7                      8                      9
                      A                      A                      A
 Frequencies --     45.1315                52.4713                89.1048
 Red. masses --      4.2885                 3.5091                 3.7074
 Frc consts  --      0.0051                 0.0057                 0.0173
 IR Inten    --      0.3406                 0.6017                 0.8016

                     10                     11                     12
                      A                      A                      A
 Frequencies --    117.1081               121.5596               143.0554
 Red. masses --      3.0984                 3.6524                 2.1954
 Frc consts  --      0.0250                 0.0318                 0.0265
 IR Inten    --      6.1211                 2.1373                 0.3753

                     13                     14                     15
                      A                      A                      A
 Frequencies --    154.6694               186.7127               187.2560
 Red. masses --      4.2773                 3.0703                 2.8031
 Frc consts  --      0.0603                 0.0631                 0.0579
 IR Inten    --      0.0889                 5.4140                 1.0683

                     16                     17                     18
                      A                      A                      A
 Frequencies --    219.4363               235.4550               245.9458
 Red. masses --      4.0744                 4.6039                 4.9524
 Frc consts  --      0.1156                 0.1504                 0.1765
 IR Inten    --      0.2424                 1.4987                 2.0292

                     19                     20                     21
                      A                      A                      A
 Frequencies --    264.2752               301.6446               323.8403
 Red. masses --      1.9418                 1.2003                 3.8908
 Frc consts  --      0.0799                 0.0643                 0.2404
 IR Inten    --      1.7007                87.1166                 6.6001

                     22                     23                     24
                      A                      A                      A
 Frequencies --    360.0541               361.2079               399.7316
 Red. masses --      2.0270                 2.2372                 3.9545
 Frc consts  --      0.1548                 0.1720                 0.3723
 IR Inten    --      6.8681                 3.9027                 0.8278

                     25                     26                     27
                      A                      A                      A
 Frequencies --    423.3410               448.2316               458.0091
 Red. masses --      3.6784                 3.9044                 3.6570
 Frc consts  --      0.3884                 0.4622                 0.4520
 IR Inten    --     11.9293                 1.0216                 6.2656

                     28                     29                     30
                      A                      A                      A
 Frequencies --    480.1434               490.8009               526.9205
 Red. masses --      2.8647                 4.3594                 2.7187
 Frc consts  --      0.3891                 0.6187                 0.4447
 IR Inten    --      3.3589                 3.8862                 3.6132

                     31                     32                     33
                      A                      A                      A
 Frequencies --    541.2165               565.2974               573.1779
 Red. masses --      4.0246                 1.7646                 3.9905
 Frc consts  --      0.6946                 0.3322                 0.7724
 IR Inten    --      5.2463                 0.7054                 3.8390

                     34                     35                     36
                      A                      A                      A
 Frequencies --    601.1627               628.9210               649.0979
 Red. masses --      7.4498                 6.2797                 5.1566
 Frc consts  --      1.5863                 1.4635                 1.2801
 IR Inten    --      1.2498                11.3082                 0.3922

                     37                     38                     39
                      A                      A                      A
 Frequencies --    651.8648               707.5959               751.5260
 Red. masses --      5.2131                 2.6214                 1.9777
 Frc consts  --      1.3052                 0.7733                 0.6581
 IR Inten    --      4.8406                 9.4386                 4.3437

                     40                     41                     42
                      A                      A                      A
 Frequencies --    770.7024               779.3296               780.9947
 Red. masses --      1.6788                 1.5436                 3.3422
 Frc consts  --      0.5875                 0.5524                 1.2011
 IR Inten    --     10.7126                86.5813                13.2239

                     43                     44                     45
                      A                      A                      A
 Frequencies --    782.6912               787.9977               805.6361
 Red. masses --      1.9149                 1.3890                 1.7952
 Frc consts  --      0.6912                 0.5082                 0.6865
 IR Inten    --     11.5735                13.5460                47.5898

                     46                     47                     48
                      A                      A                      A
 Frequencies --    854.3180               854.9103               871.6722
 Red. masses --      1.4446                 2.7854                 4.9447
 Frc consts  --      0.6212                 1.1995                 2.2136
 IR Inten    --      5.3285                10.2746                 5.4648

                     49                     50                     51
                      A                      A                      A
 Frequencies --    874.1131               889.7995               896.3199
 Red. masses --      1.5328                 1.3804                 1.3909
 Frc consts  --      0.6901                 0.6439                 0.6584
 IR Inten    --      5.3395                15.9484                17.1611

                     52                     53                     54
                      A                      A                      A
 Frequencies --    901.0306               908.9444               932.2630
 Red. masses --      2.2929                 1.2021                 3.3007
 Frc consts  --      1.0967                 0.5852                 1.6902
 IR Inten    --      4.5826                 0.9873                19.3240

                     55                     56                     57
                      A                      A                      A
 Frequencies --    976.6105               979.5740               986.2458
 Red. masses --      1.3610                 1.2576                 1.4386
 Frc consts  --      0.7648                 0.7110                 0.8244
 IR Inten    --      0.3164                 1.8271                 0.8139

                     58                     59                     60
                      A                      A                      A
 Frequencies --    994.4940              1003.0196              1006.7802
 Red. masses --      6.7116                 1.2738                 2.3190
 Frc consts  --      3.9109                 0.7550                 1.3849
 IR Inten    --     25.4553                 0.0008                26.5983

                     61                     62                     63
                      A                      A                      A
 Frequencies --   1010.5385              1014.8048              1047.3402
 Red. masses --      5.3445                 2.0924                 2.0492
 Frc consts  --      3.2156                 1.2696                 1.3244
 IR Inten    --      1.7494                 8.8472                24.1794

                     64                     65                     66
                      A                      A                      A
 Frequencies --   1062.6687              1073.4783              1077.2344
 Red. masses --      3.0965                 2.4376                 2.5780
 Frc consts  --      2.0602                 1.6550                 1.7626
 IR Inten    --     73.7395                46.2131                95.9909

                     67                     68                     69
                      A                      A                      A
 Frequencies --   1091.8411              1097.3131              1110.9937
 Red. masses --      1.7222                 3.3009                 1.9750
 Frc consts  --      1.2096                 2.3418                 1.4363
 IR Inten    --      0.9755                 0.9919                28.9336

                     70                     71                     72
                      A                      A                      A
 Frequencies --   1117.8920              1128.1647              1136.7912
 Red. masses --      1.7914                 1.6250                 3.0675
 Frc consts  --      1.3190                 1.2185                 2.3356
 IR Inten    --      3.0725                12.2430                23.9468

                     73                     74                     75
                      A                      A                      A
 Frequencies --   1164.3288              1170.1384              1174.7268
 Red. masses --      1.9977                 2.8835                 1.6730
 Frc consts  --      1.5956                 2.3262                 1.3603
 IR Inten    --     33.4952                21.7346                 7.8701

                     76                     77                     78
                      A                      A                      A
 Frequencies --   1180.0522              1181.6348              1206.3979
 Red. masses --      1.1136                 1.7241                 1.2468
 Frc consts  --      0.9136                 1.4183                 1.0692
 IR Inten    --     34.2110                82.2668                 4.9815

                     79                     80                     81
                      A                      A                      A
 Frequencies --   1219.4162              1233.8539              1242.4653
 Red. masses --      1.4308                 1.3865                 1.1696
 Frc consts  --      1.2535                 1.2436                 1.0638
 IR Inten    --     10.6616                10.1453                 1.2260

                     82                     83                     84
                      A                      A                      A
 Frequencies --   1266.8194              1275.8472              1286.2261
 Red. masses --      1.2185                 1.6676                 2.3217
 Frc consts  --      1.1522                 1.5993                 2.2630
 IR Inten    --     13.6079                 6.0342               112.5154

                     85                     86                     87
                      A                      A                      A
 Frequencies --   1295.4797              1304.8190              1318.4917
 Red. masses --      1.3504                 1.8108                 1.1749
 Frc consts  --      1.3353                 1.8165                 1.2034
 IR Inten    --     78.4200               305.9398                 0.6786

                     88                     89                     90
                      A                      A                      A
 Frequencies --   1324.8054              1329.4032              1334.2853
 Red. masses --      1.6708                 1.1153                 1.3796
 Frc consts  --      1.7278                 1.1613                 1.4471
 IR Inten    --      7.4667                 2.0995                 8.7867

                     91                     92                     93
                      A                      A                      A
 Frequencies --   1338.3063              1342.3327              1358.6965
 Red. masses --      2.1986                 1.3486                 1.3740
 Frc consts  --      2.3201                 1.4317                 1.4945
 IR Inten    --     45.7796                17.8686                 2.0962

                     94                     95                     96
                      A                      A                      A
 Frequencies --   1366.3456              1369.3956              1374.3457
 Red. masses --      3.2186                 2.0136                 1.4305
 Frc consts  --      3.5403                 2.2248                 1.5920
 IR Inten    --     72.5083                90.0987                 5.3744

                     97                     98                     99
                      A                      A                      A
 Frequencies --   1390.8929              1400.1359              1413.1903
 Red. masses --      1.4189                 1.3360                 1.4498
 Frc consts  --      1.6173                 1.5431                 1.7059
 IR Inten    --     56.9941                38.9827                 2.6106

                    100                    101                    102
                      A                      A                      A
 Frequencies --   1415.2100              1429.8284              1448.0089
 Red. masses --      1.4195                 1.4461                 1.5579
 Frc consts  --      1.6750                 1.7419                 1.9246
 IR Inten    --     18.5396                 8.9667               117.6178

                    103                    104                    105
                      A                      A                      A
 Frequencies --   1484.2088              1492.7934              1495.7580
 Red. masses --      2.1911                 1.9002                 2.6050
 Frc consts  --      2.8439                 2.4948                 3.4339
 IR Inten    --    192.4147                94.2628                71.2904

                    106                    107                    108
                      A                      A                      A
 Frequencies --   1501.4873              1503.8319              1510.6662
 Red. masses --      1.0808                 1.1286                 1.0866
 Frc consts  --      1.4356                 1.5038                 1.4610
 IR Inten    --      1.3949                 2.6362                 4.1076

                    109                    110                    111
                      A                      A                      A
 Frequencies --   1517.0046              1519.9015              1526.3416
 Red. masses --      1.1168                 1.1064                 1.0885
 Frc consts  --      1.5143                 1.5058                 1.4941
 IR Inten    --      3.1670                 4.6990                 2.9848

                    112                    113                    114
                      A                      A                      A
 Frequencies --   1531.2206              1544.4696              1545.4431
 Red. masses --      2.0459                 1.1241                 1.1403
 Frc consts  --      2.8262                 1.5798                 1.6047
 IR Inten    --    130.3428                19.6567                20.8212

                    115                    116                    117
                      A                      A                      A
 Frequencies --   1553.6563              1567.9771              1618.8077
 Red. masses --      1.1366                 2.4369                 4.6306
 Frc consts  --      1.6165                 3.5299                 7.1495
 IR Inten    --     50.8504               398.6361               117.3653

                    118                    119                    120
                      A                      A                      A
 Frequencies --   1638.7740              1655.5129              1664.5107
 Red. masses --      5.5743                 5.2932                 6.1573
 Frc consts  --      8.8203                 8.5473                10.0510
 IR Inten    --    111.7091               467.5069                97.1353

                    121                    122                    123
                      A                      A                      A
 Frequencies --   2939.2199              2943.3715              3015.0777
 Red. masses --      1.0737                 1.0720                 1.0575
 Frc consts  --      5.4652                 5.4720                 5.6640
 IR Inten    --    192.2152                91.3910                73.5002

                    124                    125                    126
                      A                      A                      A
 Frequencies --   3028.6851              3038.4038              3040.0071
 Red. masses --      1.0716                 1.1045                 1.0555
 Frc consts  --      5.7913                 6.0079                 5.7474
 IR Inten    --     75.3955                61.1249                51.6615

                    127                    128                    129
                      A                      A                      A
 Frequencies --   3053.3375              3056.3566              3064.8657
 Red. masses --      1.0614                 1.0643                 1.0662
 Frc consts  --      5.8303                 5.8574                 5.9010
 IR Inten    --     21.1662                83.9558                68.9493

                    130                    131                    132
                      A                      A                      A
 Frequencies --   3069.7751              3070.3504              3078.0126
 Red. masses --      1.0878                 1.0588                 1.0869
 Frc consts  --      6.0394                 5.8807                 6.0670
 IR Inten    --     42.9776                49.1336                80.4179

                    133                    134                    135
                      A                      A                      A
 Frequencies --   3078.9663              3087.7207              3102.1610
 Red. masses --      1.1075                 1.1003                 1.1005
 Frc consts  --      6.1860                 6.1807                 6.2396
 IR Inten    --     34.8908                39.1822                69.7722

                    136                    137                    138
                      A                      A                      A
 Frequencies --   3107.0542              3111.1155              3117.7796
 Red. masses --      1.0930                 1.1037                 1.1066
 Frc consts  --      6.2171                 6.2941                 6.3378
 IR Inten    --     88.1079               131.2292                88.3521

                    139                    140                    141
                      A                      A                      A
 Frequencies --   3172.0609              3201.8320              3202.0895
 Red. masses --      1.0893                 1.0888                 1.0875
 Frc consts  --      6.4575                 6.5763                 6.5700
 IR Inten    --     64.6512                21.7140                24.6833

                    142                    143                    144
                      A                      A                      A
 Frequencies --   3205.9883              3223.4346              3232.2178
 Red. masses --      1.0901                 1.0926                 1.0926
 Frc consts  --      6.6016                 6.6890                 6.7253
 IR Inten    --     11.3494                28.2041                39.2586

                    145                    146                    147
                      A                      A                      A
 Frequencies --   3236.9786              3244.1121              3601.2486
 Red. masses --      1.0953                 1.0919                 1.0778
 Frc consts  --      6.7619                 6.7707                 8.2356
 IR Inten    --      8.1535                14.7347               129.4618

 - Thermochemistry -
 -------------------
 Temperature   298.150 Kelvin.  Pressure   1.00000 Atm.
 Atom     1 has atomic number  6 and mass  12.00000

 Molecular mass:   325.21541 amu.
 Principal axes and moments of inertia in atomic units:
                           1         2         3
     Eigenvalues --  2284.01836********************
           X            0.99998   0.00627   0.00004
           Y           -0.00627   0.99989   0.01377
           Z            0.00004  -0.01377   0.99991
 This molecule is an asymmetric top.
 Rotational symmetry number  1.
 Warning -- assumption of classical behavior for rotation
           may cause significant error
 Rotational temperatures (Kelvin)      0.03792     0.00242     0.00235
 Rotational constants (GHZ):           0.79016     0.05035     0.04887
    1 imaginary frequencies ignored.
 Zero-point vibrational energy    1168662.8 (Joules/Mol)
                                  279.31711 (Kcal/Mol)
 Warning -- explicit consideration of  33 degrees of freedom as
           vibrations may cause significant error
 Vibrational temperatures:      7.87    22.08    39.50    44.61    61.79
          (Kelvin)             64.93    75.49   128.20   168.49   174.90
                              205.82   222.53   268.64   269.42   315.72
                              338.77   353.86   380.23   434.00   465.93
                              518.04   519.70   575.12   609.09   644.91
                              658.97   690.82   706.15   758.12   778.69
                              813.34   824.68   864.94   904.88   933.91
                              937.89  1018.07  1081.28  1108.87  1121.28
                             1123.68  1126.12  1133.75  1159.13  1229.17
                             1230.03  1254.14  1257.65  1280.22  1289.60
                             1296.38  1307.77  1341.32  1405.12  1409.39
                             1418.99  1430.85  1443.12  1448.53  1453.94
                             1460.08  1506.89  1528.94  1544.50  1549.90
                             1570.92  1578.79  1598.47  1608.40  1623.18
                             1635.59  1675.21  1683.57  1690.17  1697.83
                             1700.11  1735.74  1754.47  1775.24  1787.63
                             1822.67  1835.66  1850.59  1863.91  1877.34
                             1897.02  1906.10  1912.71  1919.74  1925.52
                             1931.32  1954.86  1965.87  1970.25  1977.38
                             2001.18  2014.48  2033.27  2036.17  2057.20
                             2083.36  2135.45  2147.80  2152.06  2160.31
                             2163.68  2173.51  2182.63  2186.80  2196.07
                             2203.08  2222.15  2223.55  2235.36  2255.97
                             2329.10  2357.83  2381.91  2394.86  4228.88
                             4234.86  4338.02  4357.60  4371.59  4373.89
                             4393.07  4397.42  4409.66  4416.72  4417.55
                             4428.57  4429.95  4442.54  4463.32  4470.36
                             4476.20  4485.79  4563.89  4606.72  4607.09
                             4612.70  4637.80  4650.44  4657.29  4667.55
                             5181.39

 Zero-point correction=                           0.445120 (Hartree/Particle)
 Thermal correction to Energy=                    0.467298
 Thermal correction to Enthalpy=                  0.468242
 Thermal correction to Gibbs Free Energy=         0.388081
 Sum of electronic and zero-point Energies=          -1017.417768
 Sum of electronic and thermal Energies=             -1017.395590
 Sum of electronic and thermal Enthalpies=           -1017.394646
 Sum of electronic and thermal Free Energies=        -1017.474807

                     E (Thermal)             CV                S
                      KCal/Mol        Cal/Mol-Kelvin    Cal/Mol-Kelvin
 Total                  293.234             85.124            168.714
 Electronic               0.000              0.000              0.000
 Translational            0.889              2.981             43.233
 Rotational               0.889              2.981             36.356
 Vibrational            291.456             79.162             89.124
 Vibration     1          0.593              1.987              9.211
 Vibration     2          0.593              1.986              7.160
 Vibration     3          0.593              1.984              6.005
 Vibration     4          0.594              1.984              5.764
 Vibration     5          0.595              1.980              5.118
 Vibration     6          0.595              1.979              5.020
 Vibration     7          0.596              1.977              4.722
 Vibration     8          0.602              1.957              3.680
 Vibration     9          0.608              1.935              3.148
 Vibration    10          0.609              1.931              3.075
 Vibration    11          0.616              1.910              2.763
 Vibration    12          0.620              1.897              2.614
 Vibration    13          0.632              1.858              2.260
 Vibration    14          0.632              1.857              2.255
 Vibration    15          0.647              1.811              1.964
 Vibration    16          0.655              1.787              1.837
 Vibration    17          0.660              1.769              1.759
 Vibration    18          0.671              1.738              1.633
 Vibration    19          0.694              1.671              1.408
 Vibration    20          0.708              1.628              1.291
 Vibration    21          0.735              1.555              1.122
 Vibration    22          0.735              1.552              1.117
 Vibration    23          0.766              1.471              0.964
 Vibration    24          0.786              1.419              0.881
 Vibration    25          0.807              1.365              0.801
 Vibration    26          0.816              1.343              0.772
 Vibration    27          0.837              1.294              0.710
 Vibration    28          0.847              1.270              0.682
 Vibration    29          0.882              1.190              0.594
 Vibration    30          0.896              1.159              0.563
 Vibration    31          0.921              1.106              0.513
 Vibration    32          0.929              1.089              0.498
 Vibration    33          0.959              1.029              0.448

                           ! Non-Optimized Parameters !
 Normal termination of Gaussian 16 at Tue Mar  1 07:11:58 2022.

 ------------------------------------------
 #p b3lyp/6-31G(d) geom=allcheck guess=read
 ------------------------------------------

 Structure from the checkpoint file:  "50.n.pdb.xyz.mst.wat.chk"
 ------------
 50.n.pdb.xyz
 ------------
 Charge =  0 Multiplicity = 1

 SCF Done:  E(RB3LYP) =  -1017.84930639     A.U. after   11 cycles
 Normal termination of Gaussian 16 at Tue Mar  1 07:15:43 2022.
 Gaussian 16:  ES64L-G16RevA.03 25-Dec-2016

 ----------------------------------------------------------------------
 #p b3lyp/6-31G(d) scrf=(iefpcm,read,solvent=water) geom=allcheck guess
 =read
 ----------------------------------------------------------------------

 Structure from the checkpoint file:  "50.n.pdb.xyz.mst.wat.chk"
 ------------
 50.n.pdb.xyz
 ------------
 Charge =  0 Multiplicity = 1

                         Standard orientation:
 ---------------------------------------------------------------------
 Center     Atomic      Atomic             Coordinates (Angstroms)
 Number     Number       Type             X           Y           Z
 ---------------------------------------------------------------------
      1          6           0        2.658707   -0.305353   -0.423012
      2          6           0        4.030970    0.204661    0.011752
      3          7           0        5.057591   -0.760515   -0.331004
      4          6           0        6.384018   -0.598403   -0.062171
      5          7           0        7.203760   -1.595314   -0.467114
      6          6           0        8.513915   -1.466233   -0.216203
      7          6           0        9.088782   -0.377334    0.431675
      8          6           0        8.232455    0.649306    0.847270
      9          6           0        6.871448    0.551464    0.605790
     10          6           0        1.554630    0.684005   -0.088052
     11          8           0        0.321007    0.104722   -0.522123
     12          6           0       -0.826743    0.819731   -0.329023
     13          6           0       -2.011645    0.197780   -0.752655
     14          6           0       -3.244388    0.829818   -0.607156
     15          6           0       -4.507181    0.157239   -1.119748
     16          7           0       -5.595511    0.162239   -0.143422
     17          6           0       -6.927116   -0.100228   -0.738322
     18          6           0       -7.383431   -1.555484   -0.587600
     19          6           0       -7.520189   -1.919487    0.907832
     20          6           0       -6.549036   -1.084908    1.772579
     21          6           0       -5.286542   -0.729472    0.989643
     22          6           0       -3.291569    2.105566   -0.020047
     23          6           0       -2.117042    2.719184    0.402908
     24          6           0       -0.875699    2.089188    0.253733
     25          1           0        2.659012   -0.488540   -1.502620
     26          1           0        2.447385   -1.259440    0.071473
     27          1           0        4.240222    1.170177   -0.470220
     28          1           0        4.032710    0.388700    1.094877
     29          1           0        4.794122   -1.606092   -0.821072
     30          1           0        9.138084   -2.289811   -0.557870
     31          1           0       10.157581   -0.334089    0.603405
     32          1           0        8.626924    1.522926    1.357931
     33          1           0        6.188731    1.332088    0.917856
     34          1           0        1.512113    0.879253    0.990546
     35          1           0        1.714644    1.641427   -0.598486
     36          1           0       -1.950695   -0.791090   -1.196711
     37          1           0       -4.857057    0.695099   -2.008168
     38          1           0       -4.245624   -0.866669   -1.445558
     39          1           0       -6.891379    0.191212   -1.791476
     40          1           0       -7.666555    0.554110   -0.258364
     41          1           0       -8.331550   -1.707960   -1.113606
     42          1           0       -6.649868   -2.210476   -1.071654
     43          1           0       -8.547910   -1.747140    1.244980
     44          1           0       -7.321381   -2.987642    1.045520
     45          1           0       -7.031676   -0.155710    2.097290
     46          1           0       -6.275539   -1.627716    2.682469
     47          1           0       -4.809227   -1.661054    0.632320
     48          1           0       -4.552725   -0.236543    1.635912
     49          1           0       -4.248422    2.599547    0.107791
     50          1           0       -2.154772    3.704918    0.856047
     51          1           0        0.027851    2.581632    0.589985
 ---------------------------------------------------------------------

 SCF Done:  E(RB3LYP) =  -1017.86088125     A.U. after   11 cycles

 The electronic state is 1-A.
 Alpha  occ. eigenvalues --  -19.17942 -14.34603 -14.32214 -14.31749 -10.25816
 Alpha  occ. eigenvalues --  -10.24867 -10.24217 -10.22421 -10.21919 -10.20687
 Alpha  occ. eigenvalues --  -10.20134 -10.19948 -10.19777 -10.19497 -10.19298
 Alpha  occ. eigenvalues --  -10.19077 -10.18685 -10.18605 -10.18353 -10.18095
 Alpha  occ. eigenvalues --  -10.17928 -10.17579 -10.17500 -10.17404  -1.06501
 Alpha  occ. eigenvalues --   -0.96500  -0.91620  -0.90229  -0.85169  -0.79939
 Alpha  occ. eigenvalues --   -0.79442  -0.78919  -0.75455  -0.75037  -0.74213
 Alpha  occ. eigenvalues --   -0.72807  -0.68559  -0.67891  -0.63703  -0.62668
 Alpha  occ. eigenvalues --   -0.61964  -0.60801  -0.60563  -0.59767  -0.57143
 Alpha  occ. eigenvalues --   -0.53383  -0.53052  -0.52128  -0.50143  -0.49889
 Alpha  occ. eigenvalues --   -0.48886  -0.48533  -0.48231  -0.47443  -0.46718
 Alpha  occ. eigenvalues --   -0.45215  -0.44630  -0.44138  -0.43698  -0.43324
 Alpha  occ. eigenvalues --   -0.41813  -0.40893  -0.40609  -0.39899  -0.39453
 Alpha  occ. eigenvalues --   -0.38792  -0.38774  -0.38275  -0.37616  -0.37219
 Alpha  occ. eigenvalues --   -0.36860  -0.36618  -0.35791  -0.35507  -0.34981
 Alpha  occ. eigenvalues --   -0.34340  -0.32504  -0.32352  -0.31424  -0.30834
 Alpha  occ. eigenvalues --   -0.30468  -0.30235  -0.27819  -0.26274  -0.24756
 Alpha  occ. eigenvalues --   -0.22136  -0.20364  -0.20270
 Alpha virt. eigenvalues --   -0.01657  -0.00234   0.00827   0.01390   0.08367
 Alpha virt. eigenvalues --    0.09162   0.10249   0.10796   0.10892   0.11068
 Alpha virt. eigenvalues --    0.12433   0.12817   0.13286   0.13353   0.13687

 Mulliken charges:
               1
     1  C   -0.318676
     2  C   -0.099540
     3  N   -0.663526
     4  C    0.515890
     5  N   -0.564439
     6  C    0.027050
     7  C   -0.180682
     8  C   -0.123640
     9  C   -0.206038
    10  C   -0.038037
    11  O   -0.546024
    12  C    0.381627
    13  C   -0.267506
    14  C    0.152914
    15  C   -0.207674
    16  N   -0.406206
    17  C   -0.138889
    18  C   -0.277343
    19  C   -0.264119
    20  C   -0.286897
    21  C   -0.121295
    22  C   -0.186758
    23  C   -0.163237
    24  C   -0.218616
    25  H    0.167501
    26  H    0.167580
    27  H    0.158797
    28  H    0.159870
    29  H    0.363226
    30  H    0.148878
    31  H    0.146037
    32  H    0.159067
    33  H    0.154537
    34  H    0.159463
    35  H    0.159857
    36  H    0.139501
    37  H    0.159853
    38  H    0.128109
    39  H    0.143643
    40  H    0.137600
    41  H    0.139690
    42  H    0.143711
    43  H    0.138771
    44  H    0.138582
    45  H    0.144069
    46  H    0.143765
    47  H    0.114776
    48  H    0.141908
    49  H    0.135342
    50  H    0.148681
    51  H    0.158845
 Sum of Mulliken charges =  -0.00000

 Dipole moment (field-independent basis, Debye):
    X=             -1.4011    Y=              1.6197    Z=              0.8617  Tot=              2.3085
 Quadrupole moment (field-independent basis, Debye-Ang):
   XX=           -142.4117   YY=           -140.8086   ZZ=           -143.8209
   XY=             20.4710   XZ=              9.5677   YZ=              3.1691

 Normal termination of Gaussian 16 at Tue Mar  1 07:20:47 2022.
