 Gaussian 16, Revision A.03,

 ----------------------------------------------------------------------
 #p b3lyp/6-31G(d) opt=(MaxStep=10,MaxCycles=1000) freq scf=(MaxCycle=2
 000,NoVarAcc,NoIncFock) scrf=(iefpcm,read,solvent=water)
 ----------------------------------------------------------------------

 ------------
 51.n.pdb.xyz
 ------------
 Symbolic Z-matrix:
 Charge =  0 Multiplicity = 1

 SCF Done:  E(RB3LYP) =  -315.709271795     A.U. after   10 cycles
 SCF Done:  E(RB3LYP) =  -315.711293219     A.U. after    8 cycles
 SCF Done:  E(RB3LYP) =  -315.711361824     A.U. after    7 cycles
 SCF Done:  E(RB3LYP) =  -315.711370832     A.U. after    6 cycles
 Optimization completed.
    -- Stationary point found.

 1\1\GINC-PIRINEUS6\FOpt\RB3LYP\6-31G(d)\C8H18\UBATOR01\01-Mar-2022\0\\
 #p b3lyp/6-31G(d) opt=(MaxStep=10,MaxCycles=1000) freq scf=(MaxCycle=2
 000,NoVarAcc,NoIncFock) scrf=(iefpcm,read,solvent=water)\\51.n.pdb.xyz
 \\0,1\C,-4.4979444002,-0.0632091721,0.095067652\C,-3.1333982061,-0.076
 5955351,0.7867284667\C,-1.9582760418,-0.016897935,-0.1943456569\C,-0.5
 874377804,-0.0298033958,0.488908712\C,0.5874338979,0.0298970883,-0.492
 2777151\C,1.9582078322,0.0168850135,0.1912971798\C,3.1336054401,0.0765
 069818,-0.7894904781\C,4.4981197966,0.0631820452,-0.097405387\H,-5.315

 Normal termination of Gaussian 16 at Tue Mar  1 07:12:12 2022.

 --------------------------------------------------------------------
 #P Geom=AllCheck Guess=TCheck SCRF=Check GenChk RB3LYP/6-31G(d) Freq
 --------------------------------------------------------------------

 Structure from the checkpoint file:  "51.n.pdb.xyz.mst.wat.chk"
 ------------
 51.n.pdb.xyz
 ------------
 Charge =  0 Multiplicity = 1

 SCF Done:  E(RB3LYP) =  -315.711370832     A.U. after    1 cycles

  Exact polarizability: 122.312   0.179 107.067   0.001  -0.000 107.225
 Approx polarizability: 112.116   0.565 111.475   0.001   0.000 114.135

                      1                      2                      3
                      A                      A                      A
 Frequencies --     47.7532                71.4071                76.6139
 Red. masses --      2.9423                 1.5019                 3.1670
 Frc consts  --      0.0040                 0.0045                 0.0110
 IR Inten    --      0.0051                 0.0014                 0.0090

                      4                      5                      6
                      A                      A                      A
 Frequencies --    112.5015               139.3111               163.6594
 Red. masses --      2.4032                 1.6486                 2.0461
 Frc consts  --      0.0179                 0.0189                 0.0323
 IR Inten    --      0.0000                 0.0001                 0.0006

                      7                      8                      9
                      A                      A                      A
 Frequencies --    191.7817               242.2178               255.1431
 Red. masses --      2.8528                 1.1360                 1.1142
 Frc consts  --      0.0618                 0.0393                 0.0427
 IR Inten    --      0.0000                 0.0004                 0.0001

                     10                     11                     12
                      A                      A                      A
 Frequencies --    273.7550               331.7027               462.9848
 Red. masses --      3.8770                 2.6408                 2.6453
 Frc consts  --      0.1712                 0.1712                 0.3341
 IR Inten    --      0.0000                 0.1159                 0.0003

                     13                     14                     15
                      A                      A                      A
 Frequencies --    466.5400               737.3099               739.7751
 Red. masses --      3.1858                 1.0574                 1.0728
 Frc consts  --      0.4086                 0.3387                 0.3459
 IR Inten    --      0.1416                14.2344                 0.0038

                     16                     17                     18
                      A                      A                      A
 Frequencies --    757.1840               808.4907               884.0411
 Red. masses --      1.1109                 1.1599                 1.1824
 Frc consts  --      0.3753                 0.4467                 0.5445
 IR Inten    --      2.5383                 0.0003                 1.7585

                     19                     20                     21
                      A                      A                      A
 Frequencies --    898.0814               913.1985               965.3717
 Red. masses --      1.9199                 1.9149                 1.1678
 Frc consts  --      0.9123                 0.9409                 0.6412
 IR Inten    --      5.4195                 0.0056                 0.0001

                     22                     23                     24
                      A                      A                      A
 Frequencies --   1014.9317              1023.1887              1041.9808
 Red. masses --      3.0447                 3.6982                 1.0952
 Frc consts  --      1.8478                 2.2811                 0.7006
 IR Inten    --      0.0000                 0.4328                 0.5736

                     25                     26                     27
                      A                      A                      A
 Frequencies --   1060.7587              1074.4947              1077.7942
 Red. masses --      2.6449                 2.2922                 2.0564
 Frc consts  --      1.7534                 1.5592                 1.4075
 IR Inten    --      0.0001                 0.1109                 0.0001

                     28                     29                     30
                      A                      A                      A
 Frequencies --   1107.3702              1163.2220              1214.3918
 Red. masses --      1.7737                 2.6996                 1.9136
 Frc consts  --      1.2815                 2.1522                 1.6627
 IR Inten    --      6.6478                 0.0000                 0.0000

                     31                     32                     33
                      A                      A                      A
 Frequencies --   1246.2735              1259.0677              1290.1489
 Red. masses --      1.5194                 1.3055                 1.3136
 Frc consts  --      1.3904                 1.2194                 1.2882
 IR Inten    --      0.1706                 6.2901                 0.0000

                     34                     35                     36
                      A                      A                      A
 Frequencies --   1311.2615              1320.6583              1336.9510
 Red. masses --      1.3216                 1.2014                 1.0321
 Frc consts  --      1.3388                 1.2346                 1.0869
 IR Inten    --      0.0005                 0.1589                 0.0004

                     37                     38                     39
                      A                      A                      A
 Frequencies --   1339.0170              1343.4069              1354.6377
 Red. masses --      1.1233                 1.0739                 1.3966
 Frc consts  --      1.1866                 1.1419                 1.5100
 IR Inten    --      0.0035                 0.2968                 3.9258

                     40                     41                     42
                      A                      A                      A
 Frequencies --   1392.4837              1417.4734              1422.9810
 Red. masses --      1.5150                 1.6383                 1.7102
 Frc consts  --      1.7307                 1.9394                 2.0403
 IR Inten    --      0.0000                 1.4379                 0.0006

                     43                     44                     45
                      A                      A                      A
 Frequencies --   1434.3362              1434.8786              1496.6651
 Red. masses --      1.2485                 1.2573                 1.0701
 Frc consts  --      1.5134                 1.5251                 1.4123
 IR Inten    --      1.5582                 0.1072                 0.0588

                     46                     47                     48
                      A                      A                      A
 Frequencies --   1497.2850              1500.2745              1511.0631
 Red. masses --      1.0664                 1.0720                 1.0800
 Frc consts  --      1.4086                 1.4216                 1.4529
 IR Inten    --      0.6848                 0.0082                 0.5001

                     49                     50                     51
                      A                      A                      A
 Frequencies --   1518.6486              1519.1939              1521.6214
 Red. masses --      1.0413                 1.0415                 1.0758
 Frc consts  --      1.4150                 1.4162                 1.4676
 IR Inten    --      6.5534                 6.6989                 0.0117

                     52                     53                     54
                      A                      A                      A
 Frequencies --   1526.8779              1533.0662              1537.4740
 Red. masses --      1.0776                 1.0893                 1.0962
 Frc consts  --      1.4802                 1.5084                 1.5267
 IR Inten    --      2.8578                 0.0004                 7.0349

                     55                     56                     57
                      A                      A                      A
 Frequencies --   3021.5406              3021.9052              3025.6867
 Red. masses --      1.0582                 1.0581                 1.0586
 Frc consts  --      5.6920                 5.6930                 5.7102
 IR Inten    --      0.0126                 0.2151                 0.0025

                     58                     59                     60
                      A                      A                      A
 Frequencies --   3028.0987              3033.6146              3034.5875
 Red. masses --      1.0593                 1.0600                 1.0600
 Frc consts  --      5.7230                 5.7477                 5.7511
 IR Inten    --     47.2529                36.8381               322.8407

                     61                     62                     63
                      A                      A                      A
 Frequencies --   3041.3865              3045.7350              3050.9751
 Red. masses --      1.0987                 1.1004                 1.0360
 Frc consts  --      5.9877                 6.0140                 5.6820
 IR Inten    --      0.0250                 0.0155                52.7387

                     64                     65                     66
                      A                      A                      A
 Frequencies --   3053.1809              3056.1388              3063.1603
 Red. masses --      1.1027                 1.0356                 1.1049
 Frc consts  --      6.0566                 5.6990                 6.1084
 IR Inten    --      0.0339                48.2168                 2.3526

                     67                     68                     69
                      A                      A                      A
 Frequencies --   3073.0971              3079.0330              3113.4724
 Red. masses --      1.1059                 1.1058                 1.1030
 Frc consts  --      6.1533                 6.1764                 6.2995
 IR Inten    --      0.3326               406.2551               110.6750

                     70                     71                     72
                      A                      A                      A
 Frequencies --   3118.9699              3120.5711              3121.3407
 Red. masses --      1.1021                 1.1027                 1.1026
 Frc consts  --      6.3168                 6.3267                 6.3291
 IR Inten    --     74.5126                92.5477                81.7485

 - Thermochemistry -
 -------------------
 Temperature   298.150 Kelvin.  Pressure   1.00000 Atm.
 Atom     1 has atomic number  6 and mass  12.00000

 Molecular mass:   114.14085 amu.
 Principal axes and moments of inertia in atomic units:
                           1         2         3
     Eigenvalues --   168.026603710.542943789.53209
           X            1.00000  -0.00216  -0.00000
           Y            0.00216   1.00000  -0.00000
           Z            0.00000   0.00000   1.00000
 This molecule is an asymmetric top.
 Rotational symmetry number  1.
 Rotational temperatures (Kelvin)      0.51548     0.02334     0.02286
 Rotational constants (GHZ):          10.74081     0.48638     0.47624
 Zero-point vibrational energy     648885.6 (Joules/Mol)
                                  155.08737 (Kcal/Mol)
 Warning -- explicit consideration of  13 degrees of freedom as
           vibrations may cause significant error
 Vibrational temperatures:     68.71   102.74   110.23   161.86   200.44
          (Kelvin)            235.47   275.93   348.50   367.09   393.87
                              477.25   666.13   671.25  1060.82  1064.37
                             1089.42  1163.24  1271.94  1292.14  1313.89
                             1388.95  1460.26  1472.14  1499.18  1526.20
                             1545.96  1550.71  1593.26  1673.62  1747.24
                             1793.11  1811.52  1856.24  1886.61  1900.13
                             1923.57  1926.55  1932.86  1949.02  2003.47
                             2039.43  2047.35  2063.69  2064.47  2153.37
                             2154.26  2158.56  2174.08  2185.00  2185.78
                             2189.27  2196.84  2205.74  2212.08  4347.32
                             4347.85  4353.29  4356.76  4364.69  4366.09
                             4375.88  4382.13  4389.67  4392.85  4397.10
                             4407.20  4421.50  4430.04  4479.59  4487.50
                             4489.81  4490.91

 Zero-point correction=                           0.247147 (Hartree/Particle)
 Thermal correction to Energy=                    0.258263
 Thermal correction to Enthalpy=                  0.259207
 Thermal correction to Gibbs Free Energy=         0.210046
 Sum of electronic and zero-point Energies=           -315.464223
 Sum of electronic and thermal Energies=              -315.453108
 Sum of electronic and thermal Enthalpies=            -315.452164
 Sum of electronic and thermal Free Energies=         -315.501324

                     E (Thermal)             CV                S
                      KCal/Mol        Cal/Mol-Kelvin    Cal/Mol-Kelvin
 Total                  162.063             38.945            103.467
 Electronic               0.000              0.000              0.000
 Translational            0.889              2.981             40.112
 Rotational               0.889              2.981             29.248
 Vibrational            160.285             32.983             34.107
 Vibration     1          0.595              1.978              4.908
 Vibration     2          0.598              1.968              4.114
 Vibration     3          0.599              1.965              3.976
 Vibration     4          0.607              1.939              3.225
 Vibration     5          0.615              1.914              2.813
 Vibration     6          0.623              1.887              2.507
 Vibration     7          0.634              1.851              2.211
 Vibration     8          0.658              1.776              1.787
 Vibration     9          0.666              1.754              1.695
 Vibration    10          0.676              1.722              1.572
 Vibration    11          0.714              1.612              1.252
 Vibration    12          0.821              1.332              0.757
 Vibration    13          0.824              1.324              0.747

 Optimization completed.
    -- Stationary point found.

 1\1\GINC-PIRINEUS6\Freq\RB3LYP\6-31G(d)\C8H18\UBATOR01\01-Mar-2022\0\\
 #P Geom=AllCheck Guess=TCheck SCRF=Check GenChk RB3LYP/6-31G(d) Freq\\
 51.n.pdb.xyz\\0,1\C,-4.4979444002,-0.0632091721,0.095067652\C,-3.13339
 82061,-0.0765955351,0.7867284667\C,-1.9582760418,-0.016897935,-0.19434
 56569\C,-0.5874377804,-0.0298033958,0.488908712\C,0.5874338979,0.02989
 70883,-0.4922777151\C,1.9582078322,0.0168850135,0.1912971798\C,3.13360
 54401,0.0765069818,-0.7894904781\C,4.4981197966,0.0631820452,-0.097405
 387\H,-5.3159485061,-0.1067443461,0.8214136861\H,-4.6065460714,-0.9189

 Normal termination of Gaussian 16 at Tue Mar  1 07:19:42 2022.

 ------------------------------------------
 #p b3lyp/6-31G(d) geom=allcheck guess=read
 ------------------------------------------

 Structure from the checkpoint file:  "51.n.pdb.xyz.mst.wat.chk"
 ------------
 51.n.pdb.xyz
 ------------
 Charge =  0 Multiplicity = 1

 SCF Done:  E(RB3LYP) =  -315.712864702     A.U. after    7 cycles
 Normal termination of Gaussian 16 at Tue Mar  1 07:20:12 2022.
 Gaussian 16:  ES64L-G16RevA.03 25-Dec-2016

 ----------------------------------------------------------------------
 #p b3lyp/6-31G(d) scrf=(iefpcm,read,solvent=water) geom=allcheck guess
 =read
 ----------------------------------------------------------------------

 Structure from the checkpoint file:  "51.n.pdb.xyz.mst.wat.chk"
 ------------
 51.n.pdb.xyz
 ------------
 Charge =  0 Multiplicity = 1

                         Standard orientation:
 ---------------------------------------------------------------------
 Center     Atomic      Atomic             Coordinates (Angstroms)
 Number     Number       Type             X           Y           Z
 ---------------------------------------------------------------------
      1          6           0        4.492160   -0.255968   -0.000013
      2          6           0        3.186315    0.541106   -0.000018
      3          6           0        1.937217   -0.345875    0.000010
      4          6           0        0.624433    0.443302    0.000024
      5          6           0       -0.624424   -0.443811    0.000053
      6          6           0       -1.937116    0.345685   -0.000024
      7          6           0       -3.186465   -0.540986   -0.000063
      8          6           0       -4.492246    0.256505    0.000013
      9          1           0        5.365088    0.404790   -0.000051
     10          1           0        4.561730   -0.899926   -0.883826
     11          1           0        4.561774   -0.899856    0.883841
     12          1           0        3.160951    1.200511   -0.877491
     13          1           0        3.160956    1.200487    0.877480
     14          1           0        1.963626   -1.006208   -0.878031
     15          1           0        1.963647   -1.006229    0.878015
     16          1           0        0.599213    1.103583   -0.877935
     17          1           0        0.599258    1.103613    0.877986
     18          1           0       -0.599271   -1.104050   -0.877968
     19          1           0       -0.599277   -1.104145    0.878072
     20          1           0       -1.963404    1.006068    0.878022
     21          1           0       -1.963287    1.006044   -0.878036
     22          1           0       -3.161102   -1.200664   -0.877576
     23          1           0       -3.161139   -1.200324    0.877469
     24          1           0       -5.365603   -0.403701    0.000277
     25          1           0       -4.560987    0.900069    0.883150
     26          1           0       -4.561418    0.900188   -0.883291
 ---------------------------------------------------------------------

 SCF Done:  E(RB3LYP) =  -315.711267528     A.U. after    7 cycles

 The electronic state is 1-A.
 Alpha  occ. eigenvalues --  -10.17395 -10.17393 -10.17163 -10.17151 -10.17137
 Alpha  occ. eigenvalues --  -10.17128 -10.16835 -10.16822  -0.80350  -0.78032
 Alpha  occ. eigenvalues --   -0.74278  -0.69354  -0.63779  -0.58772  -0.57030
 Alpha  occ. eigenvalues --   -0.56653  -0.47710  -0.45628  -0.43016  -0.42462
 Alpha  occ. eigenvalues --   -0.41164  -0.40631  -0.38745  -0.37837  -0.35253
 Alpha  occ. eigenvalues --   -0.34832  -0.34635  -0.32776  -0.32518  -0.31678
 Alpha  occ. eigenvalues --   -0.31649  -0.31496  -0.29461
 Alpha virt. eigenvalues --    0.09332   0.10137   0.11679   0.11934   0.12884
 Alpha virt. eigenvalues --    0.14689   0.14743   0.15512   0.17219   0.18152
 Alpha virt. eigenvalues --    0.18323   0.19705   0.19780   0.19938   0.20232

 Mulliken charges:
               1
     1  C   -0.450960
     2  C   -0.248966
     3  C   -0.248658
     4  C   -0.255727
     5  C   -0.255736
     6  C   -0.248664
     7  C   -0.249060
     8  C   -0.451043
     9  H    0.143365
    10  H    0.143383
    11  H    0.143379
    12  H    0.131467
    13  H    0.131474
    14  H    0.127663
    15  H    0.127675
    16  H    0.127958
    17  H    0.127956
    18  H    0.127957
    19  H    0.127950
    20  H    0.127671
    21  H    0.127677
    22  H    0.131387
    23  H    0.131458
    24  H    0.143328
    25  H    0.143565
    26  H    0.143499
 Sum of Mulliken charges =  -0.00000

 Dipole moment (field-independent basis, Debye):
    X=             -0.0001    Y=              0.0014    Z=              0.0006  Tot=              0.0015
 Quadrupole moment (field-independent basis, Debye-Ang):
   XX=            -56.1929   YY=            -55.1671   ZZ=            -53.6680
   XY=              0.4837   XZ=             -0.0021   YZ=             -0.0003

 Normal termination of Gaussian 16 at Tue Mar  1 07:20:57 2022.
