 Gaussian 16, Revision A.03,

 ----------------------------------------------------------------------
 #p b3lyp/6-31G(d) opt=(MaxStep=10,MaxCycles=1000) freq scf=(MaxCycle=2
 000,NoVarAcc,NoIncFock) scrf=(iefpcm,read,solvent=water)
 ----------------------------------------------------------------------

 ------------
 52.n.pdb.xyz
 ------------
 Symbolic Z-matrix:
 Charge =  0 Multiplicity = 1

 SCF Done:  E(RB3LYP) =  -1171.06443622     A.U. after   12 cycles
 SCF Done:  E(RB3LYP) =  -1171.06917309     A.U. after   10 cycles
 SCF Done:  E(RB3LYP) =  -1171.06893596     A.U. after   11 cycles
 SCF Done:  E(RB3LYP) =  -1171.07204998     A.U. after   11 cycles
 SCF Done:  E(RB3LYP) =  -1171.07276732     A.U. after   11 cycles
 SCF Done:  E(RB3LYP) =  -1171.07324324     A.U. after   10 cycles
 SCF Done:  E(RB3LYP) =  -1171.07349606     A.U. after   10 cycles
 SCF Done:  E(RB3LYP) =  -1171.07355001     A.U. after   10 cycles
 SCF Done:  E(RB3LYP) =  -1171.07378320     A.U. after    9 cycles
 SCF Done:  E(RB3LYP) =  -1171.07398980     A.U. after   10 cycles
 SCF Done:  E(RB3LYP) =  -1171.07469353     A.U. after    8 cycles
 SCF Done:  E(RB3LYP) =  -1171.07468974     A.U. after    8 cycles
 SCF Done:  E(RB3LYP) =  -1171.07469888     A.U. after    8 cycles
 SCF Done:  E(RB3LYP) =  -1171.07469141     A.U. after    8 cycles
 SCF Done:  E(RB3LYP) =  -1171.07469065     A.U. after    6 cycles
 SCF Done:  E(RB3LYP) =  -1171.07469915     A.U. after    8 cycles
 SCF Done:  E(RB3LYP) =  -1171.07468983     A.U. after    8 cycles
 Optimization completed.
    -- Stationary point found.
 Normal termination of Gaussian 16 at Tue Mar  1 20:04:05 2022.

 --------------------------------------------------------------------
 #P Geom=AllCheck Guess=TCheck SCRF=Check GenChk RB3LYP/6-31G(d) Freq
 --------------------------------------------------------------------

 Structure from the checkpoint file:  "52.n.pdb.xyz.mst.wat.chk"
 ------------
 52.n.pdb.xyz
 ------------
 Charge =  0 Multiplicity = 1

 SCF Done:  E(RB3LYP) =  -1171.07468983     A.U. after    1 cycles

  Exact polarizability: 523.085  23.458 389.727 -20.716  13.519 186.408
 Approx polarizability: 532.819  20.293 442.608 -23.534  17.793 212.378

                      1                      2                      3
                      A                      A                      A
 Frequencies --     14.0145                23.6648                36.2631
 Red. masses --      5.9824                 4.1182                 4.3726
 Frc consts  --      0.0007                 0.0014                 0.0034
 IR Inten    --      0.2249                 0.2407                 0.2380

                      4                      5                      6
                      A                      A                      A
 Frequencies --     38.5493                57.8140                90.6459
 Red. masses --      5.3975                 4.4825                 3.3054
 Frc consts  --      0.0047                 0.0088                 0.0160
 IR Inten    --      1.4417                 0.2105                 0.4708

                      7                      8                      9
                      A                      A                      A
 Frequencies --     93.1600               116.4735               129.5286
 Red. masses --      2.9995                 4.4447                 3.0832
 Frc consts  --      0.0153                 0.0355                 0.0305
 IR Inten    --      0.2012                 3.3920                 3.1304

                     10                     11                     12
                      A                      A                      A
 Frequencies --    147.7785               154.7291               172.1985
 Red. masses --      4.1920                 1.1801                 4.0297
 Frc consts  --      0.0539                 0.0166                 0.0704
 IR Inten    --      2.6694                 0.4424                 2.0461

                     13                     14                     15
                      A                      A                      A
 Frequencies --    196.6595               211.4934               215.9522
 Red. masses --      4.2351                 3.3909                 4.2443
 Frc consts  --      0.0965                 0.0894                 0.1166
 IR Inten    --      3.7979                 1.8076                 3.5405

                     16                     17                     18
                      A                      A                      A
 Frequencies --    228.2814               243.8101               256.0223
 Red. masses --      1.1459                 4.4143                 2.8972
 Frc consts  --      0.0352                 0.1546                 0.1119
 IR Inten    --      1.9105                 7.3444                 2.3586

                     19                     20                     21
                      A                      A                      A
 Frequencies --    275.7889               277.4458               312.1709
 Red. masses --      1.5859                 2.5213                 5.2399
 Frc consts  --      0.0711                 0.1144                 0.3009
 IR Inten    --      0.2049                 0.1815                14.7777

                     22                     23                     24
                      A                      A                      A
 Frequencies --    327.7218               338.8637               373.8614
 Red. masses --      3.8189                 3.7663                 2.8519
 Frc consts  --      0.2417                 0.2548                 0.2349
 IR Inten    --      2.7312                 1.5670                 8.0204

                     25                     26                     27
                      A                      A                      A
 Frequencies --    375.3736               388.3241               413.9850
 Red. masses --      6.0429                 2.8035                 4.8132
 Frc consts  --      0.5017                 0.2491                 0.4860
 IR Inten    --      1.3287                 1.6196                13.1925

                     28                     29                     30
                      A                      A                      A
 Frequencies --    426.2591               429.4196               458.4147
 Red. masses --      3.5992                 3.3623                 3.0551
 Frc consts  --      0.3853                 0.3653                 0.3783
 IR Inten    --      8.4984                 0.0929                30.4938

                     31                     32                     33
                      A                      A                      A
 Frequencies --    489.1521               504.2210               522.6004
 Red. masses --      4.6251                 6.6249                 2.4245
 Frc consts  --      0.6520                 0.9924                 0.3901
 IR Inten    --      6.3039                19.8299                 0.0153

                     34                     35                     36
                      A                      A                      A
 Frequencies --    534.4873               547.4027               561.1336
 Red. masses --      1.1784                 3.7811                 5.5166
 Frc consts  --      0.1983                 0.6675                 1.0234
 IR Inten    --    155.0820                10.9786                17.3249

                     37                     38                     39
                      A                      A                      A
 Frequencies --    571.9436               578.9980               604.5232
 Red. masses --      4.2518                 4.5375                 3.8250
 Frc consts  --      0.8195                 0.8962                 0.8236
 IR Inten    --      7.9316                15.9593                 2.2625

                     40                     41                     42
                      A                      A                      A
 Frequencies --    616.8386               644.8788               678.9363
 Red. masses --      4.4695                 6.9486                 5.8989
 Frc consts  --      1.0020                 1.7026                 1.6021
 IR Inten    --      5.6751                11.1434                25.2730

                     43                     44                     45
                      A                      A                      A
 Frequencies --    699.7203               720.1314               728.7957
 Red. masses --      4.6139                 8.0160                 2.8704
 Frc consts  --      1.3310                 2.4492                 0.8983
 IR Inten    --      0.5259                 7.1838                 1.4360

                     46                     47                     48
                      A                      A                      A
 Frequencies --    751.3184               771.5505               779.5497
 Red. masses --      3.8090                 2.0545                 2.3766
 Frc consts  --      1.2668                 0.7206                 0.8509
 IR Inten    --      1.3597                55.3423                25.9452

                     49                     50                     51
                      A                      A                      A
 Frequencies --    788.7011               794.2940               810.8566
 Red. masses --      4.2657                 5.3727                 5.7213
 Frc consts  --      1.5634                 1.9971                 2.2163
 IR Inten    --     12.9244                22.5218                30.3124

                     52                     53                     54
                      A                      A                      A
 Frequencies --    818.2767               821.5638               844.6411
 Red. masses --      1.9365                 1.3539                 3.5654
 Frc consts  --      0.7640                 0.5384                 1.4987
 IR Inten    --      6.2499                14.9775                 5.2033

                     55                     56                     57
                      A                      A                      A
 Frequencies --    849.2691               878.6521               890.6422
 Red. masses --      1.5160                 2.2094                 2.7655
 Frc consts  --      0.6442                 1.0050                 1.2925
 IR Inten    --     77.3494                 2.0525                11.6424

                     58                     59                     60
                      A                      A                      A
 Frequencies --    895.4831               939.3091               954.0185
 Red. masses --      1.7764                 1.2761                 1.3798
 Frc consts  --      0.8393                 0.6634                 0.7399
 IR Inten    --      2.8603                 0.3973                 3.4301

                     61                     62                     63
                      A                      A                      A
 Frequencies --    972.3469               982.1060               986.0609
 Red. masses --      1.2633                 2.0939                 2.4348
 Frc consts  --      0.7037                 1.1900                 1.3948
 IR Inten    --      1.4704                18.6964                 5.9334

                     64                     65                     66
                      A                      A                      A
 Frequencies --    995.2260              1003.5444              1030.0668
 Red. masses --      1.2705                 2.3519                 2.5786
 Frc consts  --      0.7414                 1.3956                 1.6120
 IR Inten    --      1.4195                28.1259                 5.1274

                     67                     68                     69
                      A                      A                      A
 Frequencies --   1041.4931              1050.5891              1054.9744
 Red. masses --      1.9061                 1.4939                 2.0500
 Frc consts  --      1.2182                 0.9715                 1.3443
 IR Inten    --      9.5844                16.1555                 0.8869

                     70                     71                     72
                      A                      A                      A
 Frequencies --   1065.2298              1068.9727              1071.6979
 Red. masses --      2.2390                 1.8270                 2.0900
 Frc consts  --      1.4969                 1.2300                 1.4143
 IR Inten    --      1.8183               108.1535                36.2681

                     73                     74                     75
                      A                      A                      A
 Frequencies --   1079.4225              1097.0420              1131.1152
 Red. masses --      1.6967                 2.2741                 1.2911
 Frc consts  --      1.1648                 1.6125                 0.9732
 IR Inten    --      0.3989                66.5862                40.9249

                     76                     77                     78
                      A                      A                      A
 Frequencies --   1137.7872              1164.2745              1184.7950
 Red. masses --      1.8120                 2.3475                 1.4502
 Frc consts  --      1.3821                 1.8748                 1.1994
 IR Inten    --     35.7715                25.8110                41.4726

                     79                     80                     81
                      A                      A                      A
 Frequencies --   1185.6601              1186.6731              1215.7561
 Red. masses --      1.1705                 1.9716                 2.2897
 Frc consts  --      0.9695                 1.6358                 1.9939
 IR Inten    --      2.8885                79.5791                48.1508

                     82                     83                     84
                      A                      A                      A
 Frequencies --   1220.8097              1242.5711              1248.5282
 Red. masses --      3.5173                 2.1803                 1.5100
 Frc consts  --      3.0885                 1.9834                 1.3869
 IR Inten    --      8.2160                40.4999               277.2909

                     85                     86                     87
                      A                      A                      A
 Frequencies --   1251.1280              1261.0104              1278.6028
 Red. masses --      1.7324                 1.7140                 3.3164
 Frc consts  --      1.5977                 1.6058                 3.1944
 IR Inten    --    129.9232                20.3675                 4.4323

                     88                     89                     90
                      A                      A                      A
 Frequencies --   1294.6997              1316.3189              1328.0421
 Red. masses --      1.8486                 2.5268                 1.6695
 Frc consts  --      1.8257                 2.5795                 1.7348
 IR Inten    --     48.8529                54.4850                21.5716

                     91                     92                     93
                      A                      A                      A
 Frequencies --   1341.2214              1356.0452              1367.8881
 Red. masses --      2.6724                 4.4369                 1.6245
 Frc consts  --      2.8324                 4.8070                 1.7909
 IR Inten    --     30.5777                70.9730                63.1167

                     94                     95                     96
                      A                      A                      A
 Frequencies --   1373.1017              1377.5272              1399.6967
 Red. masses --      1.8561                 1.9353                 3.1897
 Frc consts  --      2.0619                 2.1637                 3.6819
 IR Inten    --     95.1021               106.5953                26.1518

                     97                     98                     99
                      A                      A                      A
 Frequencies --   1409.7614              1418.4119              1422.9548
 Red. masses --      1.5082                 1.4759                 1.2783
 Frc consts  --      1.7660                 1.7495                 1.5250
 IR Inten    --    116.1253                74.0880               108.3286

                    100                    101                    102
                      A                      A                      A
 Frequencies --   1435.9605              1438.7394              1458.7367
 Red. masses --      1.4382                 3.3592                 2.8861
 Frc consts  --      1.7472                 4.0969                 3.6184
 IR Inten    --    258.7976              1562.8148                21.4514

                    103                    104                    105
                      A                      A                      A
 Frequencies --   1466.4527              1492.7285              1498.8564
 Red. masses --      3.3494                 1.1293                 1.3271
 Frc consts  --      4.2438                 1.4826                 1.7567
 IR Inten    --    222.4984               145.0161                 4.1952

                    106                    107                    108
                      A                      A                      A
 Frequencies --   1501.4578              1502.0068              1514.1899
 Red. masses --      1.1140                 1.4627                 1.1158
 Frc consts  --      1.4797                 1.9442                 1.5072
 IR Inten    --     30.2600                 4.4541                27.9096

                    109                    110                    111
                      A                      A                      A
 Frequencies --   1516.6604              1517.9640              1529.0540
 Red. masses --      1.1075                 1.1062                 1.1051
 Frc consts  --      1.5009                 1.5018                 1.5223
 IR Inten    --     53.7229                 4.3065                64.6883

                    112                    113                    114
                      A                      A                      A
 Frequencies --   1534.7450              1537.1655              1552.0871
 Red. masses --      1.1083                 2.4448                 2.7032
 Frc consts  --      1.5381                 3.4036                 3.8367
 IR Inten    --     19.8669                 9.5045               766.2387

                    115                    116                    117
                      A                      A                      A
 Frequencies --   1567.7726              1598.0302              1616.8222
 Red. masses --      3.3850                 4.9217                 3.5858
 Frc consts  --      4.9020                 7.4052                 5.5228
 IR Inten    --    849.0719                96.4431               852.7661

                    118                    119                    120
                      A                      A                      A
 Frequencies --   1642.8295              1654.4862              1664.5393
 Red. masses --      6.2576                 4.4211                 6.1610
 Frc consts  --      9.9505                 7.1303                10.0575
 IR Inten    --      1.5360                82.4583                 1.3563

                    121                    122                    123
                      A                      A                      A
 Frequencies --   1669.6374              3044.4039              3050.4097
 Red. masses --      6.2854                 1.0482                 1.0694
 Frc consts  --     10.3236                 5.7241                 5.8628
 IR Inten    --      4.5655                78.9264                14.4568

                    124                    125                    126
                      A                      A                      A
 Frequencies --   3064.0204              3065.1628              3069.7999
 Red. masses --      1.0401                 1.0580                 1.0403
 Frc consts  --      5.7530                 5.8564                 5.7762
 IR Inten    --     25.5781                54.9370                63.6116

                    127                    128                    129
                      A                      A                      A
 Frequencies --   3099.9282              3110.6227              3116.2840
 Red. masses --      1.0979                 1.0879                 1.0987
 Frc consts  --      6.2158                 6.2021                 6.2863
 IR Inten    --     21.7418                38.0206                74.2537

                    130                    131                    132
                      A                      A                      A
 Frequencies --   3119.4384              3137.8968              3143.7079
 Red. masses --      1.0985                 1.1033                 1.1022
 Frc consts  --      6.2981                 6.4008                 6.4177
 IR Inten    --     12.0810                48.6098                20.7498

                    133                    134                    135
                      A                      A                      A
 Frequencies --   3147.0350              3167.5695              3190.8558
 Red. masses --      1.1016                 1.1013                 1.0859
 Frc consts  --      6.4280                 6.5102                 6.5139
 IR Inten    --     41.3777                24.8724                13.6583

                    136                    137                    138
                      A                      A                      A
 Frequencies --   3195.4277              3200.8367              3205.8020
 Red. masses --      1.0886                 1.0841                 1.0924
 Frc consts  --      6.5493                 6.5443                 6.6147
 IR Inten    --      5.7754                11.9814                64.3032

                    139                    140                    141
                      A                      A                      A
 Frequencies --   3208.9286              3219.1435              3227.6732
 Red. masses --      1.0892                 1.0973                 1.0917
 Frc consts  --      6.6083                 6.6996                 6.7006
 IR Inten    --     19.8121                48.2605                13.4666

                    142                    143                    144
                      A                      A                      A
 Frequencies --   3234.6710              3286.1865              3595.8981
 Red. masses --      1.0942                 1.0910                 1.0767
 Frc consts  --      6.7451                 6.9418                 8.2031
 IR Inten    --     14.2989                13.2641               100.4048

 - Thermochemistry -
 -------------------
 Temperature   298.150 Kelvin.  Pressure   1.00000 Atm.
 Atom     1 has atomic number  6 and mass  12.00000

 Molecular mass:   362.19068 amu.
 Principal axes and moments of inertia in atomic units:
                           1         2         3
     Eigenvalues --  3434.27218********************
           X            1.00000  -0.00210   0.00062
           Y            0.00211   0.99999  -0.00400
           Z           -0.00061   0.00400   0.99999
 This molecule is an asymmetric top.
 Rotational symmetry number  1.
 Warning -- assumption of classical behavior for rotation
           may cause significant error
 Rotational temperatures (Kelvin)      0.02522     0.00350     0.00320
 Rotational constants (GHZ):           0.52551     0.07300     0.06668
 Zero-point vibrational energy    1087658.7 (Joules/Mol)
                                  259.95667 (Kcal/Mol)
 Warning -- explicit consideration of  40 degrees of freedom as
           vibrations may cause significant error
 Vibrational temperatures:     20.16    34.05    52.17    55.46    83.18
          (Kelvin)            130.42   134.04   167.58   186.36   212.62
                              222.62   247.76   282.95   304.29   310.71
                              328.45   350.79   368.36   396.80   399.18
                              449.14   471.52   487.55   537.90   540.08
                              558.71   595.63   613.29   617.84   659.56
                              703.78   725.46   751.91   769.01   787.59
                              807.35   822.90   833.05   869.77   887.49
                              927.84   976.84  1006.74  1036.11  1048.57
                             1080.98  1110.09  1121.60  1134.76  1142.81
                             1166.64  1177.32  1182.05  1215.25  1221.91
                             1264.18  1281.44  1288.40  1351.46  1372.62
                             1398.99  1413.03  1418.72  1431.91  1443.88
                             1482.04  1498.48  1511.56  1517.87  1532.63
                             1538.01  1541.93  1553.05  1578.40  1627.42
                             1637.02  1675.13  1704.66  1705.90  1707.36
                             1749.20  1756.47  1787.78  1796.35  1800.09
                             1814.31  1839.62  1862.78  1893.89  1910.76
                             1929.72  1951.05  1968.09  1975.59  1981.95
                             2013.85  2028.33  2040.78  2047.31  2066.03
                             2070.03  2098.80  2109.90  2147.70  2156.52
                             2160.26  2161.05  2178.58  2182.14  2184.01
                             2199.97  2208.16  2211.64  2233.11  2255.68
                             2299.21  2326.25  2363.67  2380.44  2394.90
                             2402.24  4380.22  4388.86  4408.44  4410.09
                             4416.76  4460.11  4475.49  4483.64  4488.18
                             4514.73  4523.09  4527.88  4557.43  4590.93
                             4597.51  4605.29  4612.43  4616.93  4631.63
                             4643.90  4653.97  4728.09  5173.70

 Zero-point correction=                           0.414267 (Hartree/Particle)
 Thermal correction to Energy=                    0.437904
 Thermal correction to Enthalpy=                  0.438848
 Thermal correction to Gibbs Free Energy=         0.359689
 Sum of electronic and zero-point Energies=          -1170.660423
 Sum of electronic and thermal Energies=             -1170.636786
 Sum of electronic and thermal Enthalpies=           -1170.635842
 Sum of electronic and thermal Free Energies=        -1170.715000

                     E (Thermal)             CV                S
                      KCal/Mol        Cal/Mol-Kelvin    Cal/Mol-Kelvin
 Total                  274.789             93.313            166.604
 Electronic               0.000              0.000              0.000
 Translational            0.889              2.981             43.554
 Rotational               0.889              2.981             36.084
 Vibrational            273.012             87.352             86.966
 Vibration     1          0.593              1.986              7.341
 Vibration     2          0.593              1.985              6.300
 Vibration     3          0.594              1.982              5.453
 Vibration     4          0.594              1.981              5.332
 Vibration     5          0.596              1.974              4.530
 Vibration     6          0.602              1.956              3.646
 Vibration     7          0.602              1.954              3.593
 Vibration     8          0.608              1.936              3.158
 Vibration     9          0.612              1.924              2.953
 Vibration    10          0.617              1.905              2.701
 Vibration    11          0.620              1.897              2.613
 Vibration    12          0.626              1.877              2.411
 Vibration    13          0.636              1.845              2.164
 Vibration    14          0.643              1.823              2.031
 Vibration    15          0.645              1.817              1.993
 Vibration    16          0.651              1.798              1.892
 Vibration    17          0.659              1.773              1.775
 Vibration    18          0.666              1.753              1.689
 Vibration    19          0.677              1.718              1.560
 Vibration    20          0.678              1.715              1.549
 Vibration    21          0.701              1.650              1.351
 Vibration    22          0.711              1.620              1.271
 Vibration    23          0.719              1.598              1.217
 Vibration    24          0.745              1.526              1.064
 Vibration    25          0.746              1.523              1.058
 Vibration    26          0.756              1.495              1.007
 Vibration    27          0.778              1.440              0.913
 Vibration    28          0.788              1.413              0.871
 Vibration    29          0.791              1.406              0.861
 Vibration    30          0.816              1.342              0.771
 Vibration    31          0.845              1.274              0.686
 Vibration    32          0.860              1.241              0.648
 Vibration    33          0.878              1.200              0.604
 Vibration    34          0.889              1.174              0.577
 Vibration    35          0.903              1.145              0.550
 Vibration    36          0.917              1.115              0.522
 Vibration    37          0.928              1.092              0.501
 Vibration    38          0.936              1.077              0.487
 Vibration    39          0.963              1.022              0.442
 Vibration    40          0.977              0.996              0.422

                           ! Non-Optimized Parameters !
 Normal termination of Gaussian 16 at Tue Mar  1 21:52:12 2022.

 ------------------------------------------
 #p b3lyp/6-31G(d) geom=allcheck guess=read
 ------------------------------------------

 Structure from the checkpoint file:  "52.n.pdb.xyz.mst.wat.chk"
 ------------
 52.n.pdb.xyz
 ------------
 Charge =  0 Multiplicity = 1

 SCF Done:  E(RB3LYP) =  -1171.06531881     A.U. after   11 cycles
 Normal termination of Gaussian 16 at Tue Mar  1 21:57:51 2022.
 Gaussian 16:  ES64L-G16RevA.03 25-Dec-2016

 ----------------------------------------------------------------------
 #p b3lyp/6-31G(d) scrf=(iefpcm,read,solvent=water) geom=allcheck guess
 =read
 ----------------------------------------------------------------------

 Structure from the checkpoint file:  "52.n.pdb.xyz.mst.wat.chk"
 ------------
 52.n.pdb.xyz
 ------------
 Charge =  0 Multiplicity = 1

                         Standard orientation:
 ---------------------------------------------------------------------
 Center     Atomic      Atomic             Coordinates (Angstroms)
 Number     Number       Type             X           Y           Z
 ---------------------------------------------------------------------
      1          6           0        2.948966   -0.269301    2.410501
      2          6           0        3.016714    0.231716    0.954744
      3          7           0        1.927018   -0.319486    0.120392
      4          6           0        1.954365   -1.772664   -0.112642
      5          6           0        3.381821   -2.365716   -0.059722
      6          6           0        4.486999   -1.363923   -0.282205
      7          6           0        4.332000   -0.084519    0.272799
      8          6           0        5.355955    0.856894    0.154825
      9          6           0        6.539251    0.532972   -0.514041
     10          6           0        6.691025   -0.734915   -1.077854
     11          6           0        5.665881   -1.677084   -0.963325
     12          6           0        0.695187    0.305559    0.049486
     13          7           0       -0.375337   -0.505237    0.074135
     14          6           0       -1.591528    0.063191    0.019455
     15          7           0       -2.626048   -0.849352    0.024058
     16          6           0       -4.014981   -0.690352   -0.029482
     17          6           0       -4.675217    0.550562   -0.061630
     18          6           0       -6.068675    0.604870   -0.114460
     19          6           0       -6.800401   -0.572545   -0.133066
     20          9           0       -8.156273   -0.513523   -0.184036
     21          6           0       -6.177810   -1.814170   -0.100474
     22          6           0       -4.789055   -1.867552   -0.048889
     23          7           0       -1.849532    1.373750   -0.013923
     24          6           0       -0.770199    2.182594   -0.104035
     25          6           0       -1.074542    3.654320   -0.225936
     26          6           0        0.544148    1.715153   -0.118952
     27          6           0        1.679871    2.658337   -0.429247
     28          1           0        1.980722   -0.015729    2.852342
     29          1           0        3.087884   -1.350990    2.481129
     30          1           0        3.733424    0.210987    3.002621
     31          1           0        2.896162    1.310138    0.984176
     32          1           0        1.317707   -2.298477    0.605656
     33          1           0        1.515152   -1.945326   -1.098202
     34          1           0        3.451909   -3.180390   -0.785538
     35          1           0        3.533223   -2.825959    0.923953
     36          1           0        5.224594    1.847467    0.581010
     37          1           0        7.331087    1.270130   -0.604234
     38          1           0        7.602742   -0.990071   -1.608528
     39          1           0        5.783342   -2.663891   -1.402037
     40          1           0       -2.299277   -1.807250    0.059873
     41          1           0       -4.088794    1.456190   -0.045506
     42          1           0       -6.582874    1.558950   -0.139910
     43          1           0       -6.771728   -2.720557   -0.115922
     44          1           0       -4.294458   -2.833094   -0.024686
     45          1           0       -0.789037    4.035888   -1.212797
     46          1           0       -0.524324    4.243404    0.514079
     47          1           0       -2.143492    3.822163   -0.089719
     48          1           0        2.102643    3.143308    0.459808
     49          1           0        1.334698    3.458334   -1.088836
     50          1           0        2.493793    2.138185   -0.940148
 ---------------------------------------------------------------------

 SCF Done:  E(RB3LYP) =  -1171.07284596     A.U. after   11 cycles

 The electronic state is 1-A.
 Alpha  occ. eigenvalues --  -24.70257 -14.36469 -14.35349 -14.31899 -14.31715
 Alpha  occ. eigenvalues --  -10.28617 -10.26510 -10.26422 -10.23772 -10.23317
 Alpha  occ. eigenvalues --  -10.22919 -10.21429 -10.19658 -10.19643 -10.19585
 Alpha  occ. eigenvalues --  -10.19441 -10.19369 -10.19093 -10.19079 -10.19056
 Alpha  occ. eigenvalues --  -10.18979 -10.18920 -10.18862 -10.18789 -10.18289
 Alpha  occ. eigenvalues --  -10.17947 -10.17799  -1.21192  -1.00341  -0.95949
 Alpha  occ. eigenvalues --   -0.92260  -0.87864  -0.85809  -0.84893  -0.80421
 Alpha  occ. eigenvalues --   -0.78479  -0.77702  -0.75526  -0.74416  -0.73602
 Alpha  occ. eigenvalues --   -0.72695  -0.71262  -0.68361  -0.64654  -0.64343
 Alpha  occ. eigenvalues --   -0.63199  -0.62482  -0.60187  -0.59737  -0.59140
 Alpha  occ. eigenvalues --   -0.55407  -0.53814  -0.53616  -0.52838  -0.51200
 Alpha  occ. eigenvalues --   -0.50180  -0.49433  -0.47019  -0.46447  -0.45955
 Alpha  occ. eigenvalues --   -0.45621  -0.44739  -0.44643  -0.44530  -0.44170
 Alpha  occ. eigenvalues --   -0.43136  -0.42540  -0.42251  -0.41909  -0.41539
 Alpha  occ. eigenvalues --   -0.40408  -0.40204  -0.39775  -0.39347  -0.39332
 Alpha  occ. eigenvalues --   -0.38676  -0.38551  -0.38152  -0.37890  -0.37230
 Alpha  occ. eigenvalues --   -0.36715  -0.36118  -0.34484  -0.34400  -0.33635
 Alpha  occ. eigenvalues --   -0.32538  -0.32079  -0.30626  -0.29873  -0.26250
 Alpha  occ. eigenvalues --   -0.25938  -0.25012  -0.24734  -0.24090  -0.21594
 Alpha  occ. eigenvalues --   -0.19560
 Alpha virt. eigenvalues --   -0.01672  -0.01178  -0.00725  -0.00364  -0.00247
 Alpha virt. eigenvalues --    0.03525   0.08461   0.09221   0.09569   0.10543
 Alpha virt. eigenvalues --    0.11267   0.12063   0.12792   0.13210   0.13971

 Mulliken charges:
               1
     1  C   -0.451383
     2  C   -0.080134
     3  N   -0.502288
     4  C   -0.097691
     5  C   -0.399986
     6  C    0.135118
     7  C    0.124350
     8  C   -0.214995
     9  C   -0.153025
    10  C   -0.148448
    11  C   -0.213203
    12  C    0.480699
    13  N   -0.615452
    14  C    0.682573
    15  N   -0.774422
    16  C    0.350017
    17  C   -0.182970
    18  C   -0.225955
    19  C    0.361113
    20  F   -0.319517
    21  C   -0.213115
    22  C   -0.216664
    23  N   -0.579804
    24  C    0.275707
    25  C   -0.538296
    26  C    0.086631
    27  C   -0.561978
    28  H    0.159200
    29  H    0.161329
    30  H    0.161024
    31  H    0.171355
    32  H    0.153759
    33  H    0.162242
    34  H    0.169563
    35  H    0.178207
    36  H    0.147092
    37  H    0.148125
    38  H    0.147854
    39  H    0.144051
    40  H    0.377301
    41  H    0.180330
    42  H    0.160492
    43  H    0.163229
    44  H    0.162485
    45  H    0.180355
    46  H    0.174657
    47  H    0.171335
    48  H    0.176707
    49  H    0.168281
    50  H    0.174144
 Sum of Mulliken charges =  -0.00000

 Dipole moment (field-independent basis, Debye):
    X=              6.0985    Y=             -0.7547    Z=              0.6073  Tot=              6.1749
 Quadrupole moment (field-independent basis, Debye-Ang):
   XX=           -176.1082   YY=           -133.9290   ZZ=           -157.9353
   XY=              4.4529   XZ=             -0.1313   YZ=              1.5630

 Normal termination of Gaussian 16 at Tue Mar  1 22:04:58 2022.
