 Gaussian 16, Revision A.03,

 ----------------------------------------------------------------------
 #p b3lyp/6-31G(d) opt=(MaxStep=10,MaxCycles=1000) freq scf=(MaxCycle=2
 000,NoVarAcc,NoIncFock) scrf=(iefpcm,read,solvent=water)
 ----------------------------------------------------------------------

 ------------
 53.n.pdb.xyz
 ------------
 Symbolic Z-matrix:
 Charge =  0 Multiplicity = 1

 SCF Done:  E(RB3LYP) =  -394.335612169     A.U. after   10 cycles
 SCF Done:  E(RB3LYP) =  -394.338192002     A.U. after    8 cycles
 SCF Done:  E(RB3LYP) =  -394.338370708     A.U. after    7 cycles
 SCF Done:  E(RB3LYP) =  -394.338422978     A.U. after    7 cycles
 SCF Done:  E(RB3LYP) =  -394.338420224     A.U. after    5 cycles
 Optimization completed.
    -- Stationary point found.
 Normal termination of Gaussian 16 at Tue Mar  1 17:53:38 2022.

 --------------------------------------------------------------------
 #P Geom=AllCheck Guess=TCheck SCRF=Check GenChk RB3LYP/6-31G(d) Freq
 --------------------------------------------------------------------

 Structure from the checkpoint file:  "53.n.pdb.xyz.mst.wat.chk"
 ------------
 53.n.pdb.xyz
 ------------
 Charge =  0 Multiplicity = 1

 SCF Done:  E(RB3LYP) =  -394.338420224     A.U. after    1 cycles

  Exact polarizability: 154.223   0.107 133.149   0.002  -0.006 133.475
 Approx polarizability: 140.288   0.559 139.121   0.002  -0.006 142.583

                      1                      2                      3
                      A                      A                      A
 Frequencies --     33.1350                51.1607                55.6056
 Red. masses --      3.3400                 3.4436                 1.4930
 Frc consts  --      0.0022                 0.0053                 0.0027
 IR Inten    --      0.0033                 0.0037                 0.0033

                      4                      5                      6
                      A                      A                      A
 Frequencies --     80.9697               111.1026               130.8186
 Red. masses --      2.8807                 1.5590                 3.1421
 Frc consts  --      0.0111                 0.0113                 0.0317
 IR Inten    --      0.0000                 0.0003                 0.0000

                      7                      8                      9
                      A                      A                      A
 Frequencies --    133.7689               155.9244               169.7200
 Red. masses --      2.3468                 1.7646                 2.0453
 Frc consts  --      0.0247                 0.0253                 0.0347
 IR Inten    --      0.0021                 0.0000                 0.0000

                     10                     11                     12
                      A                      A                      A
 Frequencies --    221.5835               238.0589               243.0386
 Red. masses --      4.0371                 2.8299                 1.1485
 Frc consts  --      0.1168                 0.0945                 0.0400
 IR Inten    --      0.0001                 0.0462                 0.0010

                     13                     14                     15
                      A                      A                      A
 Frequencies --    258.0481               353.3777               397.9499
 Red. masses --      1.1050                 2.7458                 3.3887
 Frc consts  --      0.0434                 0.2020                 0.3162
 IR Inten    --      0.0000                 0.0002                 0.1343

                     16                     17                     18
                      A                      A                      A
 Frequencies --    465.8982               498.7794               737.0866
 Red. masses --      2.8030                 2.9342                 1.0592
 Frc consts  --      0.3585                 0.4301                 0.3390
 IR Inten    --      0.0864                 0.0005                11.5762

                     19                     20                     21
                      A                      A                      A
 Frequencies --    737.8198               744.1867               763.4486
 Red. masses --      1.0623                 1.0861                 1.1236
 Frc consts  --      0.3407                 0.3544                 0.3859
 IR Inten    --      5.6904                 2.8360                 0.0258

                     22                     23                     24
                      A                      A                      A
 Frequencies --    807.0444               867.0917               899.8257
 Red. masses --      1.1670                 1.1911                 2.0007
 Frc consts  --      0.4479                 0.5276                 0.9544
 IR Inten    --      1.5778                 0.0031                 0.1397

                     25                     26                     27
                      A                      A                      A
 Frequencies --    909.3244               931.1527               996.5957
 Red. masses --      1.8144                 1.1917                 4.1705
 Frc consts  --      0.8840                 0.6088                 2.4405
 IR Inten    --      5.8951                 1.2190                 0.0897

                     28                     29                     30
                      A                      A                      A
 Frequencies --    997.5997              1022.7919              1042.9238
 Red. masses --      1.1845                 3.6634                 2.6262
 Frc consts  --      0.6946                 2.2579                 1.6830
 IR Inten    --      0.0032                 0.0002                 0.0001

                     31                     32                     33
                      A                      A                      A
 Frequencies --   1054.0105              1055.1679              1073.3173
 Red. masses --      1.0980                 2.6936                 2.3635
 Frc consts  --      0.7187                 1.7669                 1.6042
 IR Inten    --      0.3271                 0.3904                 0.0016

                     34                     35                     36
                      A                      A                      A
 Frequencies --   1077.0495              1077.7695              1121.3787
 Red. masses --      2.0608                 2.1513                 1.9084
 Frc consts  --      1.4085                 1.4724                 1.4139
 IR Inten    --      0.0220                 0.1290                 6.0081

                     37                     38                     39
                      A                      A                      A
 Frequencies --   1160.2058              1213.3833              1235.7065
 Red. masses --      2.9107                 1.9484                 1.6162
 Frc consts  --      2.3085                 1.6902                 1.4541
 IR Inten    --      0.0007                 0.0000                 0.1888

                     40                     41                     42
                      A                      A                      A
 Frequencies --   1245.4154              1271.3330              1286.8994
 Red. masses --      1.3014                 1.4020                 1.3072
 Frc consts  --      1.1893                 1.3351                 1.2755
 IR Inten    --      5.6951                 0.0003                 0.0031

                     43                     44                     45
                      A                      A                      A
 Frequencies --   1303.7601              1325.2655              1326.5281
 Red. masses --      1.2781                 1.1985                 1.3327
 Frc consts  --      1.2800                 1.2402                 1.3817
 IR Inten    --      0.0232                 0.0049                 3.3717

                     46                     47                     48
                      A                      A                      A
 Frequencies --   1335.5429              1339.1266              1340.9288
 Red. masses --      1.0186                 1.1354                 1.0529
 Frc consts  --      1.0705                 1.1996                 1.1155
 IR Inten    --      0.0012                 0.3248                 0.1291

                     49                     50                     51
                      A                      A                      A
 Frequencies --   1344.4106              1359.5265              1389.4052
 Red. masses --      1.0913                 1.4012                 1.4951
 Frc consts  --      1.1622                 1.5259                 1.7005
 IR Inten    --      0.0065                 0.0003                 2.1331

                     52                     53                     54
                      A                      A                      A
 Frequencies --   1412.7396              1421.3941              1422.8066
 Red. masses --      1.5900                 1.6766                 1.7097
 Frc consts  --      1.8697                 1.9957                 2.0392
 IR Inten    --      0.0039                 0.9891                 0.0235

                     55                     56                     57
                      A                      A                      A
 Frequencies --   1428.8523              1434.4256              1496.8577
 Red. masses --      1.2637                 1.2526                 1.0684
 Frc consts  --      1.5201                 1.5186                 1.4104
 IR Inten    --      0.7802                 0.7919                 0.3233

                     58                     59                     60
                      A                      A                      A
 Frequencies --   1497.2736              1499.1005              1502.3997
 Red. masses --      1.0741                 1.0710                 1.0668
 Frc consts  --      1.4187                 1.4181                 1.4188
 IR Inten    --      0.1795                 0.0067                 0.6640

                     61                     62                     63
                      A                      A                      A
 Frequencies --   1511.0965              1515.4243              1518.6963
 Red. masses --      1.0828                 1.0415                 1.0414
 Frc consts  --      1.4568                 1.4092                 1.4152
 IR Inten    --      0.0024                 6.6366                 6.5885

                     64                     65                     66
                      A                      A                      A
 Frequencies --   1519.4022              1524.4037              1530.0649
 Red. masses --      1.0793                 1.0799                 1.0904
 Frc consts  --      1.4681                 1.4785                 1.5041
 IR Inten    --      1.4026                 0.1067                 2.1418

                     67                     68                     69
                      A                      A                      A
 Frequencies --   1535.2278              1538.3155              3020.7565
 Red. masses --      1.0952                 1.0976                 1.0580
 Frc consts  --      1.5209                 1.5303                 5.6880
 IR Inten    --      0.0152                 7.6422                 2.0907

                     70                     71                     72
                      A                      A                      A
 Frequencies --   3022.0913              3023.9607              3025.1038
 Red. masses --      1.0581                 1.0586                 1.0585
 Frc consts  --      5.6935                 5.7036                 5.7073
 IR Inten    --      1.4436                 0.4252                 3.7310

                     73                     74                     75
                      A                      A                      A
 Frequencies --   3027.9285              3031.0465              3034.5096
 Red. masses --      1.0590                 1.0597                 1.0600
 Frc consts  --      5.7208                 5.7362                 5.7511
 IR Inten    --      0.8452               115.6729               229.6258

                     76                     77                     78
                      A                      A                      A
 Frequencies --   3036.7509              3041.5339              3043.3804
 Red. masses --      1.0599                 1.0984                 1.0995
 Frc consts  --      5.7589                 5.9869                 6.0003
 IR Inten    --    192.2012                 0.1170                 0.1919

                     79                     80                     81
                      A                      A                      A
 Frequencies --   3048.1780              3050.5017              3051.2470
 Red. masses --      1.1011                 1.0360                 1.0362
 Frc consts  --      6.0279                 5.6803                 5.6837
 IR Inten    --      0.1767                54.9217                46.0911

                     82                     83                     84
                      A                      A                      A
 Frequencies --   3054.3128              3061.8558              3070.6336
 Red. masses --      1.1029                 1.1049                 1.1058
 Frc consts  --      6.0619                 6.1027                 6.1430
 IR Inten    --      0.1887                 0.3745                 7.1327

                     85                     86                     87
                      A                      A                      A
 Frequencies --   3076.7384              3080.4821              3112.9146
 Red. masses --      1.1059                 1.1057                 1.1030
 Frc consts  --      6.1680                 6.1818                 6.2974
 IR Inten    --      2.6848               555.0427               111.4559

                     88                     89                     90
                      A                      A                      A
 Frequencies --   3114.5178              3118.4379              3118.6850
 Red. masses --      1.1027                 1.1026                 1.1021
 Frc consts  --      6.3020                 6.3174                 6.3154
 IR Inten    --    103.5420                82.6234                72.9872

 - Thermochemistry -
 -------------------
 Temperature   298.150 Kelvin.  Pressure   1.00000 Atm.
 Atom     1 has atomic number  6 and mass  12.00000

 Molecular mass:   142.17215 amu.
 Principal axes and moments of inertia in atomic units:
                           1         2         3
     Eigenvalues --   211.947777163.674807264.38829
           X            1.00000  -0.00150  -0.00000
           Y            0.00150   1.00000  -0.00001
           Z            0.00000   0.00001   1.00000
 This molecule is an asymmetric top.
 Rotational symmetry number  1.
 Rotational temperatures (Kelvin)      0.40866     0.01209     0.01192
 Rotational constants (GHZ):           8.51503     0.25193     0.24844
 Zero-point vibrational energy     798902.2 (Joules/Mol)
                                  190.94220 (Kcal/Mol)
 Warning -- explicit consideration of  17 degrees of freedom as
           vibrations may cause significant error
 Vibrational temperatures:     47.67    73.61    80.00   116.50   159.85
          (Kelvin)            188.22   192.46   224.34   244.19   318.81
                              342.51   349.68   371.27   508.43   572.56
                              670.32   717.63  1060.50  1061.56  1070.72
                             1098.43  1161.16  1247.55  1294.65  1308.32
                             1339.72  1433.88  1435.32  1471.57  1500.53
                             1516.49  1518.15  1544.26  1549.63  1550.67
                             1613.41  1669.28  1745.79  1777.91  1791.88
                             1829.16  1851.56  1875.82  1906.76  1908.58
                             1921.55  1926.70  1929.30  1934.31  1956.06
                             1999.04  2032.62  2045.07  2047.10  2055.80
                             2063.82  2153.64  2154.24  2156.87  2161.62
                             2174.13  2180.36  2185.07  2186.08  2193.28
                             2201.42  2208.85  2213.29  4346.19  4348.12
                             4350.81  4352.45  4356.51  4361.00  4365.98
                             4369.21  4376.09  4378.75  4385.65  4388.99
                             4390.06  4394.47  4405.33  4417.96  4426.74
                             4432.13  4478.79  4481.10  4486.74  4487.09

 Zero-point correction=                           0.304286 (Hartree/Particle)
 Thermal correction to Energy=                    0.318111
 Thermal correction to Enthalpy=                  0.319055
 Thermal correction to Gibbs Free Energy=         0.262763
 Sum of electronic and zero-point Energies=           -394.034134
 Sum of electronic and thermal Energies=              -394.020309
 Sum of electronic and thermal Enthalpies=            -394.019365
 Sum of electronic and thermal Free Energies=         -394.075658

                     E (Thermal)             CV                S
                      KCal/Mol        Cal/Mol-Kelvin    Cal/Mol-Kelvin
 Total                  199.618             48.633            118.478
 Electronic               0.000              0.000              0.000
 Translational            0.889              2.981             40.767
 Rotational               0.889              2.981             30.779
 Vibrational            197.840             42.672             46.932
 Vibration     1          0.594              1.983              5.632
 Vibration     2          0.595              1.977              4.772
 Vibration     3          0.596              1.975              4.607
 Vibration     4          0.600              1.962              3.867
 Vibration     5          0.607              1.940              3.250
 Vibration     6          0.612              1.923              2.934
 Vibration     7          0.613              1.920              2.891
 Vibration     8          0.620              1.896              2.599
 Vibration     9          0.625              1.880              2.439
 Vibration    10          0.648              1.808              1.946
 Vibration    11          0.656              1.782              1.817
 Vibration    12          0.659              1.774              1.781
 Vibration    13          0.667              1.749              1.675
 Vibration    14          0.730              1.568              1.151
 Vibration    15          0.764              1.475              0.970
 Vibration    16          0.823              1.326              0.749
 Vibration    17          0.854              1.253              0.661

 Optimization completed.
    -- Stationary point found.
 Normal termination of Gaussian 16 at Tue Mar  1 18:05:20 2022.

 ------------------------------------------
 #p b3lyp/6-31G(d) geom=allcheck guess=read
 ------------------------------------------

 Structure from the checkpoint file:  "53.n.pdb.xyz.mst.wat.chk"
 ------------
 53.n.pdb.xyz
 ------------
 Charge =  0 Multiplicity = 1

 SCF Done:  E(RB3LYP) =  -394.340286148     A.U. after    7 cycles
 Normal termination of Gaussian 16 at Tue Mar  1 18:06:00 2022.
 Gaussian 16:  ES64L-G16RevA.03 25-Dec-2016

 ----------------------------------------------------------------------
 #p b3lyp/6-31G(d) scrf=(iefpcm,read,solvent=water) geom=allcheck guess
 =read
 ----------------------------------------------------------------------

 Structure from the checkpoint file:  "53.n.pdb.xyz.mst.wat.chk"
 ------------
 53.n.pdb.xyz
 ------------
 Charge =  0 Multiplicity = 1

                         Standard orientation:
 ---------------------------------------------------------------------
 Center     Atomic      Atomic             Coordinates (Angstroms)
 Number     Number       Type             X           Y           Z
 ---------------------------------------------------------------------
      1          6           0       -5.770706    0.286520   -0.000007
      2          6           0       -4.475257   -0.528444   -0.000013
      3          6           0       -3.213930    0.341044    0.000044
      4          6           0       -1.912034   -0.466463    0.000003
      5          6           0       -0.650843    0.403698    0.000007
      6          6           0        0.651155   -0.403864   -0.000040
      7          6           0        1.912144    0.466270   -0.000045
      8          6           0        3.214017   -0.341017    0.000033
      9          6           0        4.475194    0.528638    0.000098
     10          6           0        5.770285   -0.286352   -0.000039
     11          1           0       -5.831536    0.931312    0.883912
     12          1           0       -5.831554    0.931283   -0.883951
     13          1           0       -6.652347   -0.362665    0.000007
     14          1           0       -4.458653   -1.188220   -0.877442
     15          1           0       -4.458681   -1.188294    0.877357
     16          1           0       -3.231218    1.001734   -0.877921
     17          1           0       -3.231234    1.001647    0.878084
     18          1           0       -1.896020   -1.127028    0.877992
     19          1           0       -1.896053   -1.126977   -0.878030
     20          1           0       -0.666915    1.064287   -0.877930
     21          1           0       -0.666885    1.064233    0.877979
     22          1           0        0.667354   -1.064437    0.877896
     23          1           0        0.667305   -1.064413   -0.877995
     24          1           0        1.896084    1.126848   -0.878005
     25          1           0        1.896052    1.126746    0.877896
     26          1           0        3.231286   -1.001617    0.878032
     27          1           0        3.231431   -1.001659   -0.877969
     28          1           0        4.458673    1.188148   -0.877299
     29          1           0        4.458621    1.188542    0.877438
     30          1           0        5.831309   -0.931372    0.883654
     31          1           0        6.652263    0.362418   -0.000432
     32          1           0        5.830571   -0.930701   -0.883519
 ---------------------------------------------------------------------

 SCF Done:  E(RB3LYP) =  -394.338292231     A.U. after    7 cycles

 The electronic state is 1-A.
 Alpha  occ. eigenvalues --  -10.17396 -10.17391 -10.17163 -10.17156 -10.17148
 Alpha  occ. eigenvalues --  -10.17138 -10.17130 -10.17124 -10.16842 -10.16832
 Alpha  occ. eigenvalues --   -0.80593  -0.79029  -0.76452  -0.72963  -0.68741
 Alpha  occ. eigenvalues --   -0.64096  -0.59703  -0.57283  -0.56838  -0.56599
 Alpha  occ. eigenvalues --   -0.47936  -0.46510  -0.44255  -0.42815  -0.42114
 Alpha  occ. eigenvalues --   -0.41403  -0.40935  -0.38458  -0.38306  -0.37876
 Alpha  occ. eigenvalues --   -0.35448  -0.35420  -0.33306  -0.33206  -0.33070
 Alpha  occ. eigenvalues --   -0.32048  -0.31932  -0.31586  -0.31496  -0.31482
 Alpha  occ. eigenvalues --   -0.28916
 Alpha virt. eigenvalues --    0.09244   0.09867   0.10805   0.11626   0.12478
 Alpha virt. eigenvalues --    0.12674   0.13570   0.14388   0.15725   0.16426
 Alpha virt. eigenvalues --    0.16828   0.17736   0.17977   0.19049   0.19920

 Mulliken charges:
               1
     1  C   -0.450989
     2  C   -0.249000
     3  C   -0.248612
     4  C   -0.255478
     5  C   -0.255862
     6  C   -0.255860
     7  C   -0.255462
     8  C   -0.248626
     9  C   -0.249011
    10  C   -0.451024
    11  H    0.143399
    12  H    0.143399
    13  H    0.143385
    14  H    0.131432
    15  H    0.131456
    16  H    0.127644
    17  H    0.127648
    18  H    0.127908
    19  H    0.127893
    20  H    0.127879
    21  H    0.127894
    22  H    0.127887
    23  H    0.127871
    24  H    0.127880
    25  H    0.127916
    26  H    0.127651
    27  H    0.127639
    28  H    0.131479
    29  H    0.131434
    30  H    0.143361
    31  H    0.143330
    32  H    0.143539
 Sum of Mulliken charges =  -0.00000

 Dipole moment (field-independent basis, Debye):
    X=              0.0002    Y=             -0.0004    Z=             -0.0005  Tot=              0.0006
 Quadrupole moment (field-independent basis, Debye-Ang):
   XX=            -69.8993   YY=            -68.6274   ZZ=            -66.6632
   XY=              0.5779   XZ=             -0.0053   YZ=             -0.0003

 Normal termination of Gaussian 16 at Tue Mar  1 18:07:06 2022.
