 Gaussian 16, Revision A.03,

 ----------------------------------------------------------------------
 #p b3lyp/6-31G(d) opt=(MaxStep=10,MaxCycles=1000) freq scf=(MaxCycle=2
 000,NoVarAcc,NoIncFock) scrf=(iefpcm,read,solvent=water)
 ----------------------------------------------------------------------

 ------------
 54.n.pdb.xyz
 ------------
 Symbolic Z-matrix:
 Charge =  0 Multiplicity = 1

 SCF Done:  E(RB3LYP) =  -404.344214009     A.U. after   12 cycles
 SCF Done:  E(RB3LYP) =  -404.346013072     A.U. after   10 cycles
 SCF Done:  E(RB3LYP) =  -404.346270224     A.U. after    9 cycles
 SCF Done:  E(RB3LYP) =  -404.346462938     A.U. after    9 cycles
 SCF Done:  E(RB3LYP) =  -404.346544922     A.U. after    9 cycles
 SCF Done:  E(RB3LYP) =  -404.346681149     A.U. after    9 cycles
 SCF Done:  E(RB3LYP) =  -404.346775346     A.U. after    9 cycles
 SCF Done:  E(RB3LYP) =  -404.346771407     A.U. after    7 cycles
 SCF Done:  E(RB3LYP) =  -404.346816929     A.U. after    9 cycles
 SCF Done:  E(RB3LYP) =  -404.346827834     A.U. after    8 cycles
 SCF Done:  E(RB3LYP) =  -404.346828928     A.U. after    7 cycles
 Optimization completed.
    -- Stationary point found.
 Normal termination of Gaussian 16 at Tue Mar  1 20:13:48 2022.

 --------------------------------------------------------------------
 #P Geom=AllCheck Guess=TCheck SCRF=Check GenChk RB3LYP/6-31G(d) Freq
 --------------------------------------------------------------------

 Structure from the checkpoint file:  "54.n.pdb.xyz.mst.wat.chk"
 ------------
 54.n.pdb.xyz
 ------------
 Charge =  0 Multiplicity = 1

 SCF Done:  E(RB3LYP) =  -404.346828928     A.U. after    1 cycles

  Exact polarizability: 179.464  -6.064 150.962   2.646   2.314  68.272
 Approx polarizability: 192.530  -8.887 172.139   1.819   4.187  77.483

                      1                      2                      3
                      A                      A                      A
 Frequencies --    104.4978               160.8616               281.3117
 Red. masses --      2.5778                 3.0885                 3.2841
 Frc consts  --      0.0166                 0.0471                 0.1531
 IR Inten    --      5.5073                 0.4172                 4.5745

                      4                      5                      6
                      A                      A                      A
 Frequencies --    308.7012               354.9393               430.9332
 Red. masses --      1.9889                 3.4009                 2.6914
 Frc consts  --      0.1117                 0.2524                 0.2945
 IR Inten    --     20.1160                 1.7550                43.4437

                      7                      8                      9
                      A                      A                      A
 Frequencies --    453.1520               477.9923               516.3748
 Red. masses --      2.4834                 2.6761                 2.4297
 Frc consts  --      0.3005                 0.3602                 0.3817
 IR Inten    --     56.6232                26.3982               139.8335

                     10                     11                     12
                      A                      A                      A
 Frequencies --    553.3007               591.9319               662.0888
 Red. masses --      3.4931                 3.6624                 2.2802
 Frc consts  --      0.6301                 0.7561                 0.5889
 IR Inten    --      7.8947                 4.8886                64.3678

                     13                     14                     15
                      A                      A                      A
 Frequencies --    728.3701               742.8686               764.3596
 Red. masses --      3.2702                 4.3369                 1.3390
 Frc consts  --      1.0222                 1.4101                 0.4609
 IR Inten    --      2.5643                 1.1259                85.9733

                     16                     17                     18
                      A                      A                      A
 Frequencies --    834.5104               862.6572               890.7085
 Red. masses --      2.5294                 1.4803                 1.6075
 Frc consts  --      1.0378                 0.6490                 0.7514
 IR Inten    --      5.5153                 6.6860                 4.9815

                     19                     20                     21
                      A                      A                      A
 Frequencies --    891.7551               944.5729               965.2141
 Red. masses --      2.2718                 1.3503                 2.5196
 Frc consts  --      1.0644                 0.7098                 1.3830
 IR Inten    --      1.2046                 5.2247                 2.8359

                     22                     23                     24
                      A                      A                      A
 Frequencies --    971.1227              1021.6010              1062.0477
 Red. masses --      1.2290                 2.0731                 2.4790
 Frc consts  --      0.6829                 1.2748                 1.6475
 IR Inten    --      0.0672                 7.4421                 8.0346

                     25                     26                     27
                      A                      A                      A
 Frequencies --   1102.9183              1116.6426              1145.4155
 Red. masses --      1.7104                 2.1837                 1.5878
 Frc consts  --      1.2258                 1.6042                 1.2273
 IR Inten    --      5.0023                19.8149                10.8529

                     28                     29                     30
                      A                      A                      A
 Frequencies --   1182.8700              1201.0607              1212.1760
 Red. masses --      1.1037                 1.4140                 1.4558
 Frc consts  --      0.9098                 1.2018                 1.2604
 IR Inten    --      5.3987                22.6200                17.7638

                     31                     32                     33
                      A                      A                      A
 Frequencies --   1231.4585              1277.5638              1301.0541
 Red. masses --      1.9255                 1.3378                 2.5316
 Frc consts  --      1.7204                 1.2865                 2.5249
 IR Inten    --      9.5685                13.3316                95.9519

                     34                     35                     36
                      A                      A                      A
 Frequencies --   1312.0782              1353.8479              1375.8555
 Red. masses --      1.2809                 2.9109                 1.6910
 Frc consts  --      1.2992                 3.1435                 1.8860
 IR Inten    --     25.8861               110.3896                26.6546

                     37                     38                     39
                      A                      A                      A
 Frequencies --   1388.6255              1395.3995              1480.9690
 Red. masses --      1.4584                 1.5491                 1.8415
 Frc consts  --      1.6569                 1.7772                 2.3796
 IR Inten    --      4.8957                79.8134                 4.1491

                     40                     41                     42
                      A                      A                      A
 Frequencies --   1493.5525              1508.7602              1528.1058
 Red. masses --      1.1220                 1.1288                 1.3197
 Frc consts  --      1.4747                 1.5140                 1.8157
 IR Inten    --      8.6117                16.9291                98.4792

                     43                     44                     45
                      A                      A                      A
 Frequencies --   1542.1987              1550.3203              1634.8804
 Red. masses --      1.7251                 1.9221                 5.4178
 Frc consts  --      2.4173                 2.7219                 8.5319
 IR Inten    --     27.1240               117.9255                22.4991

                     46                     47                     48
                      A                      A                      A
 Frequencies --   1661.0724              2985.3628              3029.2482
 Red. masses --      5.6377                 1.0733                 1.0689
 Frc consts  --      9.1650                 5.6359                 5.7788
 IR Inten    --    114.6937               147.7672                62.1615

                     49                     50                     51
                      A                      A                      A
 Frequencies --   3063.7861              3081.4420              3103.1848
 Red. masses --      1.0666                 1.0906                 1.0900
 Frc consts  --      5.8987                 6.1011                 6.1843
 IR Inten    --     30.6797                79.5935                92.4276

                     52                     53                     54
                      A                      A                      A
 Frequencies --   3115.5158              3179.9515              3188.2320
 Red. masses --      1.1024                 1.0875                 1.0869
 Frc consts  --      6.3045                 6.4792                 6.5092
 IR Inten    --     77.9437                34.4825                11.2533

                     55                     56                     57
                      A                      A                      A
 Frequencies --   3201.6588              3217.2794              3570.5869
 Red. masses --      1.0917                 1.0967                 1.0767
 Frc consts  --      6.5935                 6.6885                 8.0876
 IR Inten    --     55.7313                48.1025                50.3389

 - Thermochemistry -
 -------------------
 Temperature   298.150 Kelvin.  Pressure   1.00000 Atm.
 Atom     1 has atomic number  6 and mass  12.00000

 Molecular mass:   133.08915 amu.
 Principal axes and moments of inertia in atomic units:
                           1         2         3
     Eigenvalues --   636.170101571.748242146.92851
           X            0.99997   0.00696   0.00185
           Y           -0.00695   0.99997  -0.00408
           Z           -0.00188   0.00406   0.99999
 This molecule is an asymmetric top.
 Rotational symmetry number  1.
 Warning -- assumption of classical behavior for rotation
           may cause significant error
 Rotational temperatures (Kelvin)      0.13615     0.05511     0.04034
 Rotational constants (GHZ):           2.83688     1.14824     0.84062
 Zero-point vibrational energy     480354.2 (Joules/Mol)
                                  114.80740 (Kcal/Mol)
 Warning -- explicit consideration of  11 degrees of freedom as
           vibrations may cause significant error
 Vibrational temperatures:    150.35   231.44   404.74   444.15   510.68
          (Kelvin)            620.02   651.98   687.72   742.95   796.08
                              851.66   952.60  1047.96  1068.82  1099.74
                             1200.67  1241.17  1281.53  1283.04  1359.03
                             1388.73  1397.23  1469.86  1528.05  1586.85
                             1606.60  1648.00  1701.89  1728.06  1744.05
                             1771.79  1838.13  1871.93  1887.79  1947.89
                             1979.55  1997.92  2007.67  2130.78  2148.89
                             2170.77  2198.60  2218.88  2230.57  2352.23
                             2389.91  4295.27  4358.41  4408.10  4433.51
                             4464.79  4482.53  4575.24  4587.15  4606.47
                             4628.95  5137.28

 Zero-point correction=                           0.182957 (Hartree/Particle)
 Thermal correction to Energy=                    0.190781
 Thermal correction to Enthalpy=                  0.191726
 Thermal correction to Gibbs Free Energy=         0.150642
 Sum of electronic and zero-point Energies=           -404.163872
 Sum of electronic and thermal Energies=              -404.156048
 Sum of electronic and thermal Enthalpies=            -404.155103
 Sum of electronic and thermal Free Energies=         -404.196187

                     E (Thermal)             CV                S
                      KCal/Mol        Cal/Mol-Kelvin    Cal/Mol-Kelvin
 Total                  119.717             32.438             86.467
 Electronic               0.000              0.000              0.000
 Translational            0.889              2.981             40.570
 Rotational               0.889              2.981             29.153
 Vibrational            117.940             26.476             16.744
 Vibration     1          0.605              1.946              3.369
 Vibration     2          0.622              1.890              2.540
 Vibration     3          0.681              1.708              1.526
 Vibration     4          0.698              1.657              1.369
 Vibration     5          0.731              1.565              1.144
 Vibration     6          0.792              1.403              0.856
 Vibration     7          0.812              1.354              0.786
 Vibration     8          0.834              1.299              0.715
 Vibration     9          0.871              1.214              0.618
 Vibration    10          0.909              1.132              0.537
 Vibration    11          0.949              1.049              0.464

                           ! Non-Optimized Parameters !
 Normal termination of Gaussian 16 at Tue Mar  1 20:23:04 2022.

 ------------------------------------------
 #p b3lyp/6-31G(d) geom=allcheck guess=read
 ------------------------------------------

 Structure from the checkpoint file:  "54.n.pdb.xyz.mst.wat.chk"
 ------------
 54.n.pdb.xyz
 ------------
 Charge =  0 Multiplicity = 1

 SCF Done:  E(RB3LYP) =  -404.339134073     A.U. after   11 cycles
 Normal termination of Gaussian 16 at Tue Mar  1 20:24:04 2022.
 Gaussian 16:  ES64L-G16RevA.03 25-Dec-2016

 ----------------------------------------------------------------------
 #p b3lyp/6-31G(d) scrf=(iefpcm,read,solvent=water) geom=allcheck guess
 =read
 ----------------------------------------------------------------------

 Structure from the checkpoint file:  "54.n.pdb.xyz.mst.wat.chk"
 ------------
 54.n.pdb.xyz
 ------------
 Charge =  0 Multiplicity = 1

                         Standard orientation:
 ---------------------------------------------------------------------
 Center     Atomic      Atomic             Coordinates (Angstroms)
 Number     Number       Type             X           Y           Z
 ---------------------------------------------------------------------
      1          6           0        2.383287    0.634860   -0.358623
      2          6           0        2.326521   -0.750906    0.280954
      3          7           0        1.081930   -1.409547   -0.102968
      4          6           0       -0.112885   -0.698013   -0.020455
      5          6           0       -0.114659    0.716293    0.039282
      6          6           0        1.194572    1.480401    0.113302
      7          6           0       -1.340754    1.387127    0.045846
      8          6           0       -2.559003    0.706462    0.012526
      9          6           0       -2.549552   -0.690775   -0.035618
     10          6           0       -1.342912   -1.384214   -0.053444
     11          1           0        2.356979    0.522633   -1.448403
     12          1           0        3.326756    1.125157   -0.101854
     13          1           0        3.158629   -1.372384   -0.061213
     14          1           0        2.417770   -0.653528    1.375111
     15          1           0        1.012411   -2.376562    0.193807
     16          1           0        1.373183    1.798837    1.149473
     17          1           0        1.122600    2.401209   -0.475946
     18          1           0       -1.333677    2.473866    0.083849
     19          1           0       -3.495178    1.254775    0.021366
     20          1           0       -3.483299   -1.244823   -0.060144
     21          1           0       -1.337372   -2.469754   -0.097877
 ---------------------------------------------------------------------

 SCF Done:  E(RB3LYP) =  -404.346539657     A.U. after   10 cycles

 The electronic state is 1-A.
 Alpha  occ. eigenvalues --  -14.33296 -10.22076 -10.20964 -10.18469 -10.18352
 Alpha  occ. eigenvalues --  -10.18292 -10.18149 -10.18035 -10.17829 -10.17510
 Alpha  occ. eigenvalues --   -0.92875  -0.83527  -0.79009  -0.74190  -0.72498
 Alpha  occ. eigenvalues --   -0.65178  -0.61600  -0.60304  -0.54488  -0.51718
 Alpha  occ. eigenvalues --   -0.48376  -0.47330  -0.45252  -0.42655  -0.41420
 Alpha  occ. eigenvalues --   -0.41047  -0.40631  -0.38407  -0.37588  -0.35221
 Alpha  occ. eigenvalues --   -0.33471  -0.32403  -0.31835  -0.28934  -0.23946
 Alpha  occ. eigenvalues --   -0.19069
 Alpha virt. eigenvalues --    0.00236   0.01851   0.09756   0.11031   0.12163
 Alpha virt. eigenvalues --    0.13383   0.14723   0.16145   0.17476   0.17617
 Alpha virt. eigenvalues --    0.18018   0.18905   0.19956   0.21076   0.22331

 Mulliken charges:
               1
     1  C   -0.276991
     2  C   -0.126215
     3  N   -0.675232
     4  C    0.279093
     5  C    0.114718
     6  C   -0.338641
     7  C   -0.226226
     8  C   -0.169502
     9  C   -0.162316
    10  C   -0.220612
    11  H    0.147653
    12  H    0.147144
    13  H    0.152807
    14  H    0.138945
    15  H    0.360231
    16  H    0.157094
    17  H    0.153725
    18  H    0.133709
    19  H    0.133852
    20  H    0.139465
    21  H    0.137299
 Sum of Mulliken charges =  -0.00000

 Dipole moment (field-independent basis, Debye):
    X=              2.2026    Y=             -0.9278    Z=              0.9576  Tot=              2.5748
 Quadrupole moment (field-independent basis, Debye-Ang):
   XX=            -54.3991   YY=            -51.5391   ZZ=            -62.9476
   XY=             -0.7180   XZ=              1.3175   YZ=             -1.4453

 Normal termination of Gaussian 16 at Tue Mar  1 20:25:08 2022.
